Title
55513
    1DOPE     N    1   5.070   3.500   7.453  0.7769  0.1087  0.0661
    1DOPE   HN1    2   5.141   3.426   7.439  0.6714 -0.1490  0.8265
    1DOPE   HN2    3   5.025   3.482   7.545 -0.0590  0.3540 -0.2786
    1DOPE   HN3    4   4.999   3.511   7.378  0.1007  1.3217  0.8292
    1DOPE   C12    5   5.133   3.640   7.462 -0.9080  0.4386  0.4194
    1DOPE  H12A    6   5.182   3.651   7.363 -1.7670  3.4904  0.2304
    1DOPE  H12B    7   5.205   3.652   7.546  0.6332 -1.2249 -0.5918
    1DOPE   C11    8   5.029   3.748   7.468  0.2308  0.2906 -0.9823
    1DOPE  H11A    9   5.083   3.845   7.455 -0.2700  0.7298  0.0938
    1DOPE  H11B   10   4.985   3.755   7.570 -2.5066 -1.0251 -1.9794
    1DOPE     P   11   4.806   3.823   7.373 -0.2890 -0.2009 -0.1598
    1DOPE   O13   12   4.845   3.970   7.369 -0.0751 -0.0508  0.2884
    1DOPE   O14   13   4.715   3.775   7.477  0.2770 -0.0756  0.1037
    1DOPE   O11   14   4.736   3.792   7.231 -0.3178  0.2826 -0.2256
    1DOPE   O12   15   4.931   3.736   7.367  0.5934 -0.3406 -0.9435
    1DOPE    C1   16   4.794   3.696   7.144  0.3841  0.2373 -0.6020
    1DOPE    HA   17   4.774   3.592   7.179  0.4309  0.1073 -0.9622
    1DOPE    HB   18   4.904   3.707   7.139  0.7838 -1.4749  1.9317
    1DOPE    C2   19   4.735   3.699   6.997 -0.7141  0.2693  0.5533
    1DOPE    HS   20   4.772   3.607   6.948 -0.7133  1.3369 -1.5928
    1DOPE   O21   21   4.780   3.808   6.915  0.5714 -0.0243  0.2466
    1DOPE   C21   22   4.906   3.807   6.881  0.6248 -0.2666 -0.1804
    1DOPE   O22   23   4.976   3.708   6.895 -0.1428  0.1235 -0.8610
    1DOPE   C22   24   4.935   3.942   6.817 -0.5415 -0.0079 -0.0385
    1DOPE   H2R   25   5.043   3.929   6.798 -0.7358 -1.0781 -0.4987
    1DOPE   H2S   26   4.928   4.026   6.890  0.4104  0.6585 -0.6995
    1DOPE    C3   27   4.582   3.696   6.999  0.5498  0.0735  0.6822
    1DOPE    HX   28   4.550   3.796   7.036  1.1394 -0.2950  2.2585
    1DOPE    HY   29   4.555   3.620   7.076  0.9947 -0.0038  0.7650
    1DOPE   O31   30   4.515   3.668   6.874  0.6879 -0.7760  0.3661
    1DOPE   C31   31   4.531   3.553   6.811  0.4839  0.7260 -0.4817
    1DOPE   O32   32   4.594   3.461   6.854  0.1368  0.0410 -0.2028
    1DOPE   C32   33   4.448   3.560   6.688 -0.1066  0.2090  0.3246
    1DOPE   H2X   34   4.393   3.466   6.666 -0.6273  0.3122  1.1239
    1DOPE   H2Y   35   4.354   3.617   6.705 -0.9965 -0.3510 -2.2903
    1DOPE   C23   36   4.864   3.984   6.686  0.1270  0.4136 -0.2035
    1DOPE   H3R   37   4.877   4.094   6.673  0.4449  0.4245  0.1759
    1DOPE   H3S   38   4.754   3.968   6.692  0.2810 -1.9187 -2.1883
    1DOPE   C24   39   4.932   3.901   6.576 -0.3366  0.2703  0.2449
    1DOPE   H4R   40   4.946   3.793   6.602  2.7157  0.5136 -0.0558
    1DOPE   H4S   41   5.035   3.936   6.556 -0.8769  0.8930 -1.6038
    1DOPE   C25   42   4.876   3.919   6.432 -0.4282 -0.2315  0.3643
    1DOPE   H5R   43   4.880   4.020   6.386 -0.4511 -0.5199 -0.2828
    1DOPE   H5S   44   4.767   3.898   6.439 -0.4783  0.1567  0.7609
    1DOPE   C26   45   4.934   3.835   6.322 -0.5140  0.5865 -0.4626
    1DOPE   H6R   46   4.920   3.727   6.344  3.1792 -0.1141 -1.0131
    1DOPE   H6S   47   5.043   3.851   6.325 -0.5643  0.8450  1.4131
    1DOPE   C27   48   4.880   3.872   6.183  0.2795  0.0297  0.1157
    1DOPE   H7R   49   4.900   3.978   6.156  2.8740  0.1535  2.1459
    1DOPE   H7S   50   4.769   3.867   6.173  0.0798  1.8261  1.0584
    1DOPE   C28   51   4.950   3.787   6.075  0.1043  0.2778 -0.2588
    1DOPE   H8R   52   5.059   3.778   6.096  0.3169  0.6112 -1.1720
    1DOPE   H8S   53   4.936   3.845   5.981  0.7165  0.4225 -0.2636
    1DOPE   C29   54   4.894   3.652   6.037 -0.2595 -0.6027 -0.0211
    1DOPE   H9R   55   4.840   3.602   6.118 -0.4482  1.6041  1.3147
    1DOPE  C210   56   4.918   3.585   5.919 -0.1339 -0.6829  0.0897
    1DOPE  H10R   57   4.865   3.494   5.886 -0.8580 -0.2774  0.0945
    1DOPE  C211   58   5.009   3.642   5.803 -0.1362  0.1777  0.7189
    1DOPE  H11R   59   5.056   3.560   5.745 -0.5951  0.5033 -0.1306
    1DOPE  H11S   60   5.097   3.699   5.842 -0.3873  1.6735 -0.7831
    1DOPE  C212   61   4.945   3.732   5.703 -0.1704 -0.1830  0.2131
    1DOPE  H12R   62   5.016   3.804   5.657 -1.2716  0.5803 -0.3320
    1DOPE  H12S   63   4.872   3.805   5.744 -0.4707 -0.3002 -0.0975
    1DOPE  C213   64   4.862   3.656   5.597 -0.5328 -0.4072 -0.1558
    1DOPE  H13R   65   4.801   3.731   5.543  2.8405  0.2806 -3.4811
    1DOPE  H13S   66   4.790   3.598   5.657 -0.7709  0.1894  0.1403
    1DOPE  C214   67   4.938   3.570   5.494  0.3776  0.2119  0.8575
    1DOPE  H14R   68   4.979   3.479   5.543 -1.6463 -3.1643 -3.0696
    1DOPE  H14S   69   5.022   3.630   5.453  0.0985  1.3997  1.9542
    1DOPE  C215   70   4.849   3.516   5.379 -0.5570 -0.6509  0.0050
    1DOPE  H15R   71   4.754   3.485   5.428  0.9383 -1.1632  2.8144
    1DOPE  H15S   72   4.905   3.429   5.337  0.5092 -0.0006  0.0384
    1DOPE  C216   73   4.846   3.609   5.259  0.5505 -0.7060  0.8193
    1DOPE  H16R   74   4.934   3.589   5.195  0.0925 -1.0686  0.2979
    1DOPE  H16S   75   4.847   3.710   5.306 -1.6029 -0.5677  0.6867
    1DOPE  C217   76   4.718   3.609   5.176 -0.2114 -0.2445  0.0828
    1DOPE  H17R   77   4.629   3.591   5.242 -0.3825 -0.4767 -0.2098
    1DOPE  H17S   78   4.721   3.523   5.106 -2.7233 -1.5310  1.3839
    1DOPE  C218   79   4.705   3.733   5.087  0.5086  0.5968 -0.4323
    1DOPE  H18R   80   4.622   3.722   5.015 -0.8233 -1.4739  1.3162
    1DOPE  H18S   81   4.801   3.751   5.033  0.0894 -2.2225 -2.3075
    1DOPE  H18T   82   4.669   3.819   5.148  0.9513 -0.4409  1.3600
    1DOPE   C33   83   4.525   3.598   6.559  0.0678  0.0907 -0.3269
    1DOPE   H3X   84   4.593   3.512   6.540  1.5355  0.8251  1.2521
    1DOPE   H3Y   85   4.586   3.691   6.566 -0.5255  0.4052  0.9742
    1DOPE   C34   86   4.429   3.604   6.445  0.3213 -0.2614 -0.3229
    1DOPE   H4X   87   4.392   3.501   6.428 -1.2684 -0.0967  1.7225
    1DOPE   H4Y   88   4.344   3.672   6.466 -0.9036 -1.4738 -1.1475
    1DOPE   C35   89   4.504   3.632   6.315  0.1772  0.3177  0.0339
    1DOPE   H5X   90   4.583   3.555   6.318  0.8914  1.0349  0.0046
    1DOPE   H5Y   91   4.555   3.731   6.318 -0.1800  0.4943  0.2752
    1DOPE   C36   92   4.414   3.627   6.194  0.4669  0.6914 -0.3751
    1DOPE   H6X   93   4.341   3.710   6.197  1.6458  1.7327  1.2291
    1DOPE   H6Y   94   4.358   3.531   6.194 -0.3812  1.1781  0.3840
    1DOPE   C37   95   4.494   3.648   6.060 -0.2054  0.6017  0.1211
    1DOPE   H7X   96   4.537   3.750   6.046  1.6206 -0.3489 -2.0632
    1DOPE   H7Y   97   4.584   3.583   6.049 -0.5580  0.0370  0.5036
    1DOPE   C38   98   4.396   3.629   5.941 -0.0844 -0.6962  0.0018
    1DOPE   H8X   99   4.337   3.723   5.944 -0.2059 -0.6504 -2.0393
    1DOPE   H8Y  100   4.316   3.555   5.962 -1.0160  0.5122  0.8396
    1DOPE   C39  101   4.460   3.606   5.802 -0.4270  0.7710 -0.2168
    1DOPE   H9X  102   4.534   3.680   5.769 -1.0214  0.6770 -1.8742
    1DOPE  C310  103   4.455   3.500   5.720  0.8759 -0.0902  0.2444
    1DOPE  H10X  104   4.497   3.514   5.619 -1.1343  1.0436 -0.5013
    1DOPE  C311  105   4.358   3.385   5.727 -0.4795  0.1455 -0.1312
    1DOPE  H11X  106   4.412   3.302   5.677  0.3785  0.5808  0.0479
    1DOPE  H11Y  107   4.344   3.347   5.830  1.2366  2.0978  0.8927
    1DOPE  C312  108   4.216   3.415   5.678 -0.3749 -0.0344 -0.7100
    1DOPE  H12X  109   4.189   3.518   5.713  1.0483  0.3537 -0.7062
    1DOPE  H12Y  110   4.138   3.356   5.730 -0.6845  0.3488 -0.7298
    1DOPE  C313  111   4.219   3.405   5.528  0.6015  0.1921 -0.0823
    1DOPE  H13X  112   4.280   3.493   5.498  3.0224 -1.0310  0.9574
    1DOPE  H13Y  113   4.281   3.316   5.504 -0.1850 -0.6711  0.9956
    1DOPE  C314  114   4.077   3.406   5.476  0.3876  0.3314 -0.6505
    1DOPE  H14X  115   4.029   3.505   5.491  1.2782  1.0759 -2.3595
    1DOPE  H14Y  116   4.021   3.340   5.545 -2.3658  2.5100 -0.6059
    1DOPE  C315  117   4.068   3.346   5.332 -0.7738  0.5354 -0.0768
    1DOPE  H15X  118   4.127   3.252   5.318 -0.9534  0.4075  0.0246
    1DOPE  H15Y  119   4.100   3.418   5.254  0.0545  0.1276 -0.1335
    1DOPE  C316  120   3.925   3.308   5.285  0.2720  0.5069 -0.3853
    1DOPE  H16X  121   3.934   3.267   5.182  0.5207 -1.4692  0.3659
    1DOPE  H16Y  122   3.871   3.404   5.288  0.0444  0.3800 -0.3855
    1DOPE  C317  123   3.852   3.192   5.354  0.6329 -0.4993 -0.1613
    1DOPE  H17X  124   3.929   3.137   5.412 -0.0307 -1.0299  0.2317
    1DOPE  H17Y  125   3.778   3.242   5.421  1.8213  1.8850 -0.5228
    1DOPE  C318  126   3.766   3.098   5.263  0.2051 -0.2039 -0.1682
    1DOPE  H18X  127   3.826   3.065   5.175  0.5387  1.5364 -0.6320
    1DOPE  H18Y  128   3.726   3.005   5.310 -1.2328  1.0961  1.3148
    1DOPE  H18Z  129   3.686   3.159   5.217  0.7443 -0.3716 -1.3636
    2DOPE     N  130   5.133   4.641   7.538 -0.2256  0.3305 -0.5791
    2DOPE   HN1  131   5.206   4.702   7.580  0.9577 -0.0946 -1.9359
    2DOPE   HN2  132   5.083   4.609   7.624  0.4702 -1.1849 -0.7120
    2DOPE   HN3  133   5.185   4.559   7.500  2.5265  0.9435  1.5711
    2DOPE   C12  134   5.051   4.720   7.434  0.2561 -0.3810 -0.1279
    2DOPE  H12A  135   5.128   4.760   7.366  2.1625 -1.5395  1.2465
    2DOPE  H12B  136   5.012   4.807   7.491 -1.9905 -0.5987 -1.2239
    2DOPE   C11  137   4.939   4.642   7.363 -0.1024 -0.3440  0.1981
    2DOPE  H11A  138   4.864   4.710   7.316 -0.8630 -2.6259 -2.0944
    2DOPE  H11B  139   4.880   4.598   7.446 -0.0370  0.4193  0.6581
    2DOPE     P  140   4.944   4.408   7.245  0.3144  0.0281 -0.1078
    2DOPE   O13  141   4.890   4.364   7.377  0.3013 -0.0668  0.4583
    2DOPE   O14  142   5.041   4.321   7.178 -0.0307  0.6380 -0.1068
    2DOPE   O11  143   4.816   4.429   7.148  0.2959  0.5317 -0.1520
    2DOPE   O12  144   5.002   4.549   7.273  0.0885  0.0384 -0.1484
    2DOPE    C1  145   4.824   4.522   7.035 -0.4037  0.7242  0.0049
    2DOPE    HA  146   4.923   4.528   6.987 -1.0554  0.4492 -1.4290
    2DOPE    HB  147   4.799   4.626   7.066 -2.4665  0.0834  0.7051
    2DOPE    C2  148   4.734   4.479   6.914 -0.4551 -0.1357 -0.6597
    2DOPE    HS  149   4.750   4.565   6.845 -1.6796 -0.5739 -1.5188
    2DOPE   O21  150   4.603   4.462   6.957 -0.1279  0.5507  0.0101
    2DOPE   C21  151   4.511   4.504   6.870 -0.2092 -0.4566  0.0505
    2DOPE   O22  152   4.536   4.556   6.762  0.2513  0.0348 -0.2152
    2DOPE   C22  153   4.378   4.469   6.931  0.0744  0.0913 -0.5005
    2DOPE   H2R  154   4.359   4.510   7.033  0.3597 -3.3215  1.0683
    2DOPE   H2S  155   4.376   4.359   6.939  1.7159 -0.0731 -1.8227
    2DOPE    C3  156   4.788   4.346   6.862 -0.5903 -0.2644 -0.4897
    2DOPE    HX  157   4.762   4.261   6.929  1.4967 -0.8154 -0.2949
    2DOPE    HY  158   4.898   4.346   6.851 -0.5463 -0.3495 -0.0728
    2DOPE   O31  159   4.721   4.318   6.733 -0.4443  0.1557 -0.6695
    2DOPE   C31  160   4.759   4.389   6.630 -0.1097  0.5296 -0.2731
    2DOPE   O32  161   4.856   4.459   6.624 -0.0401  0.0815  0.3163
    2DOPE   C32  162   4.654   4.362   6.524  0.0254 -0.5343  0.1429
    2DOPE   H2X  163   4.703   4.296   6.449  0.4546 -0.5554  0.4401
    2DOPE   H2Y  164   4.563   4.311   6.560 -0.9985  0.4147 -0.9935
    2DOPE   C23  165   4.261   4.526   6.836 -0.0434  0.2168 -0.2739
    2DOPE   H3R  166   4.281   4.631   6.806  1.2681 -0.4759 -2.0634
    2DOPE   H3S  167   4.159   4.519   6.878 -0.4299  4.1738 -0.1616
    2DOPE   C24  168   4.254   4.452   6.696 -0.0617 -0.4025  0.7513
    2DOPE   H4R  169   4.255   4.343   6.716  1.0145 -0.6488 -0.4900
    2DOPE   H4S  170   4.347   4.473   6.639  1.1361 -0.4716  2.6180
    2DOPE   C25  171   4.120   4.470   6.612 -0.2413 -0.8974  0.0443
    2DOPE   H5R  172   4.038   4.445   6.683  2.1898 -3.1088  2.2509
    2DOPE   H5S  173   4.125   4.398   6.528 -0.5303  0.8991 -1.6092
    2DOPE   C26  174   4.112   4.612   6.548  0.2392  0.4832 -0.4101
    2DOPE   H6R  175   4.216   4.648   6.532  1.5239 -2.0864  1.5378
    2DOPE   H6S  176   4.082   4.690   6.621 -1.8914  0.5002 -1.2323
    2DOPE   C27  177   4.033   4.619   6.419  0.2451 -0.3607 -0.4551
    2DOPE   H7R  178   4.004   4.514   6.395 -2.4066 -0.0376  1.0077
    2DOPE   H7S  179   4.096   4.662   6.339  0.4130  2.1854  0.9559
    2DOPE   C28  180   3.906   4.700   6.432 -0.5965 -0.4267  0.4900
    2DOPE   H8R  181   3.843   4.689   6.523  0.3888  0.3940  1.2843
    2DOPE   H8S  182   3.839   4.670   6.348  0.1843 -0.4963 -0.1149
    2DOPE   C29  183   3.927   4.847   6.415  0.1036  0.2959 -0.4221
    2DOPE   H9R  184   3.944   4.891   6.514  1.5278 -1.2370  0.0602
    2DOPE  C210  185   3.931   4.909   6.294 -0.4651  0.4844  0.6453
    2DOPE  H10R  186   3.958   5.015   6.284 -1.6917  0.5929 -2.4602
    2DOPE  C211  187   3.922   4.839   6.161  0.0615 -0.2035  0.2085
    2DOPE  H11R  188   3.825   4.852   6.109  0.5795 -0.9063 -0.9850
    2DOPE  H11S  189   3.929   4.729   6.174  1.7996 -0.1828 -0.2270
    2DOPE  C212  190   4.050   4.869   6.075  0.0793  0.2959 -0.0353
    2DOPE  H12R  191   4.051   4.789   5.997  1.6082 -0.4899  0.7530
    2DOPE  H12S  192   4.141   4.849   6.135  0.4838 -0.4613 -0.8703
    2DOPE  C213  193   4.053   5.008   6.013 -0.0126 -0.1121 -0.1979
    2DOPE  H13R  194   4.058   5.086   6.091 -1.8387 -0.8250  0.6774
    2DOPE  H13S  195   3.960   5.020   5.953  1.4799  2.4093 -2.2191
    2DOPE  C214  196   4.162   5.009   5.913 -0.9596  0.2038 -0.0267
    2DOPE  H14R  197   4.145   4.920   5.848 -1.9722  1.3647 -1.4023
    2DOPE  H14S  198   4.260   4.996   5.963 -0.7282  2.1728  0.0871
    2DOPE  C215  199   4.172   5.129   5.830  0.2395  0.0434 -0.0053
    2DOPE  H15R  200   4.183   5.224   5.886  0.6369  0.0291 -0.0580
    2DOPE  H15S  201   4.085   5.143   5.761  0.1074 -0.8878 -0.0435
    2DOPE  C216  202   4.296   5.139   5.740 -0.7563 -0.3153 -0.1026
    2DOPE  H16R  203   4.296   5.056   5.666  2.6684 -0.8009  0.3054
    2DOPE  H16S  204   4.379   5.115   5.810 -1.2351 -0.3856  0.4521
    2DOPE  C217  205   4.335   5.275   5.688  0.5595  0.6432 -0.0435
    2DOPE  H17R  206   4.248   5.308   5.628  0.4178 -0.0148 -0.2002
    2DOPE  H17S  207   4.416   5.259   5.613 -0.2410 -1.1628 -0.5585
    2DOPE  C218  208   4.370   5.392   5.788 -0.1747  0.9314  0.0068
    2DOPE  H18R  209   4.448   5.354   5.857 -0.0737 -1.2957 -1.2591
    2DOPE  H18S  210   4.279   5.423   5.845 -2.5499 -2.3290 -1.6648
    2DOPE  H18T  211   4.402   5.486   5.739  2.0847 -0.6978 -1.8457
    2DOPE   C33  212   4.609   4.492   6.451  0.6581 -0.3079  0.2021
    2DOPE   H3X  213   4.702   4.516   6.394  0.6895 -1.2812 -0.1879
    2DOPE   H3Y  214   4.582   4.574   6.520  1.6431  0.2574 -0.0538
    2DOPE   C34  215   4.502   4.473   6.343  0.5256  0.1699  0.1877
    2DOPE   H4X  216   4.521   4.373   6.298 -1.1035  0.3177 -0.9109
    2DOPE   H4Y  217   4.399   4.471   6.383 -0.2945  0.6044 -1.7936
    2DOPE   C35  218   4.528   4.585   6.242 -0.3707 -0.9507  0.7695
    2DOPE   H5X  219   4.627   4.564   6.196 -0.7396 -0.6693 -0.1876
    2DOPE   H5Y  220   4.529   4.681   6.298 -0.6819 -0.5704  0.1255
    2DOPE   C36  221   4.437   4.581   6.118 -0.0942  0.0744  0.0442
    2DOPE   H6X  222   4.338   4.613   6.157  0.5985  0.9796  1.1104
    2DOPE   H6Y  223   4.443   4.476   6.081  2.9953  0.7989 -1.8620
    2DOPE   C37  224   4.470   4.688   6.009  0.4417  0.1860 -0.5349
    2DOPE   H7X  225   4.477   4.785   6.063  0.0235  0.9383 -1.7902
    2DOPE   H7Y  226   4.558   4.658   5.948  0.9917 -1.5854  1.0155
    2DOPE   C38  227   4.360   4.684   5.901  0.6538 -0.2864  0.1013
    2DOPE   H8X  228   4.359   4.782   5.850 -1.3059  0.9161  2.2324
    2DOPE   H8Y  229   4.264   4.679   5.958 -0.3936  1.6535 -1.3753
    2DOPE   C39  230   4.361   4.563   5.811 -0.1068  0.3779  0.3587
    2DOPE   H9X  231   4.404   4.470   5.851  0.6195  0.7959  0.5445
    2DOPE  C310  232   4.341   4.558   5.677  0.4147 -0.1769 -0.3921
    2DOPE  H10X  233   4.349   4.463   5.621 -0.2080 -0.9420  0.7803
    2DOPE  C311  234   4.295   4.677   5.596 -0.5246  0.3324  0.7650
    2DOPE  H11X  235   4.187   4.704   5.595 -0.4263  0.7239  0.7068
    2DOPE  H11Y  236   4.354   4.765   5.629 -1.0044  0.0846  2.3885
    2DOPE  C312  237   4.337   4.675   5.446 -0.4980 -0.1591  0.8454
    2DOPE  H12X  238   4.434   4.621   5.438 -0.1834  0.4927  0.1031
    2DOPE  H12Y  239   4.364   4.779   5.416 -3.9321  0.0896 -2.0146
    2DOPE  C313  240   4.228   4.608   5.355 -0.2006 -0.4316 -0.8936
    2DOPE  H13X  241   4.239   4.497   5.360  1.1222 -0.2567  1.0662
    2DOPE  H13Y  242   4.135   4.647   5.403  0.6063  1.8117 -1.0273
    2DOPE  C314  243   4.222   4.659   5.208  0.1609 -0.0926 -0.3197
    2DOPE  H14X  244   4.121   4.630   5.174  0.1142  0.4060 -0.6218
    2DOPE  H14Y  245   4.300   4.601   5.153  1.8636  2.6604 -0.9999
    2DOPE  C315  246   4.234   4.807   5.192  0.2709 -0.4453 -0.0994
    2DOPE  H15X  247   4.231   4.826   5.082 -0.9786 -1.3904 -0.2496
    2DOPE  H15Y  248   4.339   4.837   5.211 -0.1558  0.4940  0.8850
    2DOPE  C316  249   4.138   4.908   5.258 -0.3893 -0.4011  0.1573
    2DOPE  H16X  250   4.157   4.908   5.367 -1.4721  1.5795  0.3956
    2DOPE  H16Y  251   4.033   4.877   5.238 -0.4519  0.5712 -1.1801
    2DOPE  C317  252   4.178   5.054   5.218  0.6311  0.2064  0.5824
    2DOPE  H17X  253   4.248   5.054   5.132 -0.4119  1.1353 -0.3168
    2DOPE  H17Y  254   4.085   5.113   5.204  0.2268 -0.4338  0.5276
    2DOPE  C318  255   4.244   5.139   5.335  0.7847  0.0240 -0.1881
    2DOPE  H18X  256   4.299   5.223   5.287  1.1842 -0.4061 -0.4784
    2DOPE  H18Y  257   4.172   5.170   5.414  1.0794 -0.3192  0.2155
    2DOPE  H18Z  258   4.323   5.082   5.388  0.9593 -0.4274 -0.9229
    3DOPE     N  259   3.112   3.432   7.451 -0.6140 -0.4039 -0.2554
    3DOPE   HN1  260   3.088   3.345   7.398  0.7759 -0.0072 -1.6069
    3DOPE   HN2  261   3.213   3.426   7.474 -0.3680  1.8913 -0.5406
    3DOPE   HN3  262   3.064   3.446   7.543  1.4916  0.2924  0.7996
    3DOPE   C12  263   3.069   3.549   7.366 -0.1989 -0.2558  0.5399
    3DOPE  H12A  264   3.068   3.637   7.433  1.5353 -0.6523  1.1347
    3DOPE  H12B  265   2.966   3.531   7.328 -0.0791  1.6768 -0.8560
    3DOPE   C11  266   3.164   3.567   7.245  0.2821  0.6941  1.3033
    3DOPE  H11A  267   3.267   3.582   7.284  0.5611  2.2725  0.0955
    3DOPE  H11B  268   3.136   3.669   7.211 -1.0605  0.2343  0.9401
    3DOPE     P  269   3.105   3.495   6.999  0.4425 -0.0402 -0.1128
    3DOPE   O13  270   2.992   3.590   7.005 -0.4469  0.4598  0.0748
    3DOPE   O14  271   3.075   3.367   6.934  0.1303  0.2284  0.0387
    3DOPE   O11  272   3.228   3.562   6.943 -0.8001  0.2764  0.5403
    3DOPE   O12  273   3.151   3.465   7.146  0.6934  0.2704 -0.0537
    3DOPE    C1  274   3.334   3.495   6.874  0.1719 -0.0017  0.1528
    3DOPE    HA  275   3.317   3.386   6.863  2.4345 -0.6728  2.3527
    3DOPE    HB  276   3.422   3.501   6.942 -1.1241  1.4902  1.8041
    3DOPE    C2  277   3.376   3.565   6.745  0.1663 -0.0933  0.1520
    3DOPE    HS  278   3.467   3.517   6.701 -0.1364  0.3192 -0.9652
    3DOPE   O21  279   3.406   3.707   6.768 -0.3813  0.4977  0.3643
    3DOPE   C21  280   3.524   3.732   6.815  0.7296  0.3698  0.0536
    3DOPE   O22  281   3.595   3.652   6.874  0.1269 -0.1043 -0.1782
    3DOPE   C22  282   3.552   3.884   6.790  0.0846  0.3734  0.7160
    3DOPE   H2R  283   3.574   3.927   6.890 -0.4866  1.6527  0.3107
    3DOPE   H2S  284   3.464   3.937   6.747  0.6877  2.6848  2.1335
    3DOPE    C3  285   3.262   3.550   6.636  0.5093 -0.5837  1.0369
    3DOPE    HX  286   3.169   3.551   6.697  1.7177 -1.1190  2.9991
    3DOPE    HY  287   3.258   3.451   6.584 -2.3180 -0.3636  0.6743
    3DOPE   O31  288   3.261   3.655   6.534 -0.1514  0.0366  1.0506
    3DOPE   C31  289   3.188   3.766   6.573 -0.1168 -0.2571 -0.3185
    3DOPE   O32  290   3.118   3.773   6.673 -0.3093  0.1911 -0.0638
    3DOPE   C32  291   3.192   3.886   6.477 -0.5569 -0.2334  0.2802
    3DOPE   H2X  292   3.298   3.918   6.488  0.3557 -2.3097 -1.6180
    3DOPE   H2Y  293   3.183   3.844   6.374 -1.3593 -0.9777  0.6472
    3DOPE   C23  294   3.677   3.908   6.701  0.2136 -0.4775 -0.4498
    3DOPE   H3R  295   3.752   3.826   6.701 -1.4343 -2.0537 -0.2388
    3DOPE   H3S  296   3.732   3.995   6.744 -1.3508  1.7118 -2.5863
    3DOPE   C24  297   3.643   3.921   6.556 -0.3917 -0.0644  0.7136
    3DOPE   H4R  298   3.728   3.968   6.503 -0.0766  0.4191  1.6166
    3DOPE   H4S  299   3.565   4.001   6.554  0.7613  1.0823  0.1130
    3DOPE   C25  300   3.598   3.798   6.491 -0.3277  0.5710 -0.2711
    3DOPE   H5R  301   3.495   3.763   6.516  0.2352  0.2918  1.7951
    3DOPE   H5S  302   3.662   3.712   6.520 -1.1738 -0.2470 -0.7291
    3DOPE   C26  303   3.624   3.792   6.332 -0.0285 -0.2303 -0.1784
    3DOPE   H6R  304   3.607   3.689   6.297 -1.9886  0.7986 -2.5288
    3DOPE   H6S  305   3.726   3.825   6.301  0.2897 -1.4788 -0.5093
    3DOPE   C27  306   3.525   3.882   6.261  0.3033 -0.0694 -0.0389
    3DOPE   H7R  307   3.508   3.973   6.323  1.1571  0.2498 -0.2656
    3DOPE   H7S  308   3.427   3.828   6.260 -0.2629  0.9372 -0.4152
    3DOPE   C28  309   3.554   3.924   6.121  0.4781 -0.1879 -0.1115
    3DOPE   H8R  310   3.580   3.828   6.072 -3.2560 -2.3696  1.7022
    3DOPE   H8S  311   3.635   4.000   6.113  1.2827 -0.8217  1.5329
    3DOPE   C29  312   3.429   3.973   6.053  0.0142 -0.2946 -0.1205
    3DOPE   H9R  313   3.389   4.059   6.110  0.7716  0.8549 -1.2574
    3DOPE  C210  314   3.379   3.926   5.941  0.5974  0.2214  0.6034
    3DOPE  H10R  315   3.285   3.969   5.902 -0.5204 -2.4036  0.2123
    3DOPE  C211  316   3.440   3.830   5.843  0.1355 -0.0521 -0.6361
    3DOPE  H11R  317   3.361   3.763   5.804  0.6822 -0.7508 -0.5621
    3DOPE  H11S  318   3.514   3.759   5.886  2.2818  2.4035 -0.0672
    3DOPE  C212  319   3.514   3.895   5.726 -0.5726  0.4153 -0.3852
    3DOPE  H12R  320   3.463   3.983   5.682 -1.5514  0.3311  0.5564
    3DOPE  H12S  321   3.536   3.815   5.651 -2.8875 -1.3214  0.6778
    3DOPE  C213  322   3.644   3.969   5.765 -0.0081 -0.1507 -0.1686
    3DOPE  H13R  323   3.721   3.901   5.808 -1.3398 -1.0402  0.8779
    3DOPE  H13S  324   3.621   4.047   5.840  1.2083  0.9449 -0.8924
    3DOPE  C214  325   3.707   4.046   5.645 -0.5098  0.8431 -0.1825
    3DOPE  H14R  326   3.806   4.083   5.678 -1.3808  2.5004  0.7257
    3DOPE  H14S  327   3.636   4.128   5.620 -2.5843 -0.9852 -0.6208
    3DOPE  C215  328   3.717   3.967   5.511  0.0403 -0.2394 -0.3038
    3DOPE  H15R  329   3.616   3.951   5.469  0.4174  1.4357 -1.9765
    3DOPE  H15S  330   3.765   3.867   5.524 -0.4903 -0.5690 -0.8155
    3DOPE  C216  331   3.815   4.026   5.406  0.3221 -0.7211 -0.2845
    3DOPE  H16R  332   3.915   4.029   5.453 -0.8982 -1.3724  2.5858
    3DOPE  H16S  333   3.797   4.134   5.384  0.8322 -0.3319  1.0793
    3DOPE  C217  334   3.807   3.956   5.271 -0.0839 -0.3959 -0.5481
    3DOPE  H17R  335   3.861   4.024   5.201  1.3428 -0.4072  0.4957
    3DOPE  H17S  336   3.704   3.938   5.234 -0.0371 -2.3788  0.1662
    3DOPE  C218  337   3.857   3.809   5.263 -0.1764  0.1184 -0.0608
    3DOPE  H18R  338   3.960   3.807   5.303 -0.4087  2.5581  0.8685
    3DOPE  H18S  339   3.859   3.794   5.152 -1.1887 -0.7185  0.0196
    3DOPE  H18T  340   3.788   3.739   5.314  0.5656 -0.7392 -0.2110
    3DOPE   C33  341   3.089   4.002   6.503 -0.5738 -0.4437  0.1654
    3DOPE   H3X  342   3.109   4.058   6.597 -2.0095 -1.9552  1.4159
    3DOPE   H3Y  343   2.991   3.950   6.505 -0.7778 -0.0630  0.0760
    3DOPE   C34  344   3.077   4.099   6.387 -0.3112 -0.3989  0.2331
    3DOPE   H4X  345   3.011   4.062   6.306 -0.5025  1.1990 -0.3865
    3DOPE   H4Y  346   3.024   4.186   6.432  0.3103  0.2011 -0.1775
    3DOPE   C35  347   3.214   4.155   6.340  0.2280  0.3998  0.1458
    3DOPE   H5X  348   3.271   4.075   6.288 -0.7177  0.0631 -0.3983
    3DOPE   H5Y  349   3.267   4.195   6.429 -0.0334  1.3182 -0.1104
    3DOPE   C36  350   3.195   4.274   6.245  0.5098  0.7285 -1.0112
    3DOPE   H6X  351   3.140   4.357   6.293 -0.3238 -1.6824  2.6324
    3DOPE   H6Y  352   3.128   4.244   6.162 -2.6589  3.0085  0.5086
    3DOPE   C37  353   3.332   4.316   6.193  0.0463  0.0078 -0.1892
    3DOPE   H7X  354   3.407   4.320   6.274  2.0289 -0.0788 -1.9385
    3DOPE   H7Y  355   3.350   4.230   6.125  2.7665 -0.4996  1.0320
    3DOPE   C38  356   3.339   4.447   6.108 -0.2169  0.2442 -0.4559
    3DOPE   H8X  357   3.446   4.473   6.094  0.5083 -1.2485  1.7226
    3DOPE   H8Y  358   3.311   4.534   6.172  3.2803  1.0657  0.1350
    3DOPE   C39  359   3.252   4.442   5.993  0.0635 -0.6172 -0.6002
    3DOPE   H9X  360   3.176   4.363   5.991 -1.1894  0.5532 -0.3862
    3DOPE  C310  361   3.273   4.518   5.884 -0.0081 -0.1953 -0.1106
    3DOPE  H10X  362   3.196   4.519   5.805  0.2682 -0.7771 -0.3977
    3DOPE  C311  363   3.376   4.625   5.872 -0.2888  0.0075 -0.9302
    3DOPE  H11X  364   3.444   4.622   5.960 -0.4529 -1.8462 -0.8240
    3DOPE  H11Y  365   3.446   4.617   5.786  1.5351  2.5720  0.2001
    3DOPE  C312  366   3.304   4.757   5.863 -1.1591 -1.1853 -0.1153
    3DOPE  H12X  367   3.236   4.768   5.950  0.5150  1.9531  0.9376
    3DOPE  H12Y  368   3.244   4.773   5.771  0.3625 -0.1632 -0.9671
    3DOPE  C313  369   3.401   4.874   5.867  0.1452  0.1382  0.5382
    3DOPE  H13X  370   3.344   4.968   5.858  0.3347  0.2822  0.8103
    3DOPE  H13Y  371   3.461   4.877   5.961  0.3394 -2.9825  0.6339
    3DOPE  C314  372   3.494   4.891   5.751 -0.2830  0.1655  0.4085
    3DOPE  H14X  373   3.586   4.830   5.757  0.2728  1.0437  1.0128
    3DOPE  H14Y  374   3.540   4.991   5.763  0.2256 -0.1177  0.8655
    3DOPE  C315  375   3.419   4.886   5.616  0.1406  0.3427 -0.1485
    3DOPE  H15X  376   3.468   4.961   5.551  0.5336  0.6754  0.5261
    3DOPE  H15Y  377   3.314   4.922   5.625  0.0274 -0.0354  0.0886
    3DOPE  C316  378   3.429   4.745   5.552 -0.4682  0.4976 -0.3935
    3DOPE  H16X  379   3.363   4.680   5.614  1.2888 -1.9139 -0.9502
    3DOPE  H16Y  380   3.538   4.727   5.555 -0.6519 -0.5635  0.5416
    3DOPE  C317  381   3.398   4.730   5.406 -0.3308  0.3119 -0.1766
    3DOPE  H17X  382   3.459   4.808   5.356 -0.6110  0.7699  0.1745
    3DOPE  H17Y  383   3.417   4.626   5.374 -1.8943 -0.0348 -0.0498
    3DOPE  C318  384   3.254   4.767   5.377  0.1961  0.3852 -0.4619
    3DOPE  H18X  385   3.219   4.768   5.271 -0.6948  1.1037 -0.1721
    3DOPE  H18Y  386   3.194   4.703   5.446  0.6810  0.7504  0.3136
    3DOPE  H18Z  387   3.243   4.874   5.403 -0.8401  0.5218 -1.3857
    4DOPE     N  388   3.366   2.086   7.231  0.3027 -0.4036 -0.2552
    4DOPE   HN1  389   3.391   2.116   7.327 -0.5615 -2.6360  0.7330
    4DOPE   HN2  390   3.264   2.069   7.224  0.6944 -2.8582 -0.7976
    4DOPE   HN3  391   3.416   1.998   7.209 -1.1141 -2.1397  2.8920
    4DOPE   C12  392   3.400   2.194   7.124  1.1888 -0.5282 -0.3876
    4DOPE  H12A  393   3.312   2.263   7.126  1.1973 -0.5261  0.2779
    4DOPE  H12B  394   3.409   2.147   7.024  0.3796  0.6309 -1.0279
    4DOPE   C11  395   3.514   2.272   7.175 -0.1725  0.0295  0.2878
    4DOPE  H11A  396   3.494   2.327   7.269 -0.1521  0.8218 -0.1600
    4DOPE  H11B  397   3.535   2.348   7.097 -0.8606 -1.2256 -1.1741
    4DOPE     P  398   3.775   2.221   7.145  0.0478 -0.0685  0.5292
    4DOPE   O13  399   3.856   2.101   7.167 -0.3402  0.0765 -0.2565
    4DOPE   O14  400   3.814   2.344   7.217 -0.1101  0.3589  0.1366
    4DOPE   O11  401   3.766   2.255   6.991 -0.0750  0.0108 -0.2823
    4DOPE   O12  402   3.629   2.182   7.188 -0.9609 -0.2765 -0.2816
    4DOPE    C1  403   3.710   2.155   6.906  0.4786  0.5506  0.3944
    4DOPE    HA  404   3.612   2.182   6.860 -1.6412 -2.1830  2.9091
    4DOPE    HB  405   3.697   2.061   6.963  0.4598  1.2420  1.5435
    4DOPE    C2  406   3.817   2.124   6.801  0.3308 -0.0173  0.4417
    4DOPE    HS  407   3.907   2.120   6.866  0.2469 -0.8401  0.5184
    4DOPE   O21  408   3.833   2.221   6.698  0.2100 -0.3130 -0.5717
    4DOPE   C21  409   3.732   2.231   6.609 -0.0303 -0.3056 -0.4336
    4DOPE   O22  410   3.625   2.166   6.607 -0.5031  0.1281  0.1586
    4DOPE   C22  411   3.775   2.342   6.508 -0.0292  0.9196 -0.7030
    4DOPE   H2R  412   3.828   2.421   6.566 -0.5208  0.3948  0.4885
    4DOPE   H2S  413   3.691   2.397   6.460  0.3010  0.4275 -1.8782
    4DOPE    C3  414   3.805   1.981   6.732  0.2649 -0.0023 -0.2952
    4DOPE    HX  415   3.701   1.976   6.693 -0.0424 -1.3733  0.6340
    4DOPE    HY  416   3.817   1.912   6.818  1.6530  1.7937  1.0310
    4DOPE   O31  417   3.898   1.959   6.626 -0.6322  0.0940  0.1674
    4DOPE   C31  418   4.029   1.957   6.663  0.7054  0.4071  0.2133
    4DOPE   O32  419   4.062   1.964   6.778  0.1833 -0.1241 -0.1425
    4DOPE   C32  420   4.115   1.950   6.536 -0.0851 -0.1589  0.0389
    4DOPE   H2X  421   4.085   1.875   6.460  1.3226 -0.0811 -0.6289
    4DOPE   H2Y  422   4.101   2.042   6.476 -0.2706 -0.3337 -0.1843
    4DOPE   C23  423   3.869   2.295   6.391  0.7200 -1.4669  0.2416
    4DOPE   H3R  424   3.810   2.221   6.334  0.2913 -0.4411 -0.6690
    4DOPE   H3S  425   3.963   2.247   6.426  1.8123 -0.3162 -0.9903
    4DOPE   C24  426   3.895   2.414   6.288 -0.1470  0.6244 -0.8665
    4DOPE   H4R  427   3.947   2.502   6.332  1.9828  0.3209 -2.6179
    4DOPE   H4S  428   3.798   2.456   6.253  0.2449  2.6162  0.2507
    4DOPE   C25  429   3.962   2.360   6.164  0.4223  0.3018 -0.1276
    4DOPE   H5R  430   3.894   2.278   6.135 -1.2000  1.4104  0.3870
    4DOPE   H5S  431   4.056   2.310   6.195 -0.1595 -0.6190  0.1935
    4DOPE   C26  432   3.990   2.457   6.051  0.3905 -0.1399 -0.4513
    4DOPE   H6R  433   3.896   2.505   6.018  0.1599  1.0799  1.7639
    4DOPE   H6S  434   4.039   2.406   5.965  0.7906 -2.8967  1.2728
    4DOPE   C27  435   4.068   2.581   6.097  0.9478  0.1578  0.7913
    4DOPE   H7R  436   4.028   2.627   6.190 -1.8013 -0.3754 -0.0147
    4DOPE   H7S  437   4.053   2.651   6.012 -0.2929 -0.8296  0.1580
    4DOPE   C28  438   4.218   2.560   6.125  0.0571  0.1839 -0.0961
    4DOPE   H8R  439   4.262   2.515   6.034  1.7591  1.3812  0.0808
    4DOPE   H8S  440   4.230   2.473   6.193  2.5127 -0.7467 -1.5737
    4DOPE   C29  441   4.293   2.678   6.184  0.3492  0.6317  0.3080
    4DOPE   H9R  442   4.243   2.727   6.268  0.6395  1.0408  0.2429
    4DOPE  C210  443   4.410   2.728   6.142 -0.3302  0.8183 -0.5730
    4DOPE  H10R  444   4.459   2.811   6.195 -1.4921 -0.1985  2.2783
    4DOPE  C211  445   4.494   2.676   6.031  0.5122  0.2399  0.3697
    4DOPE  H11R  446   4.507   2.566   6.035  0.8794  0.2822  0.3481
    4DOPE  H11S  447   4.597   2.715   6.048  0.1802  0.2835  2.5791
    4DOPE  C212  448   4.435   2.729   5.904 -0.5982 -0.0934 -0.5796
    4DOPE  H12R  449   4.417   2.838   5.911 -0.7573 -0.2201  1.9928
    4DOPE  H12S  450   4.336   2.680   5.887 -1.5288  1.3734  0.3525
    4DOPE  C213  451   4.522   2.717   5.777 -0.0377  0.4533 -0.6221
    4DOPE  H13R  452   4.446   2.731   5.697  0.9711  1.9093 -1.3824
    4DOPE  H13S  453   4.573   2.618   5.767 -2.1373 -0.9842  1.9063
    4DOPE  C214  454   4.626   2.822   5.750  0.0981 -0.9309  0.7378
    4DOPE  H14R  455   4.674   2.834   5.850 -0.3587  0.9097  0.7861
    4DOPE  H14S  456   4.570   2.918   5.739 -2.5147 -2.5360 -0.8500
    4DOPE  C215  457   4.727   2.786   5.643 -0.0489 -0.1688  0.2065
    4DOPE  H15R  458   4.699   2.781   5.535 -0.4679 -0.6771  0.3349
    4DOPE  H15S  459   4.746   2.679   5.666 -1.0059 -0.0503  1.6839
    4DOPE  C216  460   4.866   2.844   5.674 -0.1581 -0.6084  0.9585
    4DOPE  H16R  461   4.901   2.821   5.777 -1.1668 -1.2089  1.1871
    4DOPE  H16S  462   4.847   2.953   5.676 -0.7881 -0.6951  0.2946
    4DOPE  C217  463   4.970   2.813   5.560 -0.8445  0.0072 -0.0421
    4DOPE  H17R  464   4.991   2.704   5.558 -0.2289  0.1239 -0.1593
    4DOPE  H17S  465   5.062   2.864   5.594 -0.3798  0.3523 -1.7130
    4DOPE  C218  466   4.930   2.862   5.414 -0.7229 -0.1712  0.4852
    4DOPE  H18R  467   5.023   2.861   5.354  0.4784 -1.5582  2.2654
    4DOPE  H18S  468   4.895   2.967   5.413  0.5657  0.3010 -1.7640
    4DOPE  H18T  469   4.859   2.789   5.369 -0.6769 -2.0709  3.2039
    4DOPE   C33  470   4.275   1.923   6.557 -0.3549  0.4323 -0.5613
    4DOPE   H3X  471   4.287   1.824   6.607 -1.0283  0.5740 -0.0982
    4DOPE   H3Y  472   4.329   1.997   6.619  1.9079 -0.4662 -1.3779
    4DOPE   C34  473   4.362   1.906   6.430  0.0286  0.4256  0.6040
    4DOPE   H4X  474   4.458   1.863   6.469 -0.2319 -2.8698 -1.9532
    4DOPE   H4Y  475   4.318   1.833   6.359  0.4409 -0.3378  1.1172
    4DOPE   C35  476   4.390   2.025   6.339  0.1260  0.1029  0.6312
    4DOPE   H5X  477   4.448   1.982   6.255 -0.1448 -0.1166  0.5550
    4DOPE   H5Y  478   4.456   2.099   6.389  3.0907 -0.6860 -1.8010
    4DOPE   C36  479   4.267   2.090   6.272  0.4998  0.0425  0.1896
    4DOPE   H6X  480   4.232   2.171   6.339  0.4485 -0.9692  1.4260
    4DOPE   H6Y  481   4.186   2.013   6.270  1.0042 -0.5208  0.7741
    4DOPE   C37  482   4.302   2.135   6.124 -0.6163  0.0915 -0.2911
    4DOPE   H7X  483   4.330   2.040   6.074  1.3944  1.2286 -1.4423
    4DOPE   H7Y  484   4.211   2.179   6.079 -0.8376 -1.3913 -1.3779
    4DOPE   C38  485   4.415   2.234   6.117 -0.3059 -0.2426 -0.4358
    4DOPE   H8X  486   4.506   2.190   6.162 -0.3902  0.4807  0.4735
    4DOPE   H8Y  487   4.391   2.326   6.176  1.4444  0.4566 -0.7564
    4DOPE   C39  488   4.459   2.271   5.973  0.3752 -0.0917  0.7000
    4DOPE   H9X  489   4.404   2.359   5.934  1.1046 -0.3652 -1.0454
    4DOPE  C310  490   4.532   2.197   5.889  0.5698  0.3624  0.7798
    4DOPE  H10X  491   4.563   2.249   5.797 -0.2785 -0.0380  0.2471
    4DOPE  C311  492   4.614   2.075   5.926 -0.5088  0.1137  0.2065
    4DOPE  H11X  493   4.718   2.088   5.887 -0.7818  0.3683 -0.4560
    4DOPE  H11Y  494   4.629   2.077   6.036  1.0327  0.9551  0.0160
    4DOPE  C312  495   4.567   1.935   5.889  0.3343 -0.4022 -0.1835
    4DOPE  H12X  496   4.467   1.926   5.937 -0.3890  2.9669 -0.7729
    4DOPE  H12Y  497   4.631   1.855   5.930 -0.2244 -0.4579  0.6026
    4DOPE  C313  498   4.551   1.915   5.736  0.2943 -0.1492  0.2573
    4DOPE  H13X  499   4.471   1.983   5.700 -0.4382 -0.2459  1.6445
    4DOPE  H13Y  500   4.643   1.951   5.685 -1.3730 -0.1282 -3.0159
    4DOPE  C314  501   4.525   1.765   5.694  0.0366  0.3673  0.0572
    4DOPE  H14X  502   4.424   1.730   5.727 -0.8623 -0.0301 -2.8852
    4DOPE  H14Y  503   4.592   1.696   5.751 -0.8174 -0.1314  0.4991
    4DOPE  C315  504   4.518   1.748   5.550 -0.4734  0.2106  0.4553
    4DOPE  H15X  505   4.504   1.638   5.543 -1.3075  0.3105  0.3941
    4DOPE  H15Y  506   4.617   1.783   5.515  0.0211 -2.4978 -1.0711
    4DOPE  C316  507   4.404   1.814   5.472  0.2457  0.6927 -0.1070
    4DOPE  H16X  508   4.415   1.925   5.475  0.6266  0.7153 -1.6259
    4DOPE  H16Y  509   4.313   1.793   5.531  1.8821  0.1257  2.3510
    4DOPE  C317  510   4.396   1.775   5.318  0.1553  0.2333 -0.0878
    4DOPE  H17X  511   4.304   1.811   5.268  0.3608  3.1593  1.3925
    4DOPE  H17Y  512   4.469   1.842   5.266  0.1546  1.7498  1.7337
    4DOPE  C318  513   4.407   1.632   5.277  0.0002  0.1656 -0.0059
    4DOPE  H18X  514   4.506   1.586   5.294 -0.5899 -0.0168  4.1025
    4DOPE  H18Y  515   4.339   1.578   5.347 -0.4824 -0.0348 -0.6234
    4DOPE  H18Z  516   4.377   1.632   5.170 -0.7522  0.0565  0.1986
    5DOPE     N  517   0.133   3.182   6.900 -0.1830 -0.4835 -0.4315
    5DOPE   HN1  518   0.123   3.202   7.002  1.1011  1.6367 -0.6767
    5DOPE   HN2  519   0.078   3.253   6.848  1.1174  0.1672 -0.9531
    5DOPE   HN3  520   0.097   3.088   6.871 -1.8014  1.0118 -3.7715
    5DOPE   C12  521   0.270   3.192   6.833  0.5181 -0.2923 -0.2729
    5DOPE  H12A  522   0.333   3.109   6.873  1.3456 -0.2953 -1.5413
    5DOPE  H12B  523   0.313   3.293   6.855 -0.6058 -0.4639  3.3557
    5DOPE   C11  524   0.255   3.154   6.680 -0.4022  0.3785 -0.3204
    5DOPE  H11A  525   0.353   3.183   6.638  0.3682 -2.0368 -0.3277
    5DOPE  H11B  526   0.175   3.224   6.647  0.0811  2.2753  2.2159
    5DOPE     P  527   0.334   2.917   6.615  0.4403  0.4231 -0.0799
    5DOPE   O13  528   0.272   2.799   6.568 -0.0218 -0.4959 -0.3161
    5DOPE   O14  529   0.431   2.881   6.724 -0.0001  0.1910  0.4117
    5DOPE   O11  530   0.409   3.001   6.503 -0.1813  0.1275  0.5090
    5DOPE   O12  531   0.222   3.016   6.665 -0.6671  0.8173 -0.0591
    5DOPE    C1  532   0.348   3.058   6.388  0.7764  0.4076 -0.2538
    5DOPE    HA  533   0.344   3.169   6.397  0.5346  0.3392  0.6171
    5DOPE    HB  534   0.244   3.021   6.375  1.0003 -0.6470  0.7455
    5DOPE    C2  535   0.430   3.037   6.259  0.2762 -0.6131  0.8266
    5DOPE    HS  536   0.377   3.082   6.173  1.1716 -0.6463  0.2550
    5DOPE   O21  537   0.445   2.896   6.236 -0.4255 -1.0162 -0.2720
    5DOPE   C21  538   0.329   2.829   6.223 -0.9534 -0.7764 -0.6655
    5DOPE   O22  539   0.225   2.875   6.191  0.8574 -0.3777 -0.0767
    5DOPE   C22  540   0.348   2.684   6.262 -0.2281 -1.4882  0.0675
    5DOPE   H2R  541   0.254   2.635   6.229 -1.3327 -1.1472  2.4676
    5DOPE   H2S  542   0.361   2.665   6.371  1.8637 -0.6957 -0.0075
    5DOPE    C3  543   0.569   3.105   6.275 -0.5132 -0.6789 -0.0335
    5DOPE    HX  544   0.621   3.061   6.363  1.0351  0.0518 -0.5383
    5DOPE    HY  545   0.543   3.210   6.301  0.2505 -0.5378  0.2219
    5DOPE   O31  546   0.635   3.108   6.146 -0.4839  0.5874  0.3218
    5DOPE   C31  547   0.705   2.995   6.122 -0.4423 -0.4500 -0.2223
    5DOPE   O32  548   0.730   2.909   6.204 -0.1028 -0.5228  0.3868
    5DOPE   C32  549   0.746   2.994   5.968  0.2945 -0.2812 -0.1197
    5DOPE   H2X  550   0.654   2.953   5.919  1.2470 -3.6875  0.7030
    5DOPE   H2Y  551   0.758   3.101   5.941  0.3127 -0.0260  0.8703
    5DOPE   C23  552   0.471   2.618   6.197  0.5505 -0.1976  0.9433
    5DOPE   H3R  553   0.495   2.535   6.267  0.8346  0.2304  1.3587
    5DOPE   H3S  554   0.559   2.685   6.211 -0.5371  1.1859  1.3523
    5DOPE   C24  555   0.459   2.602   6.042  0.3467  0.1159 -0.1179
    5DOPE   H4R  556   0.391   2.681   6.002 -1.6615 -0.2783  2.2538
    5DOPE   H4S  557   0.402   2.509   6.021 -0.7464  0.7723 -0.1820
    5DOPE   C25  558   0.586   2.606   5.960 -0.1920  0.3905  0.2409
    5DOPE   H5R  559   0.641   2.703   5.963  1.2095 -0.3012 -1.2647
    5DOPE   H5S  560   0.553   2.595   5.854  2.3922 -1.5530 -0.4655
    5DOPE   C26  561   0.679   2.489   5.982 -0.2171  0.6079 -0.8598
    5DOPE   H6R  562   0.642   2.391   5.944  0.7438  0.4593 -1.4619
    5DOPE   H6S  563   0.692   2.479   6.092  1.0332  1.8857 -0.8649
    5DOPE   C27  564   0.822   2.501   5.918  0.5302  0.7149 -0.3240
    5DOPE   H7R  565   0.892   2.438   5.977 -0.2465 -0.4416 -0.5916
    5DOPE   H7S  566   0.852   2.608   5.925  0.2076  0.7536  0.4554
    5DOPE   C28  567   0.829   2.451   5.775  0.4769 -0.6971  0.1928
    5DOPE   H8R  568   0.926   2.470   5.726 -0.0147 -0.4682 -0.7102
    5DOPE   H8S  569   0.753   2.516   5.725 -1.0180 -1.5171  1.2957
    5DOPE   C29  570   0.790   2.312   5.753 -0.6335 -0.5388 -0.1574
    5DOPE   H9R  571   0.838   2.234   5.815  2.0672 -0.9309 -2.5029
    5DOPE  C210  572   0.706   2.276   5.655 -0.1664  0.4754 -0.4593
    5DOPE  H10R  573   0.692   2.167   5.644  2.2120 -0.1079  1.3415
    5DOPE  C211  574   0.646   2.357   5.549 -0.2625 -0.7718 -0.2282
    5DOPE  H11R  575   0.612   2.452   5.594  2.2438 -0.5225  1.3309
    5DOPE  H11S  576   0.555   2.306   5.510 -0.7187  1.6869 -2.6594
    5DOPE  C212  577   0.742   2.393   5.432 -1.3270  0.1199  0.3381
    5DOPE  H12R  578   0.828   2.450   5.473 -1.3079  1.9149 -2.0091
    5DOPE  H12S  579   0.690   2.451   5.353  0.3602  0.3855 -0.6107
    5DOPE  C213  580   0.819   2.279   5.358 -0.1247 -0.2765 -0.4345
    5DOPE  H13R  581   0.865   2.215   5.437 -1.2560  0.2758  0.7069
    5DOPE  H13S  582   0.902   2.326   5.302 -1.4052  2.7931  0.0234
    5DOPE  C214  583   0.737   2.202   5.253  0.5695  0.0317 -0.0364
    5DOPE  H14R  584   0.666   2.270   5.203  0.2713  0.7825  1.3428
    5DOPE  H14S  585   0.679   2.117   5.295  0.1513  0.6479  0.6682
    5DOPE  C215  586   0.834   2.143   5.149  0.1077  0.5442  0.4318
    5DOPE  H15R  587   0.918   2.213   5.129  1.3658  0.0726  3.4296
    5DOPE  H15S  588   0.779   2.125   5.055  0.5832 -1.4303  0.4869
    5DOPE  C216  589   0.904   2.017   5.196  0.1981 -0.2108 -0.5188
    5DOPE  H16R  590   0.829   1.942   5.228  1.2239 -1.0868 -0.1009
    5DOPE  H16S  591   0.966   2.055   5.280  1.1466 -1.7974 -0.4768
    5DOPE  C217  592   0.994   1.949   5.097 -0.3660 -0.0731  0.5808
    5DOPE  H17R  593   0.927   1.914   5.015 -1.7108  1.2720  1.0637
    5DOPE  H17S  594   1.038   1.853   5.133  2.1266  0.1939 -1.4766
    5DOPE  C218  595   1.103   2.033   5.033  0.6272  0.2744  0.9538
    5DOPE  H18R  596   1.173   2.074   5.108  0.0473  0.8450  1.1976
    5DOPE  H18S  597   1.062   2.115   4.969  1.7085  0.0320 -0.0917
    5DOPE  H18T  598   1.150   1.968   4.956 -0.2370  0.0195  0.6213
    5DOPE   C33  599   0.864   2.906   5.931 -0.1588 -0.7225  0.0384
    5DOPE   H3X  600   0.867   2.876   5.824 -1.1496 -0.5513 -0.0487
    5DOPE   H3Y  601   0.839   2.810   5.980 -0.4031 -2.6048 -3.4502
    5DOPE   C34  602   0.999   2.963   5.972  0.6361 -0.1269 -0.6764
    5DOPE   H4X  603   1.003   3.065   5.929 -0.7777  0.5133  0.5706
    5DOPE   H4Y  604   1.013   2.972   6.082 -1.5091 -2.2565 -0.1273
    5DOPE   C35  605   1.118   2.896   5.904 -0.4771  0.0372  0.1514
    5DOPE   H5X  606   1.212   2.952   5.920  0.1865 -1.3325  1.2638
    5DOPE   H5Y  607   1.106   2.877   5.795  0.1528  2.2771 -0.3733
    5DOPE   C36  608   1.148   2.762   5.966 -0.0665 -0.1463  0.0774
    5DOPE   H6X  609   1.061   2.693   5.957  1.3196 -2.0588  0.6275
    5DOPE   H6Y  610   1.176   2.775   6.073  2.5271 -0.3151 -0.5191
    5DOPE   C37  611   1.276   2.695   5.908  0.2255  0.9937  0.0880
    5DOPE   H7X  612   1.271   2.677   5.798  0.1094 -0.6105  0.3441
    5DOPE   H7Y  613   1.363   2.764   5.910  0.8955  0.3390 -2.4384
    5DOPE   C38  614   1.295   2.555   5.973 -0.3618 -0.1983 -0.4573
    5DOPE   H8X  615   1.290   2.574   6.083 -1.7309  1.6785 -0.8001
    5DOPE   H8Y  616   1.402   2.535   5.951 -0.2702 -0.2660  0.0338
    5DOPE   C39  617   1.215   2.439   5.937 -0.3156  0.2084 -0.5380
    5DOPE   H9X  618   1.137   2.417   6.012  1.6638 -0.3180  1.4919
    5DOPE  C310  619   1.231   2.367   5.825 -0.1426  0.3835  0.4793
    5DOPE  H10X  620   1.180   2.270   5.819 -1.4922  1.1537 -1.9301
    5DOPE  C311  621   1.337   2.382   5.712  0.5647  0.4198 -0.6565
    5DOPE  H11X  622   1.400   2.472   5.730  0.3518  0.2035  1.5393
    5DOPE  H11Y  623   1.401   2.293   5.731 -0.8311 -0.4380  0.2081
    5DOPE  C312  624   1.267   2.387   5.572 -0.5545  0.2553 -0.6572
    5DOPE  H12X  625   1.352   2.398   5.502 -0.1203 -1.5861 -0.4850
    5DOPE  H12Y  626   1.205   2.478   5.560 -0.0248  0.3445 -3.7075
    5DOPE  C313  627   1.175   2.274   5.531 -0.1129 -0.0493 -0.8872
    5DOPE  H13X  628   1.088   2.282   5.601 -0.1060  2.0366 -1.0596
    5DOPE  H13Y  629   1.130   2.294   5.432  1.9278  0.4261 -1.7583
    5DOPE  C314  630   1.229   2.127   5.529 -0.8107 -0.0228 -0.1514
    5DOPE  H14X  631   1.146   2.060   5.500 -2.2842  0.3586  2.7767
    5DOPE  H14Y  632   1.265   2.106   5.632  2.6723  1.1561 -0.9563
    5DOPE  C315  633   1.344   2.117   5.429  0.6785 -0.5366  0.3444
    5DOPE  H15X  634   1.436   2.158   5.476 -0.3051  3.5083 -0.8591
    5DOPE  H15Y  635   1.321   2.183   5.343  0.0866  1.8154  2.2077
    5DOPE  C316  636   1.361   1.968   5.392 -0.2074 -0.0006 -0.0745
    5DOPE  H16X  637   1.267   1.915   5.365  0.8216 -2.0772  0.1781
    5DOPE  H16Y  638   1.406   1.914   5.478 -3.3356 -0.5098  1.3878
    5DOPE  C317  639   1.467   1.967   5.279  0.7696  0.1563 -0.1864
    5DOPE  H17X  640   1.436   2.029   5.193  0.3792 -0.0623 -0.2069
    5DOPE  H17Y  641   1.563   2.009   5.316  0.9763  0.5575 -1.1367
    5DOPE  C318  642   1.497   1.818   5.233 -0.5182 -0.7960 -0.9141
    5DOPE  H18X  643   1.412   1.769   5.181  0.1299 -2.0402 -0.8609
    5DOPE  H18Y  644   1.580   1.813   5.158 -0.2566  1.5379 -0.8630
    5DOPE  H18Z  645   1.536   1.752   5.314 -1.2035 -0.8501 -0.6281
    6DOPE     N  646   0.986   3.445   6.727 -0.3590  0.0593  0.7277
    6DOPE   HN1  647   0.971   3.343   6.744 -1.3942  0.1372  0.3735
    6DOPE   HN2  648   0.914   3.495   6.783 -0.7815  0.6858 -0.3442
    6DOPE   HN3  649   0.967   3.471   6.628  2.7609  0.1544  0.0572
    6DOPE   C12  650   1.128   3.497   6.762 -0.2766  0.3627 -0.0651
    6DOPE  H12A  651   1.135   3.492   6.873  0.3613 -0.2169 -0.1223
    6DOPE  H12B  652   1.137   3.597   6.714 -0.6318 -0.0877 -1.0952
    6DOPE   C11  653   1.235   3.409   6.689 -0.4424 -0.4325  0.5381
    6DOPE  H11A  654   1.222   3.433   6.582  1.0787 -4.6269 -0.7868
    6DOPE  H11B  655   1.219   3.299   6.689  0.5253 -0.5808  0.6369
    6DOPE     P  656   1.449   3.565   6.713  0.1085 -0.0150 -0.5572
    6DOPE   O13  657   1.497   3.614   6.842  0.4874 -0.2291  0.1482
    6DOPE   O14  658   1.353   3.650   6.638  0.2297  0.5141  0.2698
    6DOPE   O11  659   1.577   3.529   6.623 -0.2292 -0.3665 -0.1360
    6DOPE   O12  660   1.375   3.425   6.736  0.2307  0.0842  0.6482
    6DOPE    C1  661   1.567   3.415   6.532 -0.0514 -0.0071 -0.4728
    6DOPE    HA  662   1.506   3.334   6.577  0.4676  0.2318  0.6990
    6DOPE    HB  663   1.667   3.377   6.499  1.7638  4.1396 -0.3451
    6DOPE    C2  664   1.493   3.447   6.403 -0.6221 -0.4662  0.1059
    6DOPE    HS  665   1.397   3.500   6.425 -0.6376 -0.4441 -0.0143
    6DOPE   O21  666   1.478   3.334   6.321  0.0147  0.0073 -0.3847
    6DOPE   C21  667   1.389   3.240   6.357 -0.3695  0.0583 -0.3600
    6DOPE   O22  668   1.321   3.243   6.462  0.0453  1.0690  0.6560
    6DOPE   C22  669   1.382   3.126   6.255 -0.0606  0.3745  0.2985
    6DOPE   H2R  670   1.428   3.036   6.299  1.2575  0.6783 -0.3993
    6DOPE   H2S  671   1.446   3.139   6.165 -0.3572 -0.5292 -0.0549
    6DOPE    C3  672   1.578   3.556   6.327 -0.0201 -0.0459 -0.4597
    6DOPE    HX  673   1.662   3.496   6.286 -0.4218  0.2682 -1.7966
    6DOPE    HY  674   1.614   3.623   6.408 -0.5157 -1.0451  0.6226
    6DOPE   O31  675   1.509   3.635   6.228 -0.3842 -0.0340 -0.4661
    6DOPE   C31  676   1.525   3.590   6.108 -0.0425  0.0344  0.0104
    6DOPE   O32  677   1.592   3.495   6.070 -0.5028 -0.4064  0.1370
    6DOPE   C32  678   1.462   3.700   6.022  0.9925  0.4642  0.5645
    6DOPE   H2X  679   1.357   3.665   6.017  2.0624 -3.0278 -0.5466
    6DOPE   H2Y  680   1.469   3.798   6.073  0.2672  0.1208  1.3491
    6DOPE   C23  681   1.236   3.091   6.222  0.7229 -0.4618 -0.0050
    6DOPE   H3R  682   1.189   3.040   6.309  0.0916  1.2216  0.6820
    6DOPE   H3S  683   1.237   3.016   6.140  0.1484  0.7167 -1.1304
    6DOPE   C24  684   1.156   3.208   6.170 -0.3278 -0.4569  0.2451
    6DOPE   H4R  685   1.143   3.281   6.253 -0.6315  0.3440 -0.4969
    6DOPE   H4S  686   1.054   3.176   6.140  0.9274 -1.9698 -2.8642
    6DOPE   C25  687   1.227   3.280   6.049  0.3806  0.6339 -0.0047
    6DOPE   H5R  688   1.241   3.207   5.966 -0.5583  0.2551  0.1538
    6DOPE   H5S  689   1.325   3.317   6.086 -0.3820 -0.5061  3.5465
    6DOPE   C26  690   1.145   3.397   5.981  0.0047 -0.2729 -0.6126
    6DOPE   H6R  691   1.164   3.486   6.045 -0.3274 -1.3110  0.9881
    6DOPE   H6S  692   1.038   3.368   5.977 -0.3005  0.9021 -1.9805
    6DOPE   C27  693   1.188   3.442   5.836  0.0084 -0.4206 -0.2210
    6DOPE   H7R  694   1.200   3.347   5.779  0.4552 -0.7065  0.3391
    6DOPE   H7S  695   1.288   3.487   5.853 -0.6882  1.1799 -0.1520
    6DOPE   C28  696   1.089   3.542   5.772 -0.2256  0.0334 -0.0983
    6DOPE   H8R  697   1.106   3.631   5.836  0.0346  1.0505 -1.5476
    6DOPE   H8S  698   0.986   3.500   5.775  0.1871 -1.0353 -0.4538
    6DOPE   C29  699   1.130   3.579   5.635 -0.7769  0.6448 -0.1957
    6DOPE   H9R  700   1.232   3.620   5.622 -1.5529  2.6354 -0.3317
    6DOPE  C210  701   1.062   3.560   5.521 -0.5437 -0.2693  0.1001
    6DOPE  H10R  702   1.118   3.585   5.430  2.4272  1.2235  2.1492
    6DOPE  C211  703   0.925   3.496   5.506 -0.3684 -0.4462 -0.2385
    6DOPE  H11R  704   0.873   3.529   5.414 -2.4814  0.2063  1.1288
    6DOPE  H11S  705   0.857   3.544   5.580 -2.5490  2.6605 -3.9434
    6DOPE  C212  706   0.913   3.341   5.530 -0.3687 -0.2428 -0.1373
    6DOPE  H12R  707   0.940   3.328   5.637  0.8257 -0.5507 -0.4557
    6DOPE  H12S  708   0.993   3.294   5.468 -0.8725 -2.8849  1.0906
    6DOPE  C213  709   0.776   3.279   5.501  0.2742 -0.1595 -0.0620
    6DOPE  H13R  710   0.714   3.349   5.441  0.1685 -0.9437 -0.8820
    6DOPE  H13S  711   0.727   3.281   5.601 -2.7691 -2.7054 -1.3440
    6DOPE  C214  712   0.784   3.134   5.446  0.5016 -0.4226 -0.2757
    6DOPE  H14R  713   0.851   3.143   5.358  1.9730 -1.7015  0.6568
    6DOPE  H14S  714   0.687   3.098   5.405  0.2440  0.2339 -0.2607
    6DOPE  C215  715   0.851   3.023   5.530 -0.2738  0.9921  0.7177
    6DOPE  H15R  716   0.790   2.996   5.618  1.6406 -1.4061  1.4463
    6DOPE  H15S  717   0.956   3.037   5.564  0.0375 -1.8644  1.2047
    6DOPE  C216  718   0.839   2.885   5.458 -0.3407 -0.4981 -0.2927
    6DOPE  H16R  719   0.878   2.875   5.354 -0.5965 -0.8877 -0.3496
    6DOPE  H16S  720   0.730   2.868   5.449 -0.1703 -1.7316 -0.2198
    6DOPE  C217  721   0.904   2.770   5.539 -0.4757  0.9918 -0.0144
    6DOPE  H17R  722   0.840   2.683   5.513 -1.6996  1.7583  0.2982
    6DOPE  H17S  723   0.878   2.786   5.646 -2.5687 -1.9796  0.0558
    6DOPE  C218  724   1.046   2.737   5.518  0.3545  1.0156 -0.0254
    6DOPE  H18R  725   1.113   2.810   5.566  0.0408 -1.8077  5.5555
    6DOPE  H18S  726   1.078   2.731   5.412 -1.8123 -2.0942 -0.6624
    6DOPE  H18T  727   1.058   2.638   5.567 -0.9423  1.0700  0.4491
    6DOPE   C33  728   1.531   3.720   5.887 -0.0419 -0.0536  0.5770
    6DOPE   H3X  729   1.529   3.623   5.831 -0.0961  1.0001 -1.3262
    6DOPE   H3Y  730   1.639   3.739   5.901  0.4969 -2.3251 -0.0010
    6DOPE   C34  731   1.466   3.822   5.793 -1.0679  0.3935  0.7166
    6DOPE   H4X  732   1.366   3.793   5.754 -0.4123  0.7878 -1.3571
    6DOPE   H4Y  733   1.449   3.914   5.853 -1.5270  0.3380  0.6685
    6DOPE   C35  734   1.561   3.852   5.679 -0.7819  0.2905 -0.7025
    6DOPE   H5X  735   1.571   3.751   5.633  0.9307 -0.8929  2.0520
    6DOPE   H5Y  736   1.661   3.875   5.723 -2.4832  2.1632  2.5350
    6DOPE   C36  737   1.504   3.955   5.583  0.5188  0.3581 -0.3103
    6DOPE   H6X  738   1.469   4.043   5.640 -1.0615 -1.3483  1.5448
    6DOPE   H6Y  739   1.418   3.922   5.520  1.2491 -0.5044 -0.8838
    6DOPE   C37  740   1.604   4.017   5.479  0.0551  0.6795 -0.9840
    6DOPE   H7X  741   1.564   4.116   5.449 -0.5791  0.8627  0.4117
    6DOPE   H7Y  742   1.694   4.041   5.539 -0.2853  1.3509 -0.7409
    6DOPE   C38  743   1.656   3.925   5.366  0.5469 -0.1690 -0.2150
    6DOPE   H8X  744   1.568   3.902   5.303  1.4306 -0.8164 -1.2544
    6DOPE   H8Y  745   1.674   3.821   5.400 -2.8616 -0.0124  2.5217
    6DOPE   C39  746   1.756   3.989   5.281 -0.5788 -0.1291  0.8193
    6DOPE   H9X  747   1.725   4.058   5.201  2.7475  0.6476  0.0482
    6DOPE  C310  748   1.894   3.968   5.285  0.1832  0.3374  0.1191
    6DOPE  H10X  749   1.962   4.036   5.231 -0.2934  0.7948  0.0912
    6DOPE  C311  750   1.958   3.881   5.392  0.4279  0.0431  0.5913
    6DOPE  H11X  751   1.886   3.797   5.407  2.1214 -1.9502 -1.6352
    6DOPE  H11Y  752   2.048   3.826   5.356 -0.4542 -0.5412 -0.8201
    6DOPE  C312  753   1.998   3.951   5.521  0.3650 -0.2043 -0.4505
    6DOPE  H12X  754   1.909   3.998   5.566  0.7061 -1.0846  1.2144
    6DOPE  H12Y  755   2.068   4.035   5.501  0.2792  0.0322  0.2353
    6DOPE  C313  756   2.065   3.852   5.616 -0.1171 -0.1430  0.2236
    6DOPE  H13X  757   2.004   3.760   5.616 -0.7988  0.2476  2.4184
    6DOPE  H13Y  758   2.169   3.822   5.594  0.3292  1.0419  0.6345
    6DOPE  C314  759   2.057   3.898   5.766 -0.1745  0.2242 -0.1916
    6DOPE  H14X  760   1.969   3.963   5.788 -0.2946 -0.7176  2.5489
    6DOPE  H14Y  761   2.148   3.961   5.784 -0.8239  0.9045  0.8616
    6DOPE  C315  762   2.041   3.782   5.865 -0.0488  0.0834 -0.0266
    6DOPE  H15X  763   1.946   3.727   5.850 -0.6376  1.1952 -0.5423
    6DOPE  H15Y  764   2.047   3.834   5.963 -0.7806  3.0971 -1.4425
    6DOPE  C316  765   2.161   3.684   5.851  0.5744 -0.2800 -0.7433
    6DOPE  H16X  766   2.258   3.738   5.864  0.8899 -0.8926 -0.4778
    6DOPE  H16Y  767   2.168   3.646   5.746  0.9334  0.8592 -1.1480
    6DOPE  C317  768   2.157   3.585   5.975  0.5759  0.2784 -0.1210
    6DOPE  H17X  769   2.230   3.503   5.963 -0.5536 -1.1631  2.1609
    6DOPE  H17Y  770   2.181   3.643   6.067 -0.4667 -1.6705  1.4634
    6DOPE  C318  771   2.011   3.526   6.001 -0.3975 -0.8406  0.0296
    6DOPE  H18X  772   1.966   3.504   5.902 -1.2156 -0.2854  0.2700
    6DOPE  H18Y  773   2.026   3.431   6.056  3.3069 -0.8500 -0.7230
    6DOPE  H18Z  774   1.952   3.591   6.068  2.7500  1.3887  0.8786
    7DOPE     N  775   3.228   6.814   6.905 -0.7118  0.0085  0.3527
    7DOPE   HN1  776   3.286   6.763   6.974 -0.5398 -1.4365 -0.8144
    7DOPE   HN2  777   3.147   6.866   6.944 -1.1165 -0.0580 -0.3784
    7DOPE   HN3  778   3.179   6.739   6.852  0.4387 -2.0107  1.9799
    7DOPE   C12  779   3.312   6.900   6.817 -0.5711 -0.0972  0.1374
    7DOPE  H12A  780   3.357   6.974   6.887  3.8804 -0.0844 -2.3504
    7DOPE  H12B  781   3.254   6.953   6.738  1.7254  0.5387 -1.2224
    7DOPE   C11  782   3.422   6.822   6.745  0.5927  0.0553  0.7424
    7DOPE  H11A  783   3.458   6.895   6.669 -0.7071 -1.4930 -1.4905
    7DOPE  H11B  784   3.375   6.737   6.690 -0.5648  1.1463 -0.0112
    7DOPE     P  785   3.671   6.750   6.784  0.1478  0.2226 -0.2811
    7DOPE   O13  786   3.709   6.613   6.830 -0.2650 -0.7731  0.1318
    7DOPE   O14  787   3.757   6.867   6.824  0.5511 -0.0725  0.1681
    7DOPE   O11  788   3.669   6.741   6.627 -0.2461 -0.1498 -0.7531
    7DOPE   O12  789   3.525   6.778   6.828 -0.1370  0.0318  0.3934
    7DOPE    C1  790   3.794   6.731   6.560 -0.3928  0.1354 -0.0017
    7DOPE    HA  791   3.778   6.669   6.469  0.3479  0.7672 -0.5693
    7DOPE    HB  792   3.873   6.681   6.621  0.4417 -1.2938 -2.1470
    7DOPE    C2  793   3.837   6.869   6.502  0.0197 -0.2729  0.8724
    7DOPE    HS  794   3.842   6.946   6.582  1.4486 -0.0759  0.6127
    7DOPE   O21  795   3.735   6.914   6.412  0.6016 -0.5628 -0.4136
    7DOPE   C21  796   3.736   7.039   6.382  0.1991  0.3189 -0.7083
    7DOPE   O22  797   3.819   7.121   6.424  0.4118  0.2181 -0.5469
    7DOPE   C22  798   3.619   7.074   6.287  0.1287 -0.0448  0.1691
    7DOPE   H2R  799   3.550   7.120   6.360 -0.2156 -0.7976  0.3322
    7DOPE   H2S  800   3.566   6.980   6.258  0.1500  0.5845 -2.0696
    7DOPE    C3  801   3.972   6.861   6.427 -0.1021  0.5807 -0.6643
    7DOPE    HX  802   4.053   6.850   6.502  0.5592  2.0598 -1.1382
    7DOPE    HY  803   3.992   6.948   6.362  1.1946  0.1804 -0.8280
    7DOPE   O31  804   3.974   6.736   6.350  0.0004  0.0767  0.0483
    7DOPE   C31  805   3.919   6.739   6.228  0.1348  1.1643 -0.3454
    7DOPE   O32  806   3.888   6.838   6.164 -0.4040 -0.0076 -0.1157
    7DOPE   C32  807   3.914   6.593   6.168 -0.3235  0.0291 -0.5207
    7DOPE   H2X  808   4.002   6.527   6.187  0.4649  1.3153  0.4643
    7DOPE   H2Y  809   3.827   6.544   6.216  0.2319 -1.4981 -1.0187
    7DOPE   C23  810   3.661   7.169   6.179  0.7001  0.5414  0.2746
    7DOPE   H3R  811   3.759   7.145   6.132  0.9532 -0.9652  1.5043
    7DOPE   H3S  812   3.685   7.267   6.225  3.6727  0.6786 -1.2758
    7DOPE   C24  813   3.543   7.189   6.084  0.0557  0.1923  0.2325
    7DOPE   H4R  814   3.479   7.274   6.116  0.5490 -0.5814  3.6284
    7DOPE   H4S  815   3.475   7.102   6.100 -2.4294  1.7873 -0.9471
    7DOPE   C25  816   3.585   7.189   5.936 -0.2092  0.1126  0.3578
    7DOPE   H5R  817   3.496   7.163   5.873 -0.5576  1.6766  0.1596
    7DOPE   H5S  818   3.671   7.120   5.924  0.4989  0.8727  0.9904
    7DOPE   C26  819   3.634   7.326   5.895  0.5733  0.7660 -0.0091
    7DOPE   H6R  820   3.683   7.358   5.989  0.3457  0.3977  0.2405
    7DOPE   H6S  821   3.542   7.384   5.870 -1.8454 -2.0124  1.6674
    7DOPE   C27  822   3.739   7.332   5.783 -0.2200  0.6725 -0.0223
    7DOPE   H7R  823   3.701   7.291   5.687  0.6726 -0.9563  0.2751
    7DOPE   H7S  824   3.821   7.261   5.807  1.0466  2.4359  1.0889
    7DOPE   C28  825   3.792   7.476   5.761 -0.1106 -0.5347  0.0088
    7DOPE   H8R  826   3.708   7.545   5.740  1.1955  0.7050 -1.4405
    7DOPE   H8S  827   3.860   7.472   5.672 -0.7027 -2.9243 -0.4108
    7DOPE   C29  828   3.863   7.535   5.878  0.2098  0.1596 -0.5987
    7DOPE   H9R  829   3.812   7.530   5.975  1.5176  0.8449  0.1502
    7DOPE  C210  830   3.997   7.560   5.885  1.1645 -0.3634 -0.5570
    7DOPE  H10R  831   4.034   7.609   5.977 -2.2425  0.8784  0.3205
    7DOPE  C211  832   4.097   7.539   5.775 -0.3195  0.3085 -0.1698
    7DOPE  H11R  833   4.056   7.481   5.690 -1.2678 -2.0182  1.7716
    7DOPE  H11S  834   4.183   7.479   5.811 -1.3565 -0.9340  0.2902
    7DOPE  C212  835   4.153   7.669   5.721  0.3189 -0.2340  0.3200
    7DOPE  H12R  836   4.242   7.660   5.655  0.1186  1.5023 -0.2426
    7DOPE  H12S  837   4.182   7.737   5.804 -0.9920  1.8286 -0.8409
    7DOPE  C213  838   4.058   7.759   5.625  0.1527 -0.2929 -0.5263
    7DOPE  H13R  839   3.970   7.773   5.691 -1.0554 -2.0729 -1.6951
    7DOPE  H13S  840   4.020   7.699   5.540  0.5490 -1.8387  0.3666
    7DOPE  C214  841   4.096   7.903   5.582 -0.2504 -1.0527  0.2199
    7DOPE  H14R  842   4.176   7.886   5.506 -1.0357 -2.5984 -0.3205
    7DOPE  H14S  843   4.141   7.967   5.661  2.4173  0.8357 -2.6005
    7DOPE  C215  844   3.987   7.980   5.511 -0.6749 -1.1153  0.4609
    7DOPE  H15R  845   3.941   7.915   5.434  0.5551 -1.5106  0.0399
    7DOPE  H15S  846   4.029   8.062   5.450 -1.4033 -1.2207 -0.2060
    7DOPE  C216  847   3.877   8.034   5.599  0.3815  0.3229  0.1610
    7DOPE  H16R  848   3.920   8.064   5.697  1.6796 -2.7072  0.6378
    7DOPE  H16S  849   3.818   7.944   5.627  2.8375 -1.7598 -0.8615
    7DOPE  C217  850   3.802   8.144   5.523 -0.0627  0.1170 -0.2960
    7DOPE  H17R  851   3.735   8.110   5.440  0.7150 -1.9951 -0.1281
    7DOPE  H17S  852   3.875   8.219   5.488  2.5226 -0.2630  3.6754
    7DOPE  C218  853   3.715   8.226   5.621  0.1522  0.5301  0.3122
    7DOPE  H18R  854   3.666   8.156   5.692 -1.5611  1.2099 -0.1511
    7DOPE  H18S  855   3.636   8.272   5.559  1.5633 -1.0990 -2.9600
    7DOPE  H18T  856   3.777   8.309   5.661  0.8639  0.8028 -1.2636
    7DOPE   C33  857   3.902   6.601   6.016  0.5807 -0.0427  0.0957
    7DOPE   H3X  858   3.965   6.686   5.981 -0.5480  0.4784 -0.7383
    7DOPE   H3Y  859   3.797   6.626   5.992  0.3013 -1.4917 -0.2629
    7DOPE   C34  860   3.943   6.471   5.947  0.7162  0.6214 -0.0968
    7DOPE   H4X  861   4.046   6.442   5.973  0.3161  0.1108  0.9796
    7DOPE   H4Y  862   3.879   6.394   5.995 -1.5956  2.1139 -0.5755
    7DOPE   C35  863   3.902   6.489   5.804 -0.5132 -0.5619 -0.4754
    7DOPE   H5X  864   3.963   6.577   5.775  1.3408 -2.2978 -2.1859
    7DOPE   H5Y  865   3.794   6.514   5.794 -0.4633 -0.0335  0.2118
    7DOPE   C36  866   3.931   6.363   5.714 -0.0195 -0.1711 -0.9210
    7DOPE   H6X  867   3.879   6.270   5.743 -0.7187  0.1826 -1.0116
    7DOPE   H6Y  868   4.041   6.348   5.722  0.1483  1.7069  1.5716
    7DOPE   C37  869   3.906   6.391   5.567 -0.1658 -0.7634  0.6500
    7DOPE   H7X  870   3.811   6.448   5.557 -0.3004 -1.1069 -0.0304
    7DOPE   H7Y  871   3.983   6.466   5.539  0.8250 -1.5426  1.2324
    7DOPE   C38  872   3.887   6.268   5.479 -0.3525  0.7084 -0.1592
    7DOPE   H8X  873   3.877   6.300   5.373  1.2537 -0.5155 -0.7200
    7DOPE   H8Y  874   3.790   6.220   5.502  0.0647 -0.0828 -0.0175
    7DOPE   C39  875   3.998   6.160   5.479  0.5448 -0.4312 -0.2918
    7DOPE   H9X  876   4.018   6.119   5.579  1.4405 -1.9479 -1.0580
    7DOPE  C310  877   4.081   6.130   5.378  0.3276  0.1938 -0.1320
    7DOPE  H10X  878   4.151   6.046   5.388 -0.7926 -0.8609 -0.9208
    7DOPE  C311  879   4.080   6.195   5.239  0.1501  0.3577 -0.6556
    7DOPE  H11X  880   4.058   6.303   5.243 -2.3102 -0.1021  1.1502
    7DOPE  H11Y  881   4.179   6.187   5.190  0.2539  0.1762 -0.4213
    7DOPE  C312  882   3.981   6.125   5.150  0.3853  0.0323  0.0456
    7DOPE  H12X  883   3.878   6.166   5.160  0.7581  0.7836  0.9844
    7DOPE  H12Y  884   3.984   6.016   5.171  0.0667  0.2020  1.0680
    7DOPE  C313  885   4.021   6.135   4.997 -0.1923  0.4372 -0.3308
    7DOPE  H13X  886   4.126   6.101   4.978 -0.5622  0.7304 -3.3399
    7DOPE  H13Y  887   3.947   6.069   4.946 -1.5443  1.8887 -0.2920
    7DOPE  C314  888   4.014   6.283   4.950  0.1231 -0.5342  0.0577
    7DOPE  H14X  889   4.080   6.352   5.007  0.1892  0.3348 -1.0353
    7DOPE  H14Y  890   3.908   6.314   4.962  0.5941  0.9173  0.6027
    7DOPE  C315  891   4.055   6.285   4.796 -0.0837 -0.4093  0.4833
    7DOPE  H15X  892   4.017   6.196   4.743 -2.5620  0.5618  0.5166
    7DOPE  H15Y  893   4.164   6.294   4.777 -0.3346  1.8026 -0.1604
    7DOPE  C316  894   3.986   6.421   4.729 -0.4708 -0.3537 -0.4228
    7DOPE  H16X  895   3.877   6.401   4.733 -0.2430 -1.5246  0.5705
    7DOPE  H16Y  896   4.014   6.430   4.622  1.4462  0.4507  0.1069
    7DOPE  C317  897   4.005   6.554   4.806  0.7460  0.1178 -0.5365
    7DOPE  H17X  898   3.972   6.536   4.911  2.3197 -3.5708 -0.5446
    7DOPE  H17Y  899   4.115   6.566   4.818  0.8251 -0.3793 -0.7748
    7DOPE  C318  900   3.942   6.671   4.737 -0.6635 -0.0483  0.1315
    7DOPE  H18X  901   3.831   6.669   4.735 -0.7249 -2.5331 -3.1563
    7DOPE  H18Y  902   3.995   6.755   4.786  3.2633 -3.5527  2.5872
    7DOPE  H18Z  903   3.964   6.664   4.628 -0.5530 -1.2841  0.2122
    8DOPE     N  904   4.607   6.177   6.696  0.0486  0.0447  0.0433
    8DOPE   HN1  905   4.653   6.088   6.668  0.7741  0.4069  0.0583
    8DOPE   HN2  906   4.685   6.228   6.743  1.1897 -1.4715 -0.1047
    8DOPE   HN3  907   4.538   6.154   6.770  0.3392 -2.0077 -0.2779
    8DOPE   C12  908   4.555   6.272   6.593 -0.1349 -0.0435  0.1969
    8DOPE  H12A  909   4.639   6.314   6.533  0.2720 -0.9547  0.1258
    8DOPE  H12B  910   4.504   6.355   6.646 -0.1469 -1.7566  3.0416
    8DOPE   C11  911   4.439   6.203   6.509 -0.0817  0.0476 -0.0081
    8DOPE  H11A  912   4.493   6.123   6.453  0.4308 -0.6332  1.4214
    8DOPE  H11B  913   4.393   6.281   6.444  0.8502  0.3532 -0.3147
    8DOPE     P  914   4.240   6.201   6.670  0.1084 -0.2727  0.0146
    8DOPE   O13  915   4.307   6.274   6.780 -0.8578  0.2049  0.3901
    8DOPE   O14  916   4.129   6.113   6.714 -0.0125  0.2053 -0.9743
    8DOPE   O11  917   4.184   6.322   6.582  0.1397 -0.5438  0.3306
    8DOPE   O12  918   4.352   6.125   6.588 -0.2503  0.4413 -0.3831
    8DOPE    C1  919   4.050   6.334   6.526 -0.8376 -0.0365 -0.3609
    8DOPE    HA  920   4.015   6.440   6.528 -0.0898  0.2211 -0.3772
    8DOPE    HB  921   3.975   6.280   6.588 -0.4301 -0.6432 -0.3908
    8DOPE    C2  922   4.046   6.266   6.385  0.3008 -0.3522 -0.6312
    8DOPE    HS  923   4.074   6.161   6.406  1.0692  0.0029  0.1740
    8DOPE   O21  924   4.142   6.336   6.302  0.4393  0.1154  0.0493
    8DOPE   C21  925   4.225   6.255   6.235  0.4880  0.1515 -0.2983
    8DOPE   O22  926   4.210   6.136   6.224 -0.3199  0.4122 -0.0219
    8DOPE   C22  927   4.327   6.341   6.153  0.7045  0.2371  0.2606
    8DOPE   H2R  928   4.378   6.397   6.234 -0.0074 -1.0570  1.6558
    8DOPE   H2S  929   4.270   6.402   6.080  2.0062 -1.0476 -1.9392
    8DOPE    C3  930   3.902   6.269   6.323 -0.2996 -0.4206 -0.4201
    8DOPE    HX  931   3.868   6.374   6.315 -0.6842 -0.6393 -2.3936
    8DOPE    HY  932   3.833   6.214   6.390 -0.3265 -0.6300 -0.6159
    8DOPE   O31  933   3.907   6.221   6.182 -0.0975 -0.2269  0.4570
    8DOPE   C31  934   3.908   6.088   6.167 -0.0946  0.3304 -0.3080
    8DOPE   O32  935   3.900   6.004   6.255 -0.1136  0.1293 -0.0997
    8DOPE   C32  936   3.915   6.059   6.024 -0.0639 -0.3006 -0.0512
    8DOPE   H2X  937   3.916   6.151   5.961  1.0934 -0.5988 -0.4872
    8DOPE   H2Y  938   4.015   6.018   5.998  0.6190  0.8508  0.6756
    8DOPE   C23  939   4.432   6.266   6.072 -0.2914  0.4806  0.1638
    8DOPE   H3R  940   4.388   6.182   6.014  0.4837  1.0024 -1.2270
    8DOPE   H3S  941   4.495   6.196   6.132 -1.2236 -0.3321  0.2247
    8DOPE   C24  942   4.525   6.349   5.984  0.0086 -0.4687 -0.3933
    8DOPE   H4R  943   4.471   6.425   5.923 -1.7268 -1.5969 -0.3006
    8DOPE   H4S  944   4.580   6.282   5.915  0.1262  0.3129 -1.0756
    8DOPE   C25  945   4.621   6.420   6.077 -0.0588 -0.2078 -0.0856
    8DOPE   H5R  946   4.666   6.352   6.153  0.5052  2.4159  2.0642
    8DOPE   H5S  947   4.572   6.505   6.129 -1.1061  0.7548 -2.5274
    8DOPE   C26  948   4.740   6.483   5.997 -0.3626 -0.3456  0.0410
    8DOPE   H6R  949   4.695   6.581   5.969 -2.2034 -0.9573  0.7437
    8DOPE   H6S  950   4.752   6.422   5.905  0.3747 -1.1390  0.6462
    8DOPE   C27  951   4.888   6.497   6.053  0.2881  0.1673 -0.1710
    8DOPE   H7R  952   4.890   6.548   6.152  1.4769  2.8163 -1.4700
    8DOPE   H7S  953   4.938   6.555   5.973  1.1819 -0.1407  0.1495
    8DOPE   C28  954   4.965   6.363   6.071  0.4018  0.3447 -0.1593
    8DOPE   H8R  955   4.964   6.318   5.970 -0.9843 -1.3146  0.5374
    8DOPE   H8S  956   4.912   6.291   6.138 -0.6354 -0.2085 -1.5194
    8DOPE   C29  957   5.095   6.375   6.128  0.3721  0.5083  0.0684
    8DOPE   H9R  958   5.095   6.372   6.238 -1.8392 -1.6127  0.0873
    8DOPE  C210  959   5.209   6.397   6.065 -0.0550  0.7003  0.7578
    8DOPE  H10R  960   5.304   6.377   6.118 -0.0005  1.5043  0.9865
    8DOPE  C211  961   5.218   6.437   5.920  0.3132 -0.0689 -0.3770
    8DOPE  H11R  962   5.280   6.528   5.907 -1.2805  0.9232 -1.4028
    8DOPE  H11S  963   5.122   6.472   5.877  1.4697  0.2973 -2.8788
    8DOPE  C212  964   5.274   6.331   5.825  0.3199  0.2138 -0.4962
    8DOPE  H12R  965   5.214   6.238   5.817  0.3973  0.3036 -2.4996
    8DOPE  H12S  966   5.378   6.307   5.857  0.0215 -0.8273 -0.2742
    8DOPE  C213  967   5.277   6.368   5.676 -0.7144  0.2515  0.1182
    8DOPE  H13R  968   5.296   6.476   5.662  0.1821 -0.1587 -2.2226
    8DOPE  H13S  969   5.178   6.349   5.629 -0.2993 -0.7845 -0.3833
    8DOPE  C214  970   5.398   6.302   5.610 -0.4092 -0.4088 -0.1971
    8DOPE  H14R  971   5.380   6.193   5.595 -0.9668 -1.1477  4.3501
    8DOPE  H14S  972   5.481   6.324   5.681  0.2292 -0.3272 -0.9547
    8DOPE  C215  973   5.418   6.371   5.469 -0.8568  0.4829 -0.8937
    8DOPE  H15R  974   5.491   6.312   5.410 -0.0205  2.9260 -2.4802
    8DOPE  H15S  975   5.471   6.467   5.484  0.0783  0.0932 -1.6309
    8DOPE  C216  976   5.288   6.402   5.387 -0.2566  0.4939 -0.5205
    8DOPE  H16R  977   5.311   6.486   5.318  1.9688 -0.3858 -0.9089
    8DOPE  H16S  978   5.212   6.454   5.449  1.2643  0.9650  1.0155
    8DOPE  C217  979   5.229   6.282   5.307  1.1172  0.0653 -0.0632
    8DOPE  H17R  980   5.268   6.187   5.350  0.0070 -0.4421 -0.1390
    8DOPE  H17S  981   5.267   6.295   5.204 -1.9300  0.1184 -1.2662
    8DOPE  C218  982   5.073   6.282   5.310  0.6088 -0.1531 -0.2501
    8DOPE  H18R  983   5.031   6.370   5.257  0.0777 -1.0042 -1.2897
    8DOPE  H18S  984   5.046   6.291   5.417 -2.8988  0.0234 -1.0304
    8DOPE  H18T  985   5.026   6.184   5.286  0.4347 -0.2356  0.4106
    8DOPE   C33  986   3.815   5.943   5.978  0.3359  0.0923 -0.2198
    8DOPE   H3X  987   3.717   5.961   6.027  0.7569  1.5112  0.1394
    8DOPE   H3Y  988   3.858   5.846   6.011  0.8840 -0.3337 -2.0961
    8DOPE   C34  989   3.810   5.950   5.835 -0.3286  0.2226 -0.1452
    8DOPE   H4X  990   3.779   6.054   5.814 -3.1898 -0.8878 -2.1674
    8DOPE   H4Y  991   3.901   5.917   5.780  0.8713  1.8642  0.8022
    8DOPE   C35  992   3.695   5.856   5.779  0.1986 -0.8794  0.6496
    8DOPE   H5X  993   3.606   5.872   5.845  1.2639  2.3802  1.4749
    8DOPE   H5Y  994   3.728   5.750   5.780 -1.4982 -1.4936 -1.3395
    8DOPE   C36  995   3.656   5.891   5.637  0.3473 -0.1192  0.3221
    8DOPE   H6X  996   3.581   5.824   5.589 -1.7744  2.8491 -0.7943
    8DOPE   H6Y  997   3.748   5.894   5.576  0.0227  2.1280 -0.1507
    8DOPE   C37  998   3.592   6.025   5.613  0.1588 -0.2809  0.5576
    8DOPE   H7X  999   3.501   6.024   5.676 -0.9901  0.0096 -1.0339
    8DOPE   H7Y 1000   3.663   6.105   5.643  2.4328 -1.0554 -2.2384
    8DOPE   C38 1001   3.539   6.047   5.472 -0.1103  0.0284  0.1419
    8DOPE   H8X 1002   3.620   6.037   5.396 -1.1098 -1.4609 -0.7834
    8DOPE   H8Y 1003   3.500   6.151   5.475 -1.3140 -0.3414 -1.2079
    8DOPE   C39 1004   3.425   5.954   5.437 -0.2021  0.6259 -0.0052
    8DOPE   H9X 1005   3.351   5.939   5.518  1.4977 -0.2939  1.4399
    8DOPE  C310 1006   3.400   5.880   5.324 -0.1617 -0.3873 -0.1359
    8DOPE  H10X 1007   3.305   5.825   5.320 -0.9941  0.8850  1.0231
    8DOPE  C311 1008   3.488   5.887   5.205  0.4569 -0.4044 -0.3954
    8DOPE  H11X 1009   3.437   5.881   5.107 -2.6994  0.5501  1.0756
    8DOPE  H11Y 1010   3.555   5.976   5.206 -1.1351  0.8571  1.2413
    8DOPE  C312 1011   3.582   5.769   5.214 -0.0906  0.7579  0.0951
    8DOPE  H12X 1012   3.528   5.676   5.242 -0.1303  0.3146 -1.4027
    8DOPE  H12Y 1013   3.660   5.787   5.292  0.3663  0.4194 -0.2830
    8DOPE  C313 1014   3.656   5.736   5.087 -0.3495  0.0047 -0.4115
    8DOPE  H13X 1015   3.696   5.633   5.096  0.0339  0.3169  3.0377
    8DOPE  H13Y 1016   3.587   5.734   5.000 -1.4009 -2.4670  0.3951
    8DOPE  C314 1017   3.773   5.830   5.044 -0.3157 -0.4476 -0.1783
    8DOPE  H14X 1018   3.834   5.860   5.132  0.1964 -0.7942 -0.4082
    8DOPE  H14Y 1019   3.722   5.921   5.006 -0.6627 -0.2808  0.6567
    8DOPE  C315 1020   3.851   5.774   4.928 -0.6609 -0.1272 -0.2243
    8DOPE  H15X 1021   3.886   5.671   4.949 -0.5778  0.2957  1.8689
    8DOPE  H15Y 1022   3.938   5.842   4.918  0.8030 -1.7360  0.9317
    8DOPE  C316 1023   3.773   5.774   4.795  0.0207  0.0567  0.0691
    8DOPE  H16X 1024   3.739   5.879   4.784  1.1169  0.4761  0.5312
    8DOPE  H16Y 1025   3.682   5.712   4.801 -1.1225  1.5722 -0.9657
    8DOPE  C317 1026   3.852   5.721   4.679  0.3065  0.4645 -0.1614
    8DOPE  H17X 1027   3.918   5.806   4.648  1.9886 -0.3202  1.0813
    8DOPE  H17Y 1028   3.922   5.639   4.708  0.6226  1.1993  1.2502
    8DOPE  C318 1029   3.760   5.687   4.564 -0.0472  0.4894  0.1583
    8DOPE  H18X 1030   3.815   5.725   4.475  0.0752 -0.2302 -0.0756
    8DOPE  H18Y 1031   3.661   5.734   4.580 -0.0105  1.1099 -1.3183
    8DOPE  H18Z 1032   3.752   5.577   4.549  2.4041  0.2721 -0.0373
    9DOPE     N 1033   1.727   4.609   6.652  0.5094 -0.1354  0.0678
    9DOPE   HN1 1034   1.648   4.602   6.720  2.0506 -0.2531  1.9613
    9DOPE   HN2 1035   1.783   4.522   6.659  1.7834  0.6048 -0.5677
    9DOPE   HN3 1036   1.779   4.681   6.707 -0.6911 -0.8369  2.2707
    9DOPE   C12 1037   1.688   4.639   6.509  0.1684  0.1381 -0.4776
    9DOPE  H12A 1038   1.763   4.702   6.458  1.3422  0.0609  1.0667
    9DOPE  H12B 1039   1.591   4.689   6.527  0.2647  0.9045 -1.9748
    9DOPE   C11 1040   1.677   4.514   6.418 -0.5079 -0.4866 -0.0504
    9DOPE  H11A 1041   1.784   4.487   6.413 -0.4124 -0.3122  0.8978
    9DOPE  H11B 1042   1.640   4.555   6.322  1.5053 -0.4423 -0.8483
    9DOPE     P 1043   1.453   4.399   6.447 -0.1518  0.0031  0.0226
    9DOPE   O13 1044   1.401   4.523   6.508  0.4060  0.4156  0.2344
    9DOPE   O14 1045   1.387   4.268   6.491  0.3117 -0.2059  0.4376
    9DOPE   O11 1046   1.452   4.414   6.296 -0.0594  0.8190 -0.0648
    9DOPE   O12 1047   1.606   4.398   6.466 -0.1088 -0.1125  0.3932
    9DOPE    C1 1048   1.369   4.360   6.201 -0.0863 -0.0443 -0.2505
    9DOPE    HA 1049   1.339   4.440   6.131  0.1460  1.6498  1.4979
    9DOPE    HB 1050   1.277   4.323   6.251 -0.8745  0.2259 -1.4833
    9DOPE    C2 1051   1.440   4.249   6.119 -0.3773  0.3904 -0.2677
    9DOPE    HS 1052   1.463   4.171   6.194  0.3030 -0.4666 -1.3253
    9DOPE   O21 1053   1.561   4.306   6.067  0.1782 -0.3536  0.2099
    9DOPE   C21 1054   1.658   4.222   6.017 -0.1998 -0.1458 -0.0686
    9DOPE   O22 1055   1.644   4.101   6.011 -0.5460  0.4533  0.4065
    9DOPE   C22 1056   1.777   4.296   5.965  0.2050 -0.5297  0.0313
    9DOPE   H2R 1057   1.851   4.307   6.047  2.2849 -1.1311 -1.6639
    9DOPE   H2S 1058   1.759   4.399   5.927  2.0079 -0.5440 -0.9786
    9DOPE    C3 1059   1.352   4.174   6.015  0.6194  0.6432  0.2423
    9DOPE    HX 1060   1.398   4.085   5.967 -0.1493 -0.4189  1.4066
    9DOPE    HY 1061   1.342   4.244   5.929  1.2873  0.5858  0.1112
    9DOPE   O31 1062   1.213   4.153   6.063 -0.2727  0.2580 -0.4211
    9DOPE   C31 1063   1.201   4.035   6.135 -0.1169  0.1905 -0.1316
    9DOPE   O32 1064   1.289   3.949   6.135  0.2403 -0.1730  0.0431
    9DOPE   C32 1065   1.072   4.027   6.205  0.0532 -0.1517 -0.7431
    9DOPE   H2X 1066   1.091   4.009   6.313 -0.2405  1.4111 -0.4050
    9DOPE   H2Y 1067   1.023   4.126   6.204 -0.1778 -0.2416  0.6113
    9DOPE   C23 1068   1.846   4.224   5.847 -0.0375 -0.4603 -0.8186
    9DOPE   H3R 1069   1.772   4.184   5.774  1.3352 -3.2586 -0.8387
    9DOPE   H3S 1070   1.898   4.142   5.902 -0.0017  0.5519  0.7092
    9DOPE   C24 1071   1.948   4.309   5.780  0.9792 -0.0075 -0.6866
    9DOPE   H4R 1072   1.903   4.381   5.709 -1.8005  0.6239  1.5117
    9DOPE   H4S 1073   2.005   4.236   5.720  0.4554 -1.1754  0.2054
    9DOPE   C25 1074   2.041   4.391   5.869  0.0866 -0.2257 -0.4159
    9DOPE   H5R 1075   2.095   4.322   5.936  1.8969  1.3134 -0.1818
    9DOPE   H5S 1076   1.990   4.464   5.937  0.2435  0.2389 -0.7890
    9DOPE   C26 1077   2.148   4.466   5.792  0.1379 -0.6479  0.1214
    9DOPE   H6R 1078   2.106   4.550   5.733  1.2768 -0.0970  0.0664
    9DOPE   H6S 1079   2.181   4.399   5.710  0.5592 -1.1192  0.6616
    9DOPE   C27 1080   2.277   4.503   5.872  0.8029  0.1273 -0.2013
    9DOPE   H7R 1081   2.302   4.431   5.953  1.3079  2.1685  1.5610
    9DOPE   H7S 1082   2.266   4.600   5.925  0.0976 -0.0558 -0.0046
    9DOPE   C28 1083   2.389   4.516   5.772  0.0609  0.6474 -0.5417
    9DOPE   H8R 1084   2.395   4.421   5.715  2.1621  0.6831 -0.4454
    9DOPE   H8S 1085   2.490   4.524   5.817 -0.8962  1.7210  1.6134
    9DOPE   C29 1086   2.360   4.636   5.682  0.3281  0.2153 -0.1587
    9DOPE   H9R 1087   2.351   4.730   5.738  2.5299 -0.1772  0.9533
    9DOPE  C210 1088   2.311   4.624   5.550 -0.9377 -0.1401 -0.0760
    9DOPE  H10R 1089   2.293   4.721   5.500  4.2420  2.4583  2.2882
    9DOPE  C211 1090   2.287   4.506   5.463 -0.7096  0.4167  0.3072
    9DOPE  H11R 1091   2.200   4.444   5.492  0.3162 -1.0441  0.3214
    9DOPE  H11S 1092   2.374   4.439   5.476  0.3833  1.6188 -0.5371
    9DOPE  C212 1093   2.271   4.544   5.314  0.8324 -0.0158 -0.0384
    9DOPE  H12R 1094   2.372   4.565   5.273  0.9399  2.8082  1.4903
    9DOPE  H12S 1095   2.203   4.631   5.304  0.9171 -0.0744 -1.2938
    9DOPE  C213 1096   2.206   4.432   5.237 -0.0476  0.1984  1.0710
    9DOPE  H13R 1097   2.175   4.472   5.138  0.9682 -1.0162  0.2524
    9DOPE  H13S 1098   2.121   4.384   5.289 -0.7579 -2.5077 -2.2369
    9DOPE  C214 1099   2.291   4.303   5.208 -0.5978  0.4693 -0.5785
    9DOPE  H14R 1100   2.217   4.242   5.153  0.0411  0.5928 -1.6201
    9DOPE  H14S 1101   2.328   4.261   5.304  2.2694  2.4533 -0.6689
    9DOPE  C215 1102   2.405   4.328   5.118  0.4658  0.3793  0.2158
    9DOPE  H15R 1103   2.442   4.226   5.095 -2.3251 -0.2134 -2.4116
    9DOPE  H15S 1104   2.478   4.387   5.177 -0.5114  0.4505  1.4189
    9DOPE  C216 1105   2.378   4.382   4.978 -0.2109  0.0530  0.2319
    9DOPE  H16R 1106   2.315   4.471   4.996  1.6557  1.6858 -0.9129
    9DOPE  H16S 1107   2.312   4.316   4.917 -0.6973  1.8152 -1.2209
    9DOPE  C217 1108   2.506   4.425   4.899  0.2081  0.3216 -0.1319
    9DOPE  H17R 1109   2.464   4.437   4.796 -0.8686  2.1545  0.4840
    9DOPE  H17S 1110   2.580   4.341   4.901 -1.4465 -1.2030 -0.1086
    9DOPE  C218 1111   2.574   4.553   4.950 -0.2632  0.1397  0.0069
    9DOPE  H18R 1112   2.606   4.537   5.055 -1.9757 -2.5171  0.2486
    9DOPE  H18S 1113   2.495   4.630   4.936 -0.5427  0.6734  3.6053
    9DOPE  H18T 1114   2.660   4.581   4.886 -0.3971  1.0767  0.2341
    9DOPE   C33 1115   0.970   3.917   6.166  0.7813  0.3581 -0.1823
    9DOPE   H3X 1116   0.893   3.919   6.246  0.8783 -0.8757 -0.0288
    9DOPE   H3Y 1117   1.021   3.818   6.172 -1.7635 -1.0884 -0.7554
    9DOPE   C34 1118   0.901   3.952   6.033 -0.1819 -0.4253 -0.3060
    9DOPE   H4X 1119   0.820   3.876   6.031 -0.1808 -0.4300 -0.1930
    9DOPE   H4Y 1120   0.854   4.052   6.035 -1.7155 -1.0931 -1.5360
    9DOPE   C35 1121   0.990   3.942   5.912 -1.4442  1.1614 -0.2839
    9DOPE   H5X 1122   1.058   3.854   5.908 -1.1793  1.3265  0.4499
    9DOPE   H5Y 1123   1.057   4.031   5.914  0.8131 -0.4340  1.5934
    9DOPE   C36 1124   0.910   3.945   5.781 -0.4780  0.4976  0.5786
    9DOPE   H6X 1125   0.821   4.012   5.783 -1.5669 -0.9147  0.7143
    9DOPE   H6Y 1126   0.847   3.854   5.777 -0.0766  0.1150  2.2820
    9DOPE   C37 1127   0.984   3.946   5.648 -0.0046 -0.0009  0.3908
    9DOPE   H7X 1128   1.066   4.021   5.656 -0.3438  0.2656  1.5760
    9DOPE   H7Y 1129   1.047   3.855   5.648 -1.3963 -0.9940 -0.5230
    9DOPE   C38 1130   0.890   3.966   5.526  0.0777 -0.9313  0.4097
    9DOPE   H8X 1131   0.835   4.059   5.554 -0.8529 -1.2620 -0.2799
    9DOPE   H8Y 1132   0.811   3.888   5.521  1.0321 -1.8864 -0.3304
    9DOPE   C39 1133   0.974   3.981   5.405  0.0582  0.1376  0.4860
    9DOPE   H9X 1134   1.021   4.080   5.400 -0.5696  0.4196 -0.0786
    9DOPE  C310 1135   0.970   3.890   5.304  0.2085  0.1956  0.0951
    9DOPE  H10X 1136   1.017   3.919   5.209  0.2952  0.4920  0.2264
    9DOPE  C311 1137   0.886   3.768   5.300 -0.0514 -0.2822  0.2946
    9DOPE  H11X 1138   0.946   3.686   5.256  1.2619  0.8513 -0.1136
    9DOPE  H11Y 1139   0.846   3.736   5.399 -1.1151 -1.6321 -0.5411
    9DOPE  C312 1140   0.752   3.789   5.217  0.2583  0.2892 -0.4784
    9DOPE  H12X 1141   0.764   3.828   5.114  1.3512  1.3013  0.0080
    9DOPE  H12Y 1142   0.703   3.877   5.263 -0.8690  0.2448 -1.5244
    9DOPE  C313 1143   0.668   3.661   5.238  1.0140  0.3646 -0.3651
    9DOPE  H13X 1144   0.715   3.565   5.206 -0.7790 -0.3362 -1.0533
    9DOPE  H13Y 1145   0.624   3.649   5.339 -0.0799 -2.0889 -1.0453
    9DOPE  C314 1146   0.536   3.662   5.148  0.1370  0.5810 -0.0371
    9DOPE  H14X 1147   0.480   3.757   5.164 -0.9126  0.2435 -1.5725
    9DOPE  H14Y 1148   0.464   3.581   5.171  0.7557 -0.9622 -3.0284
    9DOPE  C315 1149   0.546   3.652   4.995 -0.4898 -0.3675 -0.0529
    9DOPE  H15X 1150   0.549   3.545   4.966  1.7318 -0.1298 -0.8471
    9DOPE  H15Y 1151   0.640   3.701   4.964  0.2457 -1.6963 -0.0137
    9DOPE  C316 1152   0.431   3.718   4.914  0.4001 -0.0939 -0.4490
    9DOPE  H16X 1153   0.399   3.819   4.946 -0.4233 -0.0574 -1.3373
    9DOPE  H16Y 1154   0.354   3.647   4.951  2.4285 -0.2723  4.0941
    9DOPE  C317 1155   0.446   3.726   4.760 -0.0625  0.0222  0.7491
    9DOPE  H17X 1156   0.342   3.733   4.723 -0.8278 -1.2026  2.5487
    9DOPE  H17Y 1157   0.511   3.812   4.731  1.5896 -0.7856  1.8683
    9DOPE  C318 1158   0.500   3.600   4.695 -0.0520 -0.0920  0.0102
    9DOPE  H18X 1159   0.482   3.606   4.585  0.6010  2.4511 -0.0295
    9DOPE  H18Y 1160   0.606   3.577   4.720 -0.0153  0.1440  0.0789
    9DOPE  H18Z 1161   0.450   3.509   4.735  1.9631  0.0682  3.2943
   10DOPE     N 1162   1.810   5.829   7.066 -0.2431  0.2551 -0.2581
   10DOPE   HN1 1163   1.847   5.820   6.970 -0.3478  2.5318 -0.5519
   10DOPE   HN2 1164   1.814   5.927   7.102 -4.1304 -0.1669  1.8556
   10DOPE   HN3 1165   1.858   5.766   7.134 -1.9276 -1.2242 -0.3589
   10DOPE   C12 1166   1.668   5.783   7.049 -0.3595 -1.0889  0.5647
   10DOPE  H12A 1167   1.623   5.782   7.151  1.4117 -0.0014  1.4050
   10DOPE  H12B 1168   1.668   5.678   7.014 -1.7746 -1.0897  0.4849
   10DOPE   C11 1169   1.590   5.876   6.952  0.6266 -0.4970  0.7628
   10DOPE  H11A 1170   1.490   5.834   6.926  0.1718  0.6829  0.5123
   10DOPE  H11B 1171   1.642   5.870   6.854  0.4882  0.6576  0.6059
   10DOPE     P 1172   1.656   6.138   6.960 -0.1129  0.4566 -0.0260
   10DOPE   O13 1173   1.800   6.097   6.971  0.2396  0.6892  0.5091
   10DOPE   O14 1174   1.625   6.247   7.052 -0.3133  0.2223 -0.1668
   10DOPE   O11 1175   1.623   6.186   6.811 -0.4137  0.0660 -0.0165
   10DOPE   O12 1176   1.566   6.011   6.994  0.5079  0.4212  0.4313
   10DOPE    C1 1177   1.492   6.190   6.764 -0.1741  0.1526 -0.2343
   10DOPE    HA 1178   1.434   6.274   6.808  1.0981 -0.0336  1.9380
   10DOPE    HB 1179   1.429   6.104   6.794 -0.5595  1.1857  2.1290
   10DOPE    C2 1180   1.487   6.211   6.609 -0.4331 -0.0062  0.2309
   10DOPE    HS 1181   1.387   6.188   6.567  0.2399 -2.2951 -0.2849
   10DOPE   O21 1182   1.585   6.137   6.535 -0.0699 -0.3403 -0.0072
   10DOPE   C21 1183   1.584   6.004   6.546  1.4377 -0.3074  0.0295
   10DOPE   O22 1184   1.494   5.943   6.607 -0.1497  0.0912  0.7033
   10DOPE   C22 1185   1.688   5.941   6.462 -0.2419  0.9734 -0.1619
   10DOPE   H2R 1186   1.788   5.987   6.475  1.0452 -1.8346  0.5359
   10DOPE   H2S 1187   1.663   5.940   6.353 -1.5095 -0.8206  0.0986
   10DOPE    C3 1188   1.516   6.359   6.575  0.6096 -0.3268  0.6080
   10DOPE    HX 1189   1.611   6.400   6.617 -0.2871  2.7707 -0.1227
   10DOPE    HY 1190   1.442   6.417   6.634 -0.0978  0.4393 -0.9437
   10DOPE   O31 1191   1.512   6.385   6.432  0.7531 -0.1694 -0.1073
   10DOPE   C31 1192   1.625   6.406   6.360  0.1138 -0.0040 -0.3829
   10DOPE   O32 1193   1.738   6.395   6.414 -0.5868 -0.6360 -0.1704
   10DOPE   C32 1194   1.591   6.456   6.222 -0.0853  0.0305 -0.4576
   10DOPE   H2X 1195   1.519   6.540   6.228 -1.4692 -1.1957  0.8249
   10DOPE   H2Y 1196   1.679   6.490   6.163 -0.2203  1.3675  0.0736
   10DOPE   C23 1197   1.705   5.789   6.498 -0.1451 -0.1341  0.2471
   10DOPE   H3R 1198   1.614   5.725   6.496  0.3119 -0.7831 -0.0488
   10DOPE   H3S 1199   1.753   5.792   6.598  1.2193  0.6173 -0.3984
   10DOPE   C24 1200   1.797   5.720   6.400  0.1566  0.1079  0.1544
   10DOPE   H4R 1201   1.893   5.775   6.397  0.7685 -0.8163  1.6660
   10DOPE   H4S 1202   1.750   5.723   6.299  0.4394 -1.2364 -0.0453
   10DOPE   C25 1203   1.817   5.572   6.430  0.4584 -0.5661  0.8554
   10DOPE   H5R 1204   1.721   5.522   6.455  0.7980 -1.5750  0.1925
   10DOPE   H5S 1205   1.889   5.551   6.513  0.6566  1.4586  1.2510
   10DOPE   C26 1206   1.892   5.492   6.323  0.8810 -0.7826  0.0634
   10DOPE   H6R 1207   1.822   5.478   6.238  0.8084 -0.7549  0.1175
   10DOPE   H6S 1208   1.919   5.391   6.362  1.6922 -0.8273 -0.5774
   10DOPE   C27 1209   2.013   5.556   6.266  0.5824 -0.8202  0.2033
   10DOPE   H7R 1210   2.088   5.574   6.347  0.4585  1.5977 -0.1224
   10DOPE   H7S 1211   1.998   5.663   6.239  2.3375 -0.9743 -1.6311
   10DOPE   C28 1212   2.080   5.495   6.142  0.0694  0.1016 -0.2298
   10DOPE   H8R 1213   2.105   5.390   6.170  2.0394  0.1359 -1.6886
   10DOPE   H8S 1214   2.169   5.556   6.116  0.5947 -1.0105 -1.1575
   10DOPE   C29 1215   1.986   5.507   6.017 -0.0707  0.2097  0.4140
   10DOPE   H9R 1216   1.948   5.609   6.000 -2.0177 -0.6202 -0.6258
   10DOPE  C210 1217   1.957   5.410   5.923 -0.1680 -0.1596 -0.2651
   10DOPE  H10R 1218   1.898   5.444   5.836  0.6784 -0.2004 -0.8681
   10DOPE  C211 1219   2.006   5.264   5.927 -0.3320  0.0266 -0.2382
   10DOPE  H11R 1220   2.063   5.249   6.022 -0.4619 -1.7593 -0.4113
   10DOPE  H11S 1221   2.089   5.261   5.853 -0.0691  0.7253  0.0208
   10DOPE  C212 1222   1.905   5.150   5.897  0.5053  0.3520  0.2688
   10DOPE  H12R 1223   1.956   5.054   5.871 -0.1434  0.2300 -0.5881
   10DOPE  H12S 1224   1.850   5.179   5.805 -0.5597 -0.0917  0.7463
   10DOPE  C213 1225   1.799   5.118   6.001 -0.2657 -0.0470 -0.3989
   10DOPE  H13R 1226   1.735   5.033   5.970 -0.5540 -0.4806  1.2552
   10DOPE  H13S 1227   1.727   5.198   6.028  0.8402  0.3280  1.6975
   10DOPE  C214 1228   1.859   5.074   6.136 -0.5615 -0.0543 -0.4866
   10DOPE  H14R 1229   1.782   5.098   6.212  0.2257 -0.2589  0.3928
   10DOPE  H14S 1230   1.952   5.129   6.159  1.3277 -2.6732 -1.2914
   10DOPE  C215 1231   1.894   4.922   6.144  0.0261 -0.1982 -0.8753
   10DOPE  H15R 1232   1.969   4.897   6.067 -1.7066 -2.9468 -1.7839
   10DOPE  H15S 1233   1.811   4.855   6.115 -0.3998 -0.3474  0.6130
   10DOPE  C216 1234   1.937   4.873   6.285  0.2035 -0.2328  0.6926
   10DOPE  H16R 1235   1.849   4.862   6.352 -0.4796 -0.2185 -0.1835
   10DOPE  H16S 1236   2.017   4.939   6.325  2.2012 -2.4690  0.5935
   10DOPE  C217 1237   2.011   4.741   6.272  0.1315  0.2595  0.0198
   10DOPE  H17R 1238   1.985   4.687   6.366  0.0397  0.1080 -0.0921
   10DOPE  H17S 1239   2.117   4.773   6.271 -0.1109  1.1037  0.2508
   10DOPE  C218 1240   1.991   4.645   6.154  0.0814 -0.0493 -0.4498
   10DOPE  H18R 1241   1.884   4.614   6.153 -0.4140  1.1468  2.8247
   10DOPE  H18S 1242   2.060   4.562   6.179 -0.5670 -0.6539 -0.6322
   10DOPE  H18T 1243   2.027   4.682   6.055  0.8053  0.2541 -0.0823
   10DOPE   C33 1244   1.513   6.360   6.133  0.1793 -0.4418 -0.0221
   10DOPE   H3X 1245   1.514   6.398   6.029  1.0427 -0.9056 -0.1980
   10DOPE   H3Y 1246   1.408   6.357   6.169  0.4600 -1.9932  0.7676
   10DOPE   C34 1247   1.573   6.216   6.123  1.0217 -0.3957 -0.4415
   10DOPE   H4X 1248   1.595   6.177   6.225 -0.6589 -0.2597 -0.0048
   10DOPE   H4Y 1249   1.498   6.155   6.067  1.0088  2.4280 -3.8312
   10DOPE   C35 1250   1.704   6.203   6.052  0.3374 -0.0854 -0.1620
   10DOPE   H5X 1251   1.777   6.282   6.080 -1.1280  1.0844  0.4766
   10DOPE   H5Y 1252   1.674   6.216   5.945 -2.3888  0.3204  0.5919
   10DOPE   C36 1253   1.773   6.066   6.069 -0.0270 -0.1065 -0.6890
   10DOPE   H6X 1254   1.685   5.999   6.079 -0.9496  1.3930  3.3880
   10DOPE   H6Y 1255   1.834   6.062   6.162 -1.0810 -1.4526 -0.0164
   10DOPE   C37 1256   1.855   6.031   5.950  0.1305  0.2941  0.1847
   10DOPE   H7X 1257   1.791   6.012   5.861  2.2218  1.2110 -1.6192
   10DOPE   H7Y 1258   1.926   6.109   5.915  0.3281 -1.1429 -2.9565
   10DOPE   C38 1259   1.925   5.894   5.964 -0.0912 -0.0246 -0.6659
   10DOPE   H8X 1260   1.949   5.843   5.868 -1.3769 -1.5524 -0.2230
   10DOPE   H8Y 1261   1.844   5.833   6.011  1.3196 -0.1652  1.7833
   10DOPE   C39 1262   2.048   5.902   6.046  0.7638 -0.5572 -0.0634
   10DOPE   H9X 1263   2.037   5.894   6.155  0.6044 -1.7677 -0.1522
   10DOPE  C310 1264   2.171   5.915   5.994  0.2250 -0.6134 -0.1703
   10DOPE  H10X 1265   2.259   5.902   6.059 -0.8925  1.0783  1.7887
   10DOPE  C311 1266   2.207   5.927   5.856 -0.5553 -0.7094  1.0709
   10DOPE  H11X 1267   2.131   5.961   5.782 -1.3349  2.6353  3.1899
   10DOPE  H11Y 1268   2.277   6.012   5.844  0.1311 -1.3660  0.2848
   10DOPE  C312 1269   2.274   5.794   5.805  0.1471  0.2417 -0.1428
   10DOPE  H12X 1270   2.219   5.704   5.841 -0.4422  0.4659 -0.4723
   10DOPE  H12Y 1271   2.375   5.802   5.852 -0.1811  2.4855  0.2988
   10DOPE  C313 1272   2.303   5.794   5.657 -0.0665 -0.5096  0.0632
   10DOPE  H13X 1273   2.210   5.811   5.598  0.8744  1.3668 -0.9700
   10DOPE  H13Y 1274   2.358   5.889   5.640  0.0529 -0.3788  1.1280
   10DOPE  C314 1275   2.379   5.679   5.599 -0.1435  0.2349 -0.2600
   10DOPE  H14X 1276   2.320   5.589   5.624 -0.4017  0.6132  0.5228
   10DOPE  H14Y 1277   2.470   5.660   5.659 -1.3073 -1.7243  0.9594
   10DOPE  C315 1278   2.403   5.707   5.452  0.3767  0.3163 -0.5833
   10DOPE  H15X 1279   2.459   5.803   5.445  0.0852  0.6379  1.1715
   10DOPE  H15Y 1280   2.308   5.736   5.402  0.2559  0.5227 -0.2351
   10DOPE  C316 1281   2.487   5.601   5.387  0.4059  0.1937 -0.4100
   10DOPE  H16X 1282   2.487   5.617   5.277  0.2829 -2.7026 -0.9173
   10DOPE  H16Y 1283   2.440   5.502   5.405 -2.1649  1.2987 -0.6202
   10DOPE  C317 1284   2.634   5.603   5.435 -0.3484 -0.8536 -0.2876
   10DOPE  H17X 1285   2.673   5.706   5.420 -3.2417  0.4078  0.1382
   10DOPE  H17Y 1286   2.630   5.574   5.542  1.0377 -2.6137 -0.6702
   10DOPE  C318 1287   2.719   5.497   5.376 -0.4882  0.3207 -1.2082
   10DOPE  H18X 1288   2.760   5.529   5.278  0.5248  0.8706 -0.6195
   10DOPE  H18Y 1289   2.797   5.468   5.449 -0.9175  0.8478 -0.5204
   10DOPE  H18Z 1290   2.665   5.402   5.360  0.0769 -0.9185  2.9958
   11DOPE     N 1291   1.005   2.732   7.146  0.4835  0.6662  0.0086
   11DOPE   HN1 1292   0.991   2.772   7.241  0.1052  0.5507  0.0058
   11DOPE   HN2 1293   0.920   2.682   7.113 -1.0950  2.8665  0.4866
   11DOPE   HN3 1294   1.084   2.667   7.133  1.9063  2.0080  1.5137
   11DOPE   C12 1295   1.041   2.828   7.039  0.0287 -0.0497  0.3488
   11DOPE  H12A 1296   1.140   2.875   7.056 -0.6699  0.8400  2.1861
   11DOPE  H12B 1297   0.974   2.916   7.047  2.9159  2.3039  0.5369
   11DOPE   C11 1298   1.045   2.765   6.899  0.8311 -0.3031  0.4660
   11DOPE  H11A 1299   1.091   2.832   6.824 -1.2175 -0.5019 -1.0474
   11DOPE  H11B 1300   0.945   2.737   6.859  1.4302  1.4652 -2.5742
   11DOPE     P 1301   1.101   2.520   6.824  0.3163 -0.3933 -0.0199
   11DOPE   O13 1302   0.960   2.476   6.847  1.0281 -0.2621  0.2463
   11DOPE   O14 1303   1.207   2.421   6.851  0.5517  0.8414  0.6080
   11DOPE   O11 1304   1.115   2.576   6.682 -0.2956 -0.0661  1.3989
   11DOPE   O12 1305   1.130   2.651   6.903  0.3563 -0.3705  0.6087
   11DOPE    C1 1306   1.229   2.651   6.643  0.3400 -0.1712 -0.1236
   11DOPE    HA 1307   1.324   2.603   6.673  1.6905  1.1923 -1.9195
   11DOPE    HB 1308   1.219   2.754   6.683 -0.3566 -0.2550 -0.0652
   11DOPE    C2 1309   1.242   2.663   6.487 -0.0400 -0.0242  0.1095
   11DOPE    HS 1310   1.175   2.737   6.438  0.4354 -0.1057 -0.6944
   11DOPE   O21 1311   1.226   2.531   6.426 -0.6436 -0.4793 -0.1750
   11DOPE   C21 1312   1.103   2.511   6.389  0.7462 -0.0306 -0.6647
   11DOPE   O22 1313   1.012   2.596   6.387  0.6572 -0.2590 -0.3558
   11DOPE   C22 1314   1.091   2.359   6.360 -0.1643  0.3439  0.5382
   11DOPE   H2R 1315   1.154   2.308   6.436 -1.3900 -2.3870 -0.1188
   11DOPE   H2S 1316   1.135   2.354   6.258  0.9545 -1.5344  1.0722
   11DOPE    C3 1317   1.385   2.706   6.455 -0.6205 -0.5084  0.6952
   11DOPE    HX 1318   1.441   2.621   6.500  2.5587  0.6286 -0.8600
   11DOPE    HY 1319   1.403   2.806   6.499 -0.9992 -0.1420  0.0312
   11DOPE   O31 1320   1.409   2.707   6.317  0.8596  0.3967  0.6074
   11DOPE   C31 1321   1.535   2.744   6.293  0.2948 -0.0493 -0.1981
   11DOPE   O32 1322   1.619   2.766   6.380 -0.0707 -0.3976  0.4869
   11DOPE   C32 1323   1.554   2.752   6.143  0.4853  0.8022  0.1495
   11DOPE   H2X 1324   1.527   2.650   6.106 -1.2670  1.6274 -0.9573
   11DOPE   H2Y 1325   1.481   2.827   6.108 -1.8335 -1.7965 -1.0261
   11DOPE   C23 1326   0.944   2.305   6.346  0.3824  0.2846 -0.8583
   11DOPE   H3R 1327   0.880   2.386   6.305 -1.7089 -0.6262  0.4321
   11DOPE   H3S 1328   0.905   2.288   6.449  2.1938 -0.0472 -0.1938
   11DOPE   C24 1329   0.922   2.183   6.259  0.3947  0.8817  0.3587
   11DOPE   H4R 1330   0.933   2.093   6.323 -2.0552  0.2832  0.0176
   11DOPE   H4S 1331   0.992   2.174   6.173 -0.2600  0.7818 -0.1642
   11DOPE   C25 1332   0.774   2.178   6.213 -0.4952  0.8264 -0.2115
   11DOPE   H5R 1333   0.756   2.279   6.171  0.0648  0.6392 -0.9395
   11DOPE   H5S 1334   0.717   2.167   6.307  2.1344 -1.2505  1.2883
   11DOPE   C26 1335   0.740   2.064   6.127  0.2070 -0.2178 -0.3644
   11DOPE   H6R 1336   0.735   1.971   6.187  0.2575 -0.9961 -1.5190
   11DOPE   H6S 1337   0.808   2.063   6.039 -1.4515 -0.4497 -1.6933
   11DOPE   C27 1338   0.589   2.083   6.086 -0.0812  0.1081  0.2739
   11DOPE   H7R 1339   0.576   2.191   6.060  0.7644  0.1690  0.0832
   11DOPE   H7S 1340   0.523   2.057   6.171  1.3807 -1.5201  0.9391
   11DOPE   C28 1341   0.551   2.002   5.961 -0.2799  0.1368 -0.1928
   11DOPE   H8R 1342   0.612   1.910   5.948 -3.6134 -2.2254 -0.6883
   11DOPE   H8S 1343   0.585   2.061   5.873  3.0868 -0.7318  0.4136
   11DOPE   C29 1344   0.407   1.965   5.961 -0.1040 -0.5298  0.3579
   11DOPE   H9R 1345   0.375   1.881   6.025 -1.6937 -0.7502 -0.6470
   11DOPE  C210 1346   0.313   2.017   5.873 -0.4626 -0.6728  0.0216
   11DOPE  H10R 1347   0.207   2.011   5.900 -0.4094  0.0207  0.3987
   11DOPE  C211 1348   0.345   2.116   5.764 -0.0719  0.6762 -0.2497
   11DOPE  H11R 1349   0.452   2.132   5.742  0.0361  0.4770  0.1204
   11DOPE  H11S 1350   0.304   2.213   5.800 -0.6475  1.8247 -3.6964
   11DOPE  C212 1351   0.266   2.079   5.636 -0.5273 -0.1378  0.5636
   11DOPE  H12R 1352   0.157   2.064   5.653 -0.6439 -0.1050 -0.1022
   11DOPE  H12S 1353   0.298   1.977   5.604  1.4961  0.8127 -0.6510
   11DOPE  C213 1354   0.278   2.184   5.515 -0.4240 -0.3908 -0.0777
   11DOPE  H13R 1355   0.384   2.218   5.519 -1.0896  1.7134  1.3208
   11DOPE  H13S 1356   0.222   2.279   5.528 -2.1349 -1.4032  0.1002
   11DOPE  C214 1357   0.262   2.118   5.382 -0.1972 -0.1331  0.0750
   11DOPE  H14R 1358   0.153   2.098   5.371  0.0094 -2.1321  1.2433
   11DOPE  H14S 1359   0.312   2.020   5.371  1.5570  0.4417  2.2357
   11DOPE  C215 1360   0.314   2.197   5.265 -0.3390  0.5646 -0.4377
   11DOPE  H15R 1361   0.422   2.216   5.281 -0.6152  1.0144  1.0161
   11DOPE  H15S 1362   0.265   2.295   5.246  1.7769  2.2067  1.9531
   11DOPE  C216 1363   0.294   2.120   5.131  0.9484  0.0724 -0.0895
   11DOPE  H16R 1364   0.192   2.077   5.141  0.6280  0.5679 -1.0825
   11DOPE  H16S 1365   0.372   2.043   5.116 -0.4009 -1.1385 -1.1967
   11DOPE  C217 1366   0.288   2.204   5.009  0.2927  0.3500  0.0951
   11DOPE  H17R 1367   0.215   2.288   5.016  0.2507  0.5669 -2.2055
   11DOPE  H17S 1368   0.252   2.133   4.932  3.1076 -0.7752 -0.2772
   11DOPE  C218 1369   0.425   2.254   4.955 -0.3308 -0.0003  0.0572
   11DOPE  H18R 1370   0.467   2.325   5.029  0.9541 -1.5510  0.8869
   11DOPE  H18S 1371   0.401   2.312   4.864  0.5450 -1.6861 -1.3063
   11DOPE  H18T 1372   0.496   2.171   4.933 -1.6512 -1.1757  0.0342
   11DOPE   C33 1373   1.703   2.791   6.105 -0.5890  0.3682  0.6913
   11DOPE   H3X 1374   1.763   2.704   6.139 -0.3689 -0.9380 -2.6778
   11DOPE   H3Y 1375   1.723   2.891   6.149 -0.5574  0.3703  0.6717
   11DOPE   C34 1376   1.720   2.811   5.947  0.6140  0.4023 -0.1584
   11DOPE   H4X 1377   1.635   2.880   5.931 -0.8049 -0.9060  1.3033
   11DOPE   H4Y 1378   1.819   2.861   5.942  0.2887  1.0364 -0.2524
   11DOPE   C35 1379   1.708   2.682   5.868 -0.2490 -0.3896 -0.1661
   11DOPE   H5X 1380   1.611   2.633   5.892 -0.1022 -1.1766 -1.1236
   11DOPE   H5Y 1381   1.783   2.608   5.903  1.0445  0.7765 -0.3969
   11DOPE   C36 1382   1.721   2.704   5.716 -0.5582  0.4098  0.3533
   11DOPE   H6X 1383   1.812   2.763   5.690 -1.0464  0.2877 -1.8361
   11DOPE   H6Y 1384   1.639   2.766   5.674  0.6395  0.6741 -1.7287
   11DOPE   C37 1385   1.709   2.579   5.635  0.5826  1.0130 -0.3950
   11DOPE   H7X 1386   1.801   2.520   5.657 -0.2937 -1.0646 -1.9714
   11DOPE   H7Y 1387   1.618   2.522   5.663 -0.0901  1.1866 -2.1076
   11DOPE   C38 1388   1.699   2.602   5.480 -0.2669 -0.4313 -0.0136
   11DOPE   H8X 1389   1.795   2.641   5.439 -1.4345  2.4540 -0.2674
   11DOPE   H8Y 1390   1.618   2.678   5.478  0.2296  0.1402  0.7934
   11DOPE   C39 1391   1.653   2.480   5.412 -0.6321 -0.3800  0.4253
   11DOPE   H9X 1392   1.723   2.399   5.436  0.8579  0.7399  0.0010
   11DOPE  C310 1393   1.556   2.468   5.316  0.0831  0.3074 -0.8629
   11DOPE  H10X 1394   1.529   2.365   5.287  0.1036  0.0672 -0.0618
   11DOPE  C311 1395   1.459   2.572   5.265  0.8823 -0.0666 -0.2974
   11DOPE  H11X 1396   1.420   2.634   5.349 -2.6320 -2.4785  0.1165
   11DOPE  H11Y 1397   1.506   2.624   5.180  2.5083 -0.7241  0.1551
   11DOPE  C312 1398   1.331   2.506   5.209  0.8060  0.3635 -0.1012
   11DOPE  H12X 1399   1.294   2.442   5.291  0.2332  0.1367 -0.5280
   11DOPE  H12Y 1400   1.355   2.437   5.125 -2.1952  0.1860 -0.9523
   11DOPE  C313 1401   1.234   2.614   5.164  0.7531 -0.1143  0.3038
   11DOPE  H13X 1402   1.227   2.697   5.238 -2.1226  0.6931 -0.7493
   11DOPE  H13Y 1403   1.256   2.664   5.067  0.7879  1.5148  1.1071
   11DOPE  C314 1404   1.096   2.549   5.147 -0.0107  0.3133 -0.1744
   11DOPE  H14X 1405   1.052   2.556   5.249  0.9686 -1.3377  0.3988
   11DOPE  H14Y 1406   1.111   2.444   5.113 -0.1115 -0.5738  2.3191
   11DOPE  C315 1407   1.017   2.622   5.041 -0.3269 -0.4374 -0.1456
   11DOPE  H15X 1408   1.076   2.631   4.947 -1.4629 -0.2814 -0.8740
   11DOPE  H15Y 1409   1.004   2.730   5.066  1.9492  0.2379 -1.6162
   11DOPE  C316 1410   0.886   2.546   5.006  0.1034  0.4182  0.3235
   11DOPE  H16X 1411   0.807   2.552   5.083 -0.0619 -1.9616  0.4215
   11DOPE  H16Y 1412   0.912   2.438   4.996 -0.1696  0.4260 -0.5045
   11DOPE  C317 1413   0.829   2.587   4.866  0.1343  0.0250 -0.2409
   11DOPE  H17X 1414   0.828   2.698   4.874 -1.9106  0.0748 -0.7461
   11DOPE  H17Y 1415   0.882   2.554   4.773  0.5069  2.2679 -0.8829
   11DOPE  C318 1416   0.690   2.543   4.851  0.5330 -0.1656 -0.1068
   11DOPE  H18X 1417   0.627   2.590   4.930  1.6968 -0.7549  1.2214
   11DOPE  H18Y 1418   0.650   2.590   4.758 -0.6139  3.9793  2.2106
   11DOPE  H18Z 1419   0.675   2.433   4.847 -1.2322 -0.0059  1.1329
   12DOPE     N 1420   3.538   6.543   7.023 -0.4149 -0.0319 -0.1554
   12DOPE   HN1 1421   3.600   6.586   6.951 -0.2444 -0.2871 -0.1611
   12DOPE   HN2 1422   3.456   6.604   7.042 -1.2985  0.3714 -4.3272
   12DOPE   HN3 1423   3.595   6.530   7.109  0.2654  0.9679 -0.4359
   12DOPE   C12 1424   3.481   6.413   6.977  0.2222  0.1791  0.0244
   12DOPE  H12A 1425   3.417   6.373   7.058 -1.7083  0.3388 -1.3695
   12DOPE  H12B 1426   3.569   6.347   6.963  0.0347 -0.3736  1.2992
   12DOPE   C11 1427   3.401   6.432   6.849  0.2133 -0.0700 -0.3348
   12DOPE  H11A 1428   3.383   6.327   6.818  1.8432  0.6555 -4.3433
   12DOPE  H11B 1429   3.462   6.465   6.762  0.6300 -0.8400 -0.3406
   12DOPE     P 1430   3.148   6.479   6.782 -0.4504 -0.0196 -0.1222
   12DOPE   O13 1431   3.072   6.607   6.781  0.3168 -0.4838  0.0493
   12DOPE   O14 1432   3.078   6.366   6.839  0.4143  0.4376 -0.2604
   12DOPE   O11 1433   3.204   6.447   6.635  0.3506 -0.3297 -0.3531
   12DOPE   O12 1434   3.284   6.512   6.865  0.4779  0.3074  0.2070
   12DOPE    C1 1435   3.112   6.452   6.523 -0.1900 -1.1651 -1.0920
   12DOPE    HA 1436   3.006   6.459   6.557  0.2441 -0.7869  0.2551
   12DOPE    HB 1437   3.134   6.358   6.468  2.5743 -0.5795 -1.0861
   12DOPE    C2 1438   3.159   6.575   6.436 -0.4394  0.3798  0.4060
   12DOPE    HS 1439   3.151   6.673   6.487 -0.8690  0.5210  0.0769
   12DOPE   O21 1440   3.083   6.567   6.314  0.3937 -0.1234  0.4986
   12DOPE   C21 1441   2.959   6.628   6.320  0.4144  0.1401 -0.2860
   12DOPE   O22 1442   2.913   6.662   6.428 -0.0714 -0.4921  0.3402
   12DOPE   C22 1443   2.903   6.643   6.176 -0.2848 -0.4372  0.7436
   12DOPE   H2R 1444   2.973   6.716   6.128  0.6087  0.1309  2.8127
   12DOPE   H2S 1445   2.800   6.683   6.183 -0.4347 -0.2237 -1.6400
   12DOPE    C3 1446   3.311   6.559   6.406 -0.5307 -0.3835  0.1639
   12DOPE    HX 1447   3.329   6.452   6.381 -0.7633 -0.1040 -1.2736
   12DOPE    HY 1448   3.370   6.586   6.496 -0.7894  1.1000 -0.0857
   12DOPE   O31 1449   3.359   6.643   6.292  0.2314  0.4118  0.2763
   12DOPE   C31 1450   3.490   6.624   6.259 -0.5905 -0.4788 -0.6665
   12DOPE   O32 1451   3.561   6.543   6.323 -0.2526 -0.4462 -0.3053
   12DOPE   C32 1452   3.538   6.708   6.135 -0.0006  0.2020 -0.2581
   12DOPE   H2X 1453   3.612   6.786   6.163 -0.6771  1.5504 -2.0280
   12DOPE   H2Y 1454   3.576   6.632   6.064 -3.4406 -2.4279  0.4783
   12DOPE   C23 1455   2.894   6.506   6.106 -0.5718  0.3891 -0.2140
   12DOPE   H3R 1456   2.800   6.455   6.135 -0.8395 -0.8314 -2.9262
   12DOPE   H3S 1457   2.979   6.436   6.122  0.5080  1.9053  0.9904
   12DOPE   C24 1458   2.896   6.534   5.957 -0.9121 -0.9405 -0.8449
   12DOPE   H4R 1459   2.999   6.563   5.928 -0.6675  0.2956  1.0521
   12DOPE   H4S 1460   2.839   6.629   5.941 -2.4170 -1.4604  1.0899
   12DOPE   C25 1461   2.824   6.446   5.868 -0.1355 -0.0645 -0.1576
   12DOPE   H5R 1462   2.728   6.419   5.918  0.3665 -1.6365  0.0109
   12DOPE   H5S 1463   2.882   6.353   5.847 -1.3271 -0.2343 -3.1085
   12DOPE   C26 1464   2.787   6.495   5.724 -0.2521 -0.2003  0.3589
   12DOPE   H6R 1465   2.873   6.544   5.673 -1.2278 -1.0307 -2.1968
   12DOPE   H6S 1466   2.710   6.573   5.741  2.1310  2.1061  1.2419
   12DOPE   C27 1467   2.729   6.376   5.642 -0.7139  0.1903 -0.0412
   12DOPE   H7R 1468   2.656   6.318   5.701 -2.0614 -0.2821 -2.0892
   12DOPE   H7S 1469   2.810   6.303   5.618 -0.4718 -0.4593  2.4882
   12DOPE   C28 1470   2.652   6.422   5.516 -0.4361  0.0949  0.0119
   12DOPE   H8R 1471   2.561   6.479   5.547 -0.4079 -1.4487  3.2478
   12DOPE   H8S 1472   2.613   6.335   5.459 -1.7384  0.9113 -0.4032
   12DOPE   C29 1473   2.737   6.508   5.424  0.1419 -0.4332  0.0265
   12DOPE   H9R 1474   2.814   6.442   5.382 -1.1417 -2.3678  0.5421
   12DOPE  C210 1475   2.737   6.644   5.414 -0.0590  0.4883  0.2725
   12DOPE  H10R 1476   2.806   6.694   5.345  2.6035 -0.0066  2.4256
   12DOPE  C211 1477   2.662   6.735   5.505 -0.2334 -0.2787 -0.3053
   12DOPE  H11R 1478   2.731   6.809   5.552 -1.2584  0.3657  0.2256
   12DOPE  H11S 1479   2.603   6.678   5.579 -0.9272 -0.5495 -1.0457
   12DOPE  C212 1480   2.565   6.825   5.430 -0.1394 -0.2151  0.3985
   12DOPE  H12R 1481   2.608   6.853   5.331 -0.9300 -1.9897 -0.4825
   12DOPE  H12S 1482   2.535   6.912   5.492  1.6883 -0.9909  2.4636
   12DOPE  C213 1483   2.433   6.744   5.392  0.5037  0.0321 -0.3880
   12DOPE  H13R 1484   2.380   6.699   5.479 -1.0777  3.4358  0.5917
   12DOPE  H13S 1485   2.452   6.665   5.316 -0.4447 -0.1726 -0.4238
   12DOPE  C214 1486   2.334   6.831   5.323  0.0139 -0.6708  0.1899
   12DOPE  H14R 1487   2.397   6.884   5.248 -0.0450 -1.0540 -0.1378
   12DOPE  H14S 1488   2.295   6.908   5.393  0.2804  0.0762 -0.4752
   12DOPE  C215 1489   2.215   6.755   5.259 -0.0436  0.3166  0.1273
   12DOPE  H15R 1490   2.254   6.667   5.202 -0.1027  0.3464  0.0416
   12DOPE  H15S 1491   2.165   6.825   5.189  0.8348  1.5666  0.7250
   12DOPE  C216 1492   2.120   6.692   5.357 -0.3773 -0.1660 -0.8076
   12DOPE  H16R 1493   2.098   6.774   5.429 -2.1542 -2.3654  1.3245
   12DOPE  H16S 1494   2.170   6.606   5.407  2.2561  2.0441  0.6505
   12DOPE  C217 1495   1.997   6.644   5.286 -0.1344 -0.5214  0.1852
   12DOPE  H17R 1496   2.031   6.579   5.203 -1.3333  0.2108 -0.9166
   12DOPE  H17S 1497   1.952   6.729   5.231  1.7280  0.0053 -0.5765
   12DOPE  C218 1498   1.875   6.598   5.367 -0.2456  0.1020  0.1716
   12DOPE  H18R 1499   1.803   6.553   5.295  1.3489 -1.5577 -0.4577
   12DOPE  H18S 1500   1.827   6.668   5.438  1.7305 -0.3807  2.0831
   12DOPE  H18T 1501   1.917   6.519   5.433  0.1277 -1.3247 -1.6925
   12DOPE   C33 1502   3.423   6.789   6.074 -0.5994 -0.0390  0.4345
   12DOPE   H3X 1503   3.468   6.875   6.020 -1.5019  1.0989  1.4449
   12DOPE   H3Y 1504   3.360   6.836   6.153  0.5787  0.6731  0.9722
   12DOPE   C34 1505   3.338   6.713   5.964 -0.0644 -0.0168  0.0011
   12DOPE   H4X 1506   3.419   6.670   5.901  0.9682  0.7951  0.7263
   12DOPE   H4Y 1507   3.285   6.622   5.998 -0.6186 -0.6617 -2.3972
   12DOPE   C35 1508   3.239   6.810   5.899  0.7548  1.4378  0.2187
   12DOPE   H5X 1509   3.206   6.873   5.985  0.6446  1.2854  0.2876
   12DOPE   H5Y 1510   3.152   6.750   5.864  2.8292  0.5225 -4.0295
   12DOPE   C36 1511   3.298   6.872   5.781 -0.3394  0.3702 -0.3930
   12DOPE   H6X 1512   3.325   6.788   5.713 -0.3423  1.7179 -2.1194
   12DOPE   H6Y 1513   3.390   6.928   5.809 -1.0149  0.9950  0.6559
   12DOPE   C37 1514   3.204   6.972   5.710  0.2948  0.8963  0.0830
   12DOPE   H7X 1515   3.193   7.060   5.776  0.0101  0.1535  1.0459
   12DOPE   H7Y 1516   3.249   6.998   5.612 -0.7422  0.5604 -0.5033
   12DOPE   C38 1517   3.062   6.922   5.696 -0.3568 -0.2263 -0.1737
   12DOPE   H8X 1518   3.028   6.905   5.800 -3.5830  4.2349 -0.2312
   12DOPE   H8Y 1519   3.059   6.821   5.650  3.4594 -0.2924 -0.5951
   12DOPE   C39 1520   2.964   7.013   5.624 -0.1527  0.1402  0.4815
   12DOPE   H9X 1521   2.991   7.052   5.525 -0.8335  2.4272  1.1376
   12DOPE  C310 1522   2.836   7.037   5.665  0.4784  0.4925 -0.1331
   12DOPE  H10X 1523   2.774   7.112   5.613  1.5188  0.7724 -1.0151
   12DOPE  C311 1524   2.776   6.974   5.788  0.2640  0.1478 -0.6974
   12DOPE  H11X 1525   2.668   6.946   5.778  0.1464  0.8682 -1.5004
   12DOPE  H11Y 1526   2.812   6.872   5.813 -1.8024 -0.1852  1.2745
   12DOPE  C312 1527   2.778   7.066   5.914  0.3992  0.1038  0.0467
   12DOPE  H12X 1528   2.710   7.153   5.898 -0.0089 -0.5179 -1.8659
   12DOPE  H12Y 1529   2.877   7.117   5.925  0.1686  1.1034 -2.0161
   12DOPE  C313 1530   2.737   6.981   6.036 -0.3802 -0.2904  1.0079
   12DOPE  H13X 1531   2.627   6.975   6.025 -0.3533  1.7469 -1.3940
   12DOPE  H13Y 1532   2.792   6.884   6.031  0.1107  0.0163  0.2685
   12DOPE  C314 1533   2.778   7.052   6.162  0.5889 -0.6784 -0.9119
   12DOPE  H14X 1534   2.702   7.020   6.236  3.0620  0.1955  2.2252
   12DOPE  H14Y 1535   2.786   7.162   6.150 -0.8590 -0.5215 -0.5821
   12DOPE  C315 1536   2.917   7.014   6.207 -0.3062  0.0768 -0.0660
   12DOPE  H15X 1537   2.980   7.028   6.116 -0.3398  2.3534  0.1976
   12DOPE  H15Y 1538   2.910   6.905   6.228  1.0594 -0.0488 -0.1847
   12DOPE  C316 1539   2.970   7.089   6.329  0.2426  0.0746 -0.2688
   12DOPE  H16X 1540   2.897   7.081   6.412 -1.1677  2.4411 -1.1593
   12DOPE  H16Y 1541   2.974   7.198   6.307 -0.2275 -0.0563 -1.0271
   12DOPE  C317 1542   3.110   7.035   6.360 -0.1909  0.1170  0.2928
   12DOPE  H17X 1543   3.147   7.098   6.444  0.0757 -1.6947  1.5805
   12DOPE  H17Y 1544   3.111   6.942   6.420  3.4073  0.9134  1.7209
   12DOPE  C318 1545   3.215   7.054   6.250 -0.2610  0.3621 -0.6071
   12DOPE  H18X 1546   3.200   7.138   6.179  1.7076  0.5910 -0.8204
   12DOPE  H18Y 1547   3.313   7.069   6.301 -0.8491 -0.2102  0.7407
   12DOPE  H18Z 1548   3.214   6.959   6.192 -0.4502  1.2094 -2.0302
   13DOPE     N 1549   2.719   0.531   7.264 -0.0222  0.0249  0.1867
   13DOPE   HN1 1550   2.633   0.494   7.309 -0.1163  1.5361  1.3360
   13DOPE   HN2 1551   2.698   0.631   7.242 -3.2153 -0.1485  1.9012
   13DOPE   HN3 1552   2.719   0.483   7.172 -0.6129  1.3060 -0.5165
   13DOPE   C12 1553   2.832   0.502   7.351  0.4038 -0.1188 -0.3298
   13DOPE  H12A 1554   2.837   0.393   7.370  1.4282  0.2685  1.9306
   13DOPE  H12B 1555   2.815   0.558   7.445 -1.7314  0.5681 -1.0751
   13DOPE   C11 1556   2.960   0.547   7.282 -0.1205  0.3738 -0.0921
   13DOPE  H11A 1557   3.047   0.499   7.331 -1.1542 -1.2956  0.1868
   13DOPE  H11B 1558   2.968   0.654   7.312  4.3233  0.5469 -1.3103
   13DOPE     P 1559   3.026   0.425   7.061 -0.1836 -0.0283  0.2145
   13DOPE   O13 1560   2.922   0.327   7.035  0.9439 -0.3416  0.0576
   13DOPE   O14 1561   3.144   0.376   7.142  0.2890 -0.4071  0.5198
   13DOPE   O11 1562   3.067   0.497   6.932 -0.1928 -0.1771  0.3560
   13DOPE   O12 1563   2.959   0.541   7.141 -0.5245  0.2132  0.4227
   13DOPE    C1 1564   2.990   0.594   6.868 -0.1736  0.6922 -0.5845
   13DOPE    HA 1565   3.044   0.690   6.880  0.2176  0.2563  1.5758
   13DOPE    HB 1566   2.892   0.614   6.917  0.7137  1.6716  0.8576
   13DOPE    C2 1567   2.970   0.567   6.715 -0.2062 -0.7891  0.0128
   13DOPE    HS 1568   2.923   0.657   6.670  1.8516 -0.4384 -1.5807
   13DOPE   O21 1569   2.906   0.443   6.680  0.1123 -0.1497  0.0287
   13DOPE   C21 1570   2.773   0.446   6.671  0.1191  0.2798  0.1665
   13DOPE   O22 1571   2.710   0.545   6.703  0.0529 -0.3612 -0.1164
   13DOPE   C22 1572   2.715   0.317   6.616 -0.8893 -0.2026 -0.1227
   13DOPE   H2R 1573   2.677   0.262   6.705  0.1040 -0.5073  0.1258
   13DOPE   H2S 1574   2.794   0.264   6.559 -1.0312 -0.9549  0.3630
   13DOPE    C3 1575   3.108   0.560   6.641  0.2777 -0.2753  0.3434
   13DOPE    HX 1576   3.078   0.558   6.534 -0.6263  0.1456  0.5789
   13DOPE    HY 1577   3.153   0.461   6.662 -0.0376 -0.7931 -1.2846
   13DOPE   O31 1578   3.200   0.667   6.664  0.0627 -0.1117  0.0222
   13DOPE   C31 1579   3.326   0.635   6.630  0.2546  0.7666 -0.2582
   13DOPE   O32 1580   3.356   0.532   6.574 -0.0855 -0.0384 -0.3177
   13DOPE   C32 1581   3.433   0.749   6.646  0.7636  0.3087 -0.2394
   13DOPE   H2X 1582   3.387   0.849   6.633  0.6906  0.3217  0.1085
   13DOPE   H2Y 1583   3.456   0.746   6.755 -0.7931 -0.7217  0.0822
   13DOPE   C23 1584   2.595   0.339   6.520 -0.1464 -0.1911  0.2846
   13DOPE   H3R 1585   2.631   0.392   6.429 -0.0895 -0.7988 -0.0560
   13DOPE   H3S 1586   2.518   0.405   6.564 -0.3930 -0.9607  1.0453
   13DOPE   C24 1587   2.527   0.213   6.472  0.2627 -0.2454  0.0835
   13DOPE   H4R 1588   2.491   0.150   6.556  1.5967 -2.8924 -1.2146
   13DOPE   H4S 1589   2.606   0.145   6.433  0.2470  0.1665 -0.6888
   13DOPE   C25 1590   2.417   0.224   6.367 -0.0498  0.3361 -0.1034
   13DOPE   H5R 1591   2.431   0.310   6.299 -0.0922  1.0245  0.7406
   13DOPE   H5S 1592   2.328   0.254   6.426  0.3960 -1.0457  1.3681
   13DOPE   C26 1593   2.399   0.107   6.273 -0.6025 -0.1760  0.0213
   13DOPE   H6R 1594   2.302   0.115   6.219  0.2536  1.4173 -1.3864
   13DOPE   H6S 1595   2.402   0.017   6.338 -3.4993  0.0341  0.5634
   13DOPE   C27 1596   2.509   0.105   6.157 -0.1437 -0.1523  0.9812
   13DOPE   H7R 1597   2.608   0.099   6.208 -0.2744 -0.2770  1.2251
   13DOPE   H7S 1598   2.511   0.200   6.100 -0.3383 -1.1078 -0.6731
   13DOPE   C28 1599   2.476  -0.011   6.067  0.1648 -0.3912  0.3619
   13DOPE   H8R 1600   2.381   0.002   6.012  0.1514 -3.0344 -0.4029
   13DOPE   H8S 1601   2.461  -0.101   6.131 -1.6159 -0.6202 -0.3403
   13DOPE   C29 1602   2.584  -0.049   5.966 -0.7717 -0.4775 -0.3400
   13DOPE   H9R 1603   2.674   0.015   5.965  0.2832 -1.8536  1.3551
   13DOPE  C210 1604   2.577  -0.164   5.890 -0.5911  0.0149 -0.0240
   13DOPE  H10R 1605   2.666  -0.183   5.828 -1.5145 -2.6242 -0.6840
   13DOPE  C211 1606   2.482  -0.265   5.863  0.1890  0.5891 -0.4748
   13DOPE  H11R 1607   2.383  -0.240   5.907  0.7820  0.1043  1.2028
   13DOPE  H11S 1608   2.509  -0.353   5.924  2.4041  1.7114  0.2400
   13DOPE  C212 1609   2.452  -0.303   5.716 -0.2968 -0.2289  0.2886
   13DOPE  H12R 1610   2.401  -0.220   5.662  1.4279  1.5604  1.2773
   13DOPE  H12S 1611   2.376  -0.384   5.715 -0.4677 -0.0698 -0.5534
   13DOPE  C213 1612   2.574  -0.361   5.646 -0.5935  0.3532  0.0276
   13DOPE  H13R 1613   2.614  -0.449   5.700  1.7430  0.4897 -1.3542
   13DOPE  H13S 1614   2.653  -0.284   5.635 -0.8032  0.5138 -0.3878
   13DOPE  C214 1615   2.515  -0.390   5.506  0.5239  0.5592 -0.2225
   13DOPE  H14R 1616   2.484  -0.286   5.481 -0.1066  0.4605  0.1303
   13DOPE  H14S 1617   2.431  -0.463   5.510  2.6471 -2.0664 -0.6480
   13DOPE  C215 1618   2.614  -0.441   5.399  0.6499 -0.5689  0.2410
   13DOPE  H15R 1619   2.678  -0.513   5.454  1.2413  0.2730  0.6776
   13DOPE  H15S 1620   2.675  -0.356   5.363 -1.4020  1.9786  2.3524
   13DOPE  C216 1621   2.561  -0.514   5.275  0.5274 -0.2093  0.3760
   13DOPE  H16R 1622   2.494  -0.443   5.224  1.2954 -0.3789 -0.9169
   13DOPE  H16S 1623   2.513  -0.609   5.307 -3.1875  1.7168  1.0807
   13DOPE  C217 1624   2.677  -0.552   5.189  0.3631 -0.0636 -0.2924
   13DOPE  H17R 1625   2.726  -0.630   5.251 -2.0498 -0.4389  1.2545
   13DOPE  H17S 1626   2.742  -0.464   5.174 -1.3470  2.0205  3.3400
   13DOPE  C218 1627   2.644  -0.607   5.046  0.3175  0.7817 -0.4942
   13DOPE  H18R 1628   2.584  -0.700   5.053 -0.0009  0.9272 -1.1973
   13DOPE  H18S 1629   2.734  -0.641   4.990 -0.1424 -1.3273 -0.0399
   13DOPE  H18T 1630   2.586  -0.535   4.984 -1.6576  0.9721  1.4474
   13DOPE   C33 1631   3.557   0.734   6.558 -0.1966 -0.1631  0.6309
   13DOPE   H3X 1632   3.596   0.632   6.575 -0.1117 -0.1991  0.2183
   13DOPE   H3Y 1633   3.629   0.816   6.577 -1.7097  1.5645 -0.6521
   13DOPE   C34 1634   3.513   0.747   6.410 -0.2785  0.0640 -0.2263
   13DOPE   H4X 1635   3.585   0.684   6.354  0.3145 -0.9064  1.5545
   13DOPE   H4Y 1636   3.412   0.705   6.390  0.0452 -1.2837  0.7888
   13DOPE   C35 1637   3.532   0.892   6.347  0.5009  0.4879  0.4902
   13DOPE   H5X 1638   3.637   0.924   6.365  1.0734 -1.2561  0.5216
   13DOPE   H5Y 1639   3.468   0.964   6.402  0.8250  1.8524 -0.8757
   13DOPE   C36 1640   3.509   0.902   6.194  0.7889 -0.2278 -0.5045
   13DOPE   H6X 1641   3.410   0.858   6.172  0.5955 -0.4727  0.7689
   13DOPE   H6Y 1642   3.589   0.838   6.150  0.3641 -1.6329  0.6803
   13DOPE   C37 1643   3.494   1.045   6.144  0.6385 -0.0400  0.2520
   13DOPE   H7X 1644   3.415   1.093   6.205  0.2754  1.5856 -1.3735
   13DOPE   H7Y 1645   3.586   1.108   6.151  0.2162  0.5315  0.8199
   13DOPE   C38 1646   3.440   1.048   5.999 -0.8580  0.7540  0.2372
   13DOPE   H8X 1647   3.413   1.152   5.970  1.3059  1.2153 -0.2673
   13DOPE   H8Y 1648   3.351   0.981   5.998  1.0044 -2.0059  2.2393
   13DOPE   C39 1649   3.540   0.982   5.904 -0.0572  0.2907  0.1941
   13DOPE   H9X 1650   3.554   0.876   5.930  1.0594  0.1452 -0.9306
   13DOPE  C310 1651   3.596   1.029   5.795  0.1401  0.3586  0.6323
   13DOPE  H10X 1652   3.648   0.959   5.729 -0.2928  0.6067  0.0146
   13DOPE  C311 1653   3.581   1.167   5.740  0.6856  0.1783  0.0954
   13DOPE  H11X 1654   3.553   1.245   5.814 -0.8631  0.7821 -1.0750
   13DOPE  H11Y 1655   3.685   1.199   5.721  0.2912  1.8071  0.5111
   13DOPE  C312 1656   3.479   1.188   5.621  0.2226  0.1440 -0.2960
   13DOPE  H12X 1657   3.383   1.207   5.673 -0.7095 -1.2044 -1.4358
   13DOPE  H12Y 1658   3.458   1.098   5.558  0.3463  1.1952 -1.9070
   13DOPE  C313 1659   3.512   1.307   5.539  0.3448 -0.3902  0.1154
   13DOPE  H13X 1660   3.533   1.393   5.606 -0.8562  1.1445 -1.4024
   13DOPE  H13Y 1661   3.609   1.288   5.488  2.1411 -1.9124  3.7216
   13DOPE  C314 1662   3.405   1.355   5.440 -0.2048  0.4264  0.1356
   13DOPE  H14X 1663   3.307   1.332   5.488  0.2665  0.5936  1.1989
   13DOPE  H14Y 1664   3.414   1.292   5.349 -0.1702  1.1974 -0.4044
   13DOPE  C315 1665   3.426   1.504   5.405 -0.1262  0.8534 -0.5433
   13DOPE  H15X 1666   3.526   1.512   5.357 -0.1591 -0.6799 -0.9183
   13DOPE  H15Y 1667   3.415   1.545   5.508 -0.4430  1.1712 -0.7027
   13DOPE  C316 1668   3.325   1.572   5.313 -0.0078 -0.0645 -0.4885
   13DOPE  H16X 1669   3.349   1.535   5.211  0.3942 -0.3461 -0.2917
   13DOPE  H16Y 1670   3.338   1.682   5.322 -2.2824  0.2214  0.0196
   13DOPE  C317 1671   3.175   1.543   5.352 -0.6715  0.4859 -0.5183
   13DOPE  H17X 1672   3.105   1.594   5.283 -3.1782  0.0562  1.5546
   13DOPE  H17Y 1673   3.161   1.433   5.343 -0.5996  0.5395 -1.3508
   13DOPE  C318 1674   3.141   1.580   5.497  0.0353 -0.0517 -0.0886
   13DOPE  H18X 1675   3.033   1.604   5.510 -0.4332 -0.8763 -2.0577
   13DOPE  H18Y 1676   3.147   1.489   5.561 -1.4289 -1.4970 -1.8840
   13DOPE  H18Z 1677   3.212   1.659   5.530  0.8088  0.0157 -1.8282
   14DOPE     N 1678   6.284   4.973   6.826  0.7180  0.0106  0.0894
   14DOPE   HN1 1679   6.190   4.942   6.857  0.0606  2.1802  0.4253
   14DOPE   HN2 1680   6.281   5.076   6.841 -1.7111  0.7351 -4.0110
   14DOPE   HN3 1681   6.284   4.973   6.722 -3.1861  2.5720 -0.1040
   14DOPE   C12 1682   6.389   4.907   6.909  0.2760 -0.3858  0.2884
   14DOPE  H12A 1683   6.487   4.954   6.888 -0.3881  0.4697 -1.0853
   14DOPE  H12B 1684   6.390   4.801   6.876 -2.2857 -0.3443 -0.1795
   14DOPE   C11 1685   6.352   4.923   7.054  0.4632 -0.6563  0.1511
   14DOPE  H11A 1686   6.431   4.867   7.110 -0.0503  0.3810  2.0129
   14DOPE  H11B 1687   6.255   4.872   7.074 -0.0914  0.1465 -0.4365
   14DOPE     P 1688   6.463   5.149   7.148  0.2615 -0.3136 -0.2251
   14DOPE   O13 1689   6.502   5.092   7.281  0.3189 -0.2940  0.0861
   14DOPE   O14 1690   6.408   5.287   7.149  0.4089  0.3446 -0.2790
   14DOPE   O11 1691   6.570   5.128   7.043  0.0159  0.1310  0.0724
   14DOPE   O12 1692   6.343   5.057   7.098  0.4769 -0.5896  0.3922
   14DOPE    C1 1693   6.663   5.231   7.012  0.4901 -0.0983 -0.5829
   14DOPE    HA 1694   6.728   5.259   7.098  0.3602 -2.6669  0.4349
   14DOPE    HB 1695   6.604   5.318   6.974 -0.7116 -0.5874  0.1198
   14DOPE    C2 1696   6.759   5.186   6.901 -0.3441  0.4660  0.2942
   14DOPE    HS 1697   6.848   5.252   6.899 -0.0931  0.1292 -1.8681
   14DOPE   O21 1698   6.711   5.175   6.774  0.6165 -0.1094  0.2859
   14DOPE   C21 1699   6.670   5.283   6.708  0.1739  0.1533  0.4905
   14DOPE   O22 1700   6.662   5.397   6.751 -0.2835 -0.2741 -0.1103
   14DOPE   C22 1701   6.618   5.249   6.565  0.3467 -0.3093  0.1544
   14DOPE   H2R 1702   6.525   5.190   6.570  0.3129 -0.3370 -0.6459
   14DOPE   H2S 1703   6.688   5.181   6.512 -1.6050 -1.1260 -1.4826
   14DOPE    C3 1704   6.816   5.042   6.949 -0.5423  0.2035  0.2277
   14DOPE    HX 1705   6.730   4.973   6.941 -1.5344  1.6047 -2.6716
   14DOPE    HY 1706   6.859   5.042   7.052  0.2128  2.4504 -0.0297
   14DOPE   O31 1707   6.913   4.993   6.851  0.2193  0.3599 -0.6758
   14DOPE   C31 1708   7.035   5.056   6.850  0.6458 -0.0215  0.3488
   14DOPE   O32 1709   7.071   5.133   6.936 -0.2637  0.9710 -0.1148
   14DOPE   C32 1710   7.123   5.008   6.743  0.1573 -0.2627  0.4081
   14DOPE   H2X 1711   7.169   5.096   6.692  0.0537 -2.4546 -3.9573
   14DOPE   H2Y 1712   7.200   4.949   6.796 -1.2241 -0.1465  2.6502
   14DOPE   C23 1713   6.617   5.379   6.482  0.6918 -0.3692 -0.1696
   14DOPE   H3R 1714   6.713   5.435   6.489  0.0250  0.7057  0.6640
   14DOPE   H3S 1715   6.548   5.455   6.524  0.0207 -1.2069  0.2739
   14DOPE   C24 1716   6.571   5.338   6.347  0.5332  0.3909 -0.1368
   14DOPE   H4R 1717   6.501   5.252   6.340 -0.8980  1.5446 -0.6561
   14DOPE   H4S 1718   6.666   5.293   6.313  1.1727  1.9013 -0.4518
   14DOPE   C25 1719   6.532   5.453   6.255 -0.1077  0.3036 -0.2793
   14DOPE   H5R 1720   6.617   5.522   6.232  0.3416  0.5583  1.9459
   14DOPE   H5S 1721   6.444   5.501   6.301 -1.0634 -0.9025 -0.8068
   14DOPE   C26 1722   6.482   5.407   6.117 -0.5256  0.0616 -0.3433
   14DOPE   H6R 1723   6.384   5.357   6.130  0.4640 -1.4810  1.8519
   14DOPE   H6S 1724   6.560   5.340   6.076 -0.8544  1.3045 -3.2800
   14DOPE   C27 1725   6.470   5.517   6.006 -0.7468 -0.4733 -0.1705
   14DOPE   H7R 1726   6.569   5.567   6.000 -1.3350  0.9272  1.2170
   14DOPE   H7S 1727   6.398   5.594   6.039 -0.3350 -0.4354  0.6720
   14DOPE   C28 1728   6.439   5.447   5.871  1.0128 -0.1530 -0.2699
   14DOPE   H8R 1729   6.343   5.397   5.897  0.4690  1.0145  0.0441
   14DOPE   H8S 1730   6.522   5.376   5.853  1.0780 -0.0287 -0.4551
   14DOPE   C29 1731   6.433   5.529   5.743  0.0220  0.0286 -0.0447
   14DOPE   H9R 1732   6.525   5.584   5.718  1.5249 -2.0603  0.5495
   14DOPE  C210 1733   6.324   5.541   5.659  0.2115 -0.1595 -0.1091
   14DOPE  H10R 1734   6.327   5.621   5.584 -1.4828 -1.3532 -1.5297
   14DOPE  C211 1735   6.191   5.489   5.685 -0.4660  0.2502  0.4694
   14DOPE  H11R 1736   6.114   5.565   5.659 -0.4261 -0.2552 -1.2624
   14DOPE  H11S 1737   6.180   5.467   5.793 -0.0686 -2.2439  0.0545
   14DOPE  C212 1738   6.172   5.354   5.600 -0.0152 -0.7690  0.0077
   14DOPE  H12R 1739   6.074   5.311   5.630 -0.0415 -0.3176  0.5951
   14DOPE  H12S 1740   6.252   5.280   5.619 -2.3281 -3.3414  0.2521
   14DOPE  C213 1741   6.162   5.376   5.446  0.3375 -0.1383  0.3655
   14DOPE  H13R 1742   6.256   5.420   5.407 -0.4571  1.0624 -0.2464
   14DOPE  H13S 1743   6.073   5.437   5.423  0.3007 -0.4136 -0.2342
   14DOPE  C214 1744   6.143   5.241   5.378  0.2370  0.8576 -0.7986
   14DOPE  H14R 1745   6.095   5.170   5.450  0.5905  0.4409 -0.9652
   14DOPE  H14S 1746   6.240   5.189   5.364  1.4437  0.5818  5.4404
   14DOPE  C215 1747   6.072   5.247   5.236 -0.2773 -0.6663 -0.4941
   14DOPE  H15R 1748   5.968   5.287   5.241  0.0874  0.8204 -3.0362
   14DOPE  H15S 1749   6.056   5.141   5.207  0.4423 -0.2800 -2.4917
   14DOPE  C216 1750   6.164   5.305   5.126  0.2434 -0.3003  0.4447
   14DOPE  H16R 1751   6.273   5.293   5.141  0.3452 -0.6915 -0.5076
   14DOPE  H16S 1752   6.151   5.416   5.122  0.1473 -0.3461 -1.2612
   14DOPE  C217 1753   6.124   5.264   4.984  0.0603  0.0092  0.9331
   14DOPE  H17R 1754   6.181   5.313   4.902  2.0149 -3.8255 -0.2245
   14DOPE  H17S 1755   6.015   5.279   4.971  0.0231 -0.5548  0.5903
   14DOPE  C218 1756   6.132   5.113   4.945  0.6584  0.2876 -1.1834
   14DOPE  H18R 1757   6.054   5.066   5.010  2.0421 -0.2731  0.1471
   14DOPE  H18S 1758   6.233   5.083   4.981  0.1830 -0.7883 -0.7122
   14DOPE  H18T 1759   6.116   5.098   4.836  2.1428  1.3690 -1.5839
   14DOPE   C33 1760   7.056   4.929   6.628 -0.2333 -0.6523  0.0859
   14DOPE   H3X 1761   6.990   4.995   6.568  0.2431 -0.4516 -0.2278
   14DOPE   H3Y 1762   6.990   4.852   6.672 -3.4463  2.4274  1.0840
   14DOPE   C34 1763   7.158   4.867   6.535 -0.3380 -0.0394 -0.0132
   14DOPE   H4X 1764   7.237   4.940   6.508 -2.4086  1.8239 -1.3557
   14DOPE   H4Y 1765   7.205   4.790   6.600 -1.6703 -1.6733 -0.8990
   14DOPE   C35 1766   7.101   4.791   6.412 -0.1432  0.0054 -0.0245
   14DOPE   H5X 1767   7.037   4.852   6.345 -1.1670 -0.2814  0.6769
   14DOPE   H5Y 1768   7.054   4.695   6.440 -0.4993 -0.6872 -2.7506
   14DOPE   C36 1769   7.225   4.748   6.327  0.6495  0.3552  0.4126
   14DOPE   H6X 1770   7.187   4.669   6.258 -1.0543  4.6751 -4.1801
   14DOPE   H6Y 1771   7.304   4.711   6.395  0.3167  1.8756  1.6826
   14DOPE   C37 1772   7.274   4.866   6.245 -0.4592  0.5189 -0.5421
   14DOPE   H7X 1773   7.193   4.912   6.185 -2.1700 -2.2549 -0.5388
   14DOPE   H7Y 1774   7.312   4.951   6.305  0.0458  1.2232 -1.8114
   14DOPE   C38 1775   7.386   4.835   6.144 -0.4667  0.2724  0.4808
   14DOPE   H8X 1776   7.486   4.816   6.188  0.4875  1.3395 -1.1153
   14DOPE   H8Y 1777   7.415   4.926   6.088 -1.5571  2.1879  2.8605
   14DOPE   C39 1778   7.350   4.728   6.045  0.4469  0.7610 -0.7229
   14DOPE   H9X 1779   7.335   4.626   6.083 -2.6502  0.7946 -1.6214
   14DOPE  C310 1780   7.298   4.754   5.922  0.8541  0.0913  0.6432
   14DOPE  H10X 1781   7.281   4.670   5.852  1.2302  0.2986  0.2971
   14DOPE  C311 1782   7.287   4.891   5.849  1.1351  0.9007  0.0344
   14DOPE  H11X 1783   7.206   4.949   5.900 -0.0245  2.1994 -3.0593
   14DOPE  H11Y 1784   7.377   4.956   5.850  1.3520  0.6003  0.1747
   14DOPE  C312 1785   7.254   4.859   5.704  0.0525 -0.3381 -0.6648
   14DOPE  H12X 1786   7.327   4.787   5.660  0.5188  0.0391 -0.5245
   14DOPE  H12Y 1787   7.268   4.958   5.655 -0.1134  1.8978  3.3310
   14DOPE  C313 1788   7.112   4.806   5.672 -0.9616  0.3110  0.2794
   14DOPE  H13X 1789   7.102   4.704   5.716 -1.5165  0.1428 -0.2182
   14DOPE  H13Y 1790   7.039   4.877   5.718  0.1277  1.4691  0.2776
   14DOPE  C314 1791   7.099   4.797   5.522  0.2406  0.3578  0.2336
   14DOPE  H14X 1792   7.159   4.711   5.485  0.8160  0.4304  0.9670
   14DOPE  H14Y 1793   7.144   4.887   5.474  0.5544 -0.4121 -0.9735
   14DOPE  C315 1794   6.950   4.782   5.482 -0.4698 -0.4404  0.2458
   14DOPE  H15X 1795   6.891   4.874   5.505  0.3195  0.6843 -1.9412
   14DOPE  H15Y 1796   6.914   4.692   5.538  2.2721 -1.7520  0.0535
   14DOPE  C316 1797   6.938   4.772   5.335 -0.2265  0.3354  0.4408
   14DOPE  H16X 1798   6.985   4.676   5.306 -1.4737 -0.4447  0.9026
   14DOPE  H16Y 1799   7.003   4.849   5.289  2.2585 -1.0233  1.5193
   14DOPE  C317 1800   6.796   4.780   5.282 -0.2055  0.1234  1.2620
   14DOPE  H17X 1801   6.755   4.883   5.272  0.7381  0.6606  2.6038
   14DOPE  H17Y 1802   6.796   4.737   5.180 -1.2278 -0.7034  1.5911
   14DOPE  C318 1803   6.696   4.698   5.360 -0.0958 -0.2088  0.1725
   14DOPE  H18X 1804   6.683   4.733   5.465 -1.9307  1.0334 -0.4140
   14DOPE  H18Y 1805   6.594   4.691   5.317  0.3238 -2.3325 -0.6267
   14DOPE  H18Z 1806   6.735   4.594   5.362 -2.3716 -1.1414 -0.4436
   15DOPE     N 1807   0.658   2.121   6.777 -0.4455  0.1979  0.1309
   15DOPE   HN1 1808   0.741   2.180   6.759 -1.1610  1.5441  1.1242
   15DOPE   HN2 1809   0.669   2.054   6.698  1.4832  2.1602 -1.3891
   15DOPE   HN3 1810   0.580   2.186   6.757 -1.0688 -0.1195  1.4441
   15DOPE   C12 1811   0.654   2.063   6.918  0.1889  0.6204 -0.2980
   15DOPE  H12A 1812   0.631   2.142   6.992 -0.6778  1.2412 -1.2020
   15DOPE  H12B 1813   0.752   2.015   6.938 -0.4900 -0.1767  1.2118
   15DOPE   C11 1814   0.541   1.960   6.927 -0.3392 -0.4883 -0.2010
   15DOPE  H11A 1815   0.531   1.949   7.037 -0.5003  0.2772 -0.1339
   15DOPE  H11B 1816   0.572   1.859   6.893 -1.7211 -1.8585  2.3408
   15DOPE     P 1817   0.286   1.922   6.917 -0.3156 -0.0736  0.0434
   15DOPE   O13 1818   0.222   1.994   7.032 -0.1138 -0.0000  0.3542
   15DOPE   O14 1819   0.309   1.781   6.943 -0.1836 -0.3011 -0.1835
   15DOPE   O11 1820   0.201   1.939   6.795  0.4298 -0.1862  0.0288
   15DOPE   O12 1821   0.418   1.999   6.869 -0.2175  0.0278  0.2315
   15DOPE    C1 1822   0.191   1.856   6.683 -0.0959  0.2130 -0.1799
   15DOPE    HA 1823   0.095   1.880   6.633 -0.6954  1.1296  1.3461
   15DOPE    HB 1824   0.187   1.749   6.715  0.4887  0.3048  0.2153
   15DOPE    C2 1825   0.301   1.870   6.570 -0.4326  0.5878 -0.2922
   15DOPE    HS 1826   0.401   1.843   6.611 -1.3510  0.2928  1.9296
   15DOPE   O21 1827   0.298   2.008   6.521  0.3415  0.4138  0.4916
   15DOPE   C21 1828   0.412   2.055   6.473 -0.9114 -0.2392  0.2420
   15DOPE   O22 1829   0.522   1.996   6.479  0.3846  0.2747  0.3875
   15DOPE   C22 1830   0.388   2.178   6.395 -0.2208 -0.4414  0.1494
   15DOPE   H2R 1831   0.475   2.187   6.326  0.3849 -0.6230  0.8722
   15DOPE   H2S 1832   0.379   2.267   6.462 -0.5972  2.3477 -3.3082
   15DOPE    C3 1833   0.276   1.754   6.463 -0.5755 -0.3679 -0.7213
   15DOPE    HX 1834   0.180   1.776   6.411 -1.0750 -0.9873 -0.0691
   15DOPE    HY 1835   0.265   1.655   6.512 -1.0245 -0.3890 -0.8595
   15DOPE   O31 1836   0.383   1.753   6.364  0.2791  0.4056 -0.6729
   15DOPE   C31 1837   0.487   1.669   6.382 -0.2312 -0.1694 -0.0494
   15DOPE   O32 1838   0.500   1.587   6.467 -0.4471  0.9327 -0.1496
   15DOPE   C32 1839   0.585   1.690   6.263 -0.1641  0.1851 -0.4588
   15DOPE   H2X 1840   0.558   1.609   6.193 -0.0778 -0.4776  0.2551
   15DOPE   H2Y 1841   0.559   1.787   6.215  1.4583  1.1620  0.5254
   15DOPE   C23 1842   0.265   2.160   6.303  0.1531  0.0923  0.3757
   15DOPE   H3R 1843   0.180   2.140   6.371  0.8575  0.4468  1.3718
   15DOPE   H3S 1844   0.279   2.070   6.240 -1.2971  0.9061 -1.2133
   15DOPE   C24 1845   0.230   2.287   6.226 -0.5438  0.2983 -0.4557
   15DOPE   H4R 1846   0.317   2.325   6.169 -0.0443 -1.4781 -0.9746
   15DOPE   H4S 1847   0.202   2.370   6.293  2.3494  0.8943  0.1244
   15DOPE   C25 1848   0.119   2.253   6.123  0.5001 -0.0206  0.4502
   15DOPE   H5R 1849   0.059   2.169   6.163  0.2354  0.2098  0.5336
   15DOPE   H5S 1850   0.180   2.214   6.038  1.6045  0.1495  1.1418
   15DOPE   C26 1851   0.028   2.364   6.067  0.3174  0.0726 -0.0330
   15DOPE   H6R 1852   0.063   2.434   5.988 -1.9542  0.6981 -0.5555
   15DOPE   H6S 1853  -0.010   2.420   6.155  1.7357  2.5983 -0.9402
   15DOPE   C27 1854  -0.096   2.301   6.005  0.5906  0.0604 -0.0777
   15DOPE   H7R 1855  -0.169   2.383   5.986  2.0151  1.5859  0.7554
   15DOPE   H7S 1856  -0.148   2.242   6.084 -0.7751  2.7763  1.1864
   15DOPE   C28 1857  -0.082   2.227   5.865 -0.6508  0.2754 -0.1102
   15DOPE   H8R 1858  -0.186   2.200   5.841 -0.6915  0.3950 -0.0712
   15DOPE   H8S 1859  -0.029   2.131   5.881 -0.7884  0.2230  0.0297
   15DOPE   C29 1860  -0.021   2.306   5.754  0.5888  1.0357 -0.5506
   15DOPE   H9R 1861   0.089   2.302   5.752  0.5517 -0.1426 -1.5101
   15DOPE  C210 1862  -0.083   2.384   5.667  0.3293 -0.3660 -0.2317
   15DOPE  H10R 1863  -0.018   2.450   5.608 -1.0737  1.5908  0.3170
   15DOPE  C211 1864  -0.230   2.403   5.666  1.6660 -0.5462 -0.7793
   15DOPE  H11R 1865  -0.249   2.507   5.630  0.5135 -0.3822  0.2466
   15DOPE  H11S 1866  -0.275   2.399   5.767  2.4999 -2.3077 -0.4477
   15DOPE  C212 1867  -0.306   2.298   5.579 -0.3538 -0.8899  0.0644
   15DOPE  H12R 1868  -0.410   2.321   5.550 -0.0198 -1.2907 -1.5455
   15DOPE  H12S 1869  -0.306   2.210   5.647  0.3700 -0.5734  0.4935
   15DOPE  C213 1870  -0.232   2.253   5.452 -0.2691  0.0017  0.3077
   15DOPE  H13R 1871  -0.296   2.176   5.404  1.6371 -1.2693 -0.2838
   15DOPE  H13S 1872  -0.135   2.203   5.469 -0.8437 -1.0999  0.4607
   15DOPE  C214 1873  -0.208   2.367   5.351 -0.9278  0.0739 -0.2189
   15DOPE  H14R 1874  -0.141   2.447   5.388  0.6145 -1.5255  0.6524
   15DOPE  H14S 1875  -0.306   2.410   5.324 -0.9839 -1.1232 -2.2062
   15DOPE  C215 1876  -0.153   2.296   5.220  0.5361  0.3160  0.7443
   15DOPE  H15R 1877  -0.206   2.200   5.199 -0.3738  1.0272 -0.3355
   15DOPE  H15S 1878  -0.044   2.275   5.223  0.7330 -0.8399 -4.5904
   15DOPE  C216 1879  -0.181   2.393   5.103  0.0768 -0.5551  0.5394
   15DOPE  H16R 1880  -0.123   2.483   5.130 -0.0322 -0.0825 -0.6952
   15DOPE  H16S 1881  -0.287   2.422   5.082  0.1157 -0.1200  0.9338
   15DOPE  C217 1882  -0.124   2.339   4.973 -0.4948  0.0720  0.0734
   15DOPE  H17R 1883  -0.182   2.255   4.930  0.7971 -0.3923 -0.8177
   15DOPE  H17S 1884  -0.024   2.292   4.984  0.0530  1.1487 -0.1611
   15DOPE  C218 1885  -0.118   2.447   4.861 -0.6218  0.2390  0.5022
   15DOPE  H18R 1886  -0.033   2.516   4.878  0.3042 -0.9366  0.8283
   15DOPE  H18S 1887  -0.213   2.503   4.849 -0.6327 -0.0906 -1.3985
   15DOPE  H18T 1888  -0.094   2.389   4.769 -2.3615  0.9750 -0.4639
   15DOPE   C33 1889   0.736   1.675   6.306  0.0600 -0.8068  0.7106
   15DOPE   H3X 1890   0.749   1.576   6.356  1.2431 -1.2464 -0.4183
   15DOPE   H3Y 1891   0.761   1.760   6.373 -2.5410  0.8218 -0.2728
   15DOPE   C34 1892   0.830   1.672   6.189  0.3755  0.1143  0.4975
   15DOPE   H4X 1893   0.819   1.577   6.132  2.0921 -1.0125  1.9350
   15DOPE   H4Y 1894   0.795   1.753   6.121 -0.6096 -0.7312 -0.0406
   15DOPE   C35 1895   0.974   1.702   6.236  0.5780  0.7306  0.5913
   15DOPE   H5X 1896   1.000   1.613   6.299  0.8139 -1.0471 -1.8632
   15DOPE   H5Y 1897   0.975   1.793   6.299 -2.1755  0.6566  0.8539
   15DOPE   C36 1898   1.074   1.716   6.117  0.6820  0.0967  0.3921
   15DOPE   H6X 1899   1.080   1.824   6.092  0.4279  0.3104  1.2222
   15DOPE   H6Y 1900   1.033   1.659   6.032 -1.2550  0.1967  1.2155
   15DOPE   C37 1901   1.209   1.670   6.168 -0.6945 -0.2784 -1.0514
   15DOPE   H7X 1902   1.237   1.725   6.260  0.3237  0.0456 -1.5324
   15DOPE   H7Y 1903   1.213   1.564   6.201 -1.8284 -0.9716 -2.9926
   15DOPE   C38 1904   1.319   1.696   6.065  0.2339  0.2273  1.0200
   15DOPE   H8X 1905   1.297   1.636   5.975  1.6528  1.9675 -0.5736
   15DOPE   H8Y 1906   1.415   1.656   6.105  1.0834  0.2121 -0.9357
   15DOPE   C39 1907   1.343   1.847   6.043 -0.0664  0.6972 -0.1257
   15DOPE   H9X 1908   1.390   1.901   6.127  0.8654  0.5415 -0.5358
   15DOPE  C310 1909   1.308   1.916   5.934 -0.0358 -0.6484 -0.3777
   15DOPE  H10X 1910   1.336   2.022   5.924 -2.7515  0.1624 -0.2373
   15DOPE  C311 1911   1.247   1.855   5.814  0.4957  0.0167  0.5523
   15DOPE  H11X 1912   1.303   1.881   5.722  1.1608  0.7252  1.1444
   15DOPE  H11Y 1913   1.245   1.743   5.815 -0.5907  0.0214  1.3005
   15DOPE  C312 1914   1.100   1.898   5.799 -0.2923 -0.5598  0.1591
   15DOPE  H12X 1915   1.100   2.005   5.771 -1.7558 -0.8404 -1.0245
   15DOPE  H12Y 1916   1.038   1.888   5.890  3.6181  2.5056  3.5313
   15DOPE  C313 1917   1.027   1.818   5.699  0.0124 -0.1764  0.1008
   15DOPE  H13X 1918   1.083   1.810   5.603 -2.6454 -2.3675 -1.4218
   15DOPE  H13Y 1919   1.029   1.711   5.731 -1.2666  0.4466  2.5626
   15DOPE  C314 1920   0.882   1.865   5.675  0.0271  0.2159 -0.3694
   15DOPE  H14X 1921   0.886   1.968   5.636  0.1978  0.1959 -0.4085
   15DOPE  H14Y 1922   0.816   1.851   5.763 -0.7265 -0.8089 -1.0821
   15DOPE  C315 1923   0.817   1.790   5.555  0.2553  0.3039  0.2168
   15DOPE  H15X 1924   0.845   1.684   5.567 -1.4079 -0.4678 -2.1731
   15DOPE  H15Y 1925   0.863   1.823   5.460  2.5968  0.8442  1.4485
   15DOPE  C316 1926   0.660   1.788   5.552  0.8030 -0.5577 -0.1385
   15DOPE  H16X 1927   0.623   1.891   5.568  0.7346 -0.3036 -1.7478
   15DOPE  H16Y 1928   0.628   1.721   5.635 -0.2673  2.2101  1.8015
   15DOPE  C317 1929   0.605   1.711   5.422 -0.3734 -0.0172 -0.1039
   15DOPE  H17X 1930   0.654   1.763   5.337  2.0889 -0.0027  1.2489
   15DOPE  H17Y 1931   0.641   1.606   5.432  0.9266  0.4087 -0.1421
   15DOPE  C318 1932   0.456   1.718   5.409  0.1822 -0.0120  0.8145
   15DOPE  H18X 1933   0.420   1.820   5.383 -0.8959 -0.4145  0.6710
   15DOPE  H18Y 1934   0.433   1.649   5.325 -3.7302  0.2520  1.4846
   15DOPE  H18Z 1935   0.395   1.684   5.496  1.2474  0.1141  1.6296
   16DOPE     N 1936   7.490   3.420   7.194  0.1704  0.7722 -0.1422
   16DOPE   HN1 1937   7.581   3.396   7.237 -1.1425 -2.5349  1.1117
   16DOPE   HN2 1938   7.417   3.419   7.268  1.5585  0.4359  1.2767
   16DOPE   HN3 1939   7.471   3.357   7.113  1.7197 -0.0162  0.0774
   16DOPE   C12 1940   7.493   3.563   7.149 -0.3622 -0.2347  0.2000
   16DOPE  H12A 1941   7.473   3.633   7.233 -0.6419 -0.6873  0.5166
   16DOPE  H12B 1942   7.429   3.580   7.060  1.8940 -0.9146 -1.6337
   16DOPE   C11 1943   7.626   3.615   7.080  0.9092  0.7869 -0.3253
   16DOPE  H11A 1944   7.698   3.636   7.161  1.1603 -0.4240 -0.2103
   16DOPE  H11B 1945   7.605   3.707   7.022  0.5880 -0.4837 -2.3289
   16DOPE     P 1946   7.650   3.509   6.848 -0.0865  0.1249  0.0856
   16DOPE   O13 1947   7.667   3.373   6.790  0.0044  0.7324  0.4220
   16DOPE   O14 1948   7.729   3.621   6.786  0.2405 -0.0365 -0.7426
   16DOPE   O11 1949   7.497   3.537   6.838 -0.0501 -0.1657 -0.3268
   16DOPE   O12 1950   7.679   3.505   7.004 -0.7964 -0.0927 -0.6329
   16DOPE    C1 1951   7.444   3.662   6.793 -0.0280  0.0452  0.3253
   16DOPE    HA 1952   7.512   3.743   6.827 -0.7360 -0.1746  2.4372
   16DOPE    HB 1953   7.351   3.681   6.851 -0.5610  2.1376 -1.1042
   16DOPE    C2 1954   7.401   3.665   6.643  0.3887  0.0471  0.3095
   16DOPE    HS 1955   7.347   3.761   6.630 -3.2451 -1.7360  0.8713
   16DOPE   O21 1956   7.314   3.556   6.623  0.1324 -0.3951 -0.3803
   16DOPE   C21 1957   7.267   3.545   6.493  0.0626  0.8254  0.5769
   16DOPE   O22 1958   7.245   3.640   6.422 -0.0847  0.4646  0.2378
   16DOPE   C22 1959   7.228   3.394   6.468 -0.2366 -0.1284 -0.2100
   16DOPE   H2R 1960   7.275   3.342   6.554  0.7104  1.8785  0.5731
   16DOPE   H2S 1961   7.266   3.372   6.366 -1.5523  1.7080 -1.1580
   16DOPE    C3 1962   7.513   3.667   6.536  0.5744  0.2235 -0.5447
   16DOPE    HX 1963   7.600   3.725   6.575  1.6184 -1.4733 -0.2440
   16DOPE    HY 1964   7.476   3.720   6.446 -2.3724 -1.6374 -0.5448
   16DOPE   O31 1965   7.557   3.530   6.512 -0.4929  0.4993  0.1400
   16DOPE   C31 1966   7.682   3.524   6.465 -0.8664  0.0721  0.2883
   16DOPE   O32 1967   7.755   3.621   6.443  0.3303 -0.1959  0.0682
   16DOPE   C32 1968   7.730   3.375   6.443  0.1067 -0.7571  0.4236
   16DOPE   H2X 1969   7.840   3.392   6.441 -0.1363  0.8471 -0.2205
   16DOPE   H2Y 1970   7.694   3.314   6.528  1.8348  0.2401  1.9384
   16DOPE   C23 1971   7.074   3.375   6.477 -0.2163 -0.4771  0.4811
   16DOPE   H3R 1972   7.028   3.425   6.565 -0.6517 -1.8300  1.0491
   16DOPE   H3S 1973   7.066   3.265   6.488  2.9717 -0.8779 -0.1289
   16DOPE   C24 1974   6.992   3.422   6.356  0.7492 -0.3967 -0.7012
   16DOPE   H4R 1975   7.004   3.533   6.356  0.9792 -0.3942  0.8979
   16DOPE   H4S 1976   6.886   3.394   6.377  0.8606 -0.1045  0.2984
   16DOPE   C25 1977   7.028   3.370   6.219  0.1250 -0.0939  0.1791
   16DOPE   H5R 1978   7.025   3.259   6.225 -0.3760 -0.0355  4.7708
   16DOPE   H5S 1979   7.129   3.405   6.190 -0.3536  1.8116  0.6569
   16DOPE   C26 1980   6.942   3.425   6.102 -0.0469 -0.1868 -0.2103
   16DOPE   H6R 1981   6.981   3.525   6.072  1.2279 -0.8171 -0.7253
   16DOPE   H6S 1982   6.840   3.453   6.136 -0.7265  0.5271 -2.6466
   16DOPE   C27 1983   6.958   3.330   5.974  0.3621 -0.3364 -0.5522
   16DOPE   H7R 1984   6.917   3.232   6.006  1.2023 -0.4601  0.1885
   16DOPE   H7S 1985   7.062   3.321   5.936  0.5801  1.3372 -0.4206
   16DOPE   C28 1986   6.883   3.399   5.866  0.2064 -0.4058 -0.2827
   16DOPE   H8R 1987   6.938   3.485   5.823 -0.2369 -0.4830 -1.0152
   16DOPE   H8S 1988   6.789   3.436   5.912 -0.0878  1.5151 -2.2554
   16DOPE   C29 1989   6.838   3.294   5.760  0.8642 -0.3943 -0.7212
   16DOPE   H9R 1990   6.846   3.189   5.793 -1.1376 -0.2501  0.4227
   16DOPE  C210 1991   6.797   3.319   5.636  0.2209  0.4975 -0.1122
   16DOPE  H10R 1992   6.767   3.237   5.569  1.7519 -1.7990  1.7913
   16DOPE  C211 1993   6.784   3.454   5.570 -0.5769  0.4505 -0.3747
   16DOPE  H11R 1994   6.796   3.532   5.648 -1.7537 -1.2652  1.6460
   16DOPE  H11S 1995   6.683   3.463   5.523 -0.6718 -0.4858 -0.3763
   16DOPE  C212 1996   6.883   3.460   5.453 -0.0211 -0.0558  0.1825
   16DOPE  H12R 1997   6.872   3.561   5.408 -0.5439  0.5073  1.5362
   16DOPE  H12S 1998   6.871   3.369   5.389  3.3421 -0.5088  0.0105
   16DOPE  C213 1999   7.033   3.455   5.488  0.0151 -0.0003 -0.1608
   16DOPE  H13R 2000   7.076   3.361   5.528  1.9693  1.2427  0.8676
   16DOPE  H13S 2001   7.042   3.528   5.572  0.7960  0.3536 -0.5421
   16DOPE  C214 2002   7.118   3.498   5.365 -0.4872 -0.5170  0.2264
   16DOPE  H14R 2003   7.089   3.601   5.337 -0.1867  0.6119  3.5765
   16DOPE  H14S 2004   7.082   3.431   5.284 -1.5780  0.9530 -0.5522
   16DOPE  C215 2005   7.267   3.485   5.376 -0.0370  1.0092  0.2592
   16DOPE  H15R 2006   7.291   3.379   5.401 -0.0430  1.0790  0.5736
   16DOPE  H15S 2007   7.298   3.554   5.458  2.9064 -0.2358  0.3356
   16DOPE  C216 2008   7.341   3.517   5.245 -0.1053 -0.5600  0.7405
   16DOPE  H16R 2009   7.310   3.615   5.202  0.9467  0.5676  2.4230
   16DOPE  H16S 2010   7.311   3.446   5.165 -1.3858  0.2035  0.5043
   16DOPE  C217 2011   7.497   3.516   5.262  0.4050  0.2518 -0.0664
   16DOPE  H17R 2012   7.514   3.424   5.320  1.2763 -2.0854 -3.6859
   16DOPE  H17S 2013   7.525   3.607   5.319 -3.4558  0.9263  1.0400
   16DOPE  C218 2014   7.564   3.499   5.126 -0.0528 -0.4238 -0.4065
   16DOPE  H18R 2015   7.567   3.590   5.061  0.8046 -1.2703 -1.5909
   16DOPE  H18S 2016   7.526   3.416   5.063  0.3632 -0.6731 -0.3280
   16DOPE  H18T 2017   7.670   3.476   5.148 -0.0066 -0.9076 -1.1157
   16DOPE   C33 2018   7.669   3.312   6.313 -0.5238  0.4504 -0.4358
   16DOPE   H3X 2019   7.560   3.323   6.333 -0.3344  0.8873  0.3926
   16DOPE   H3Y 2020   7.687   3.203   6.313 -0.6304  0.4231  0.5435
   16DOPE   C34 2021   7.709   3.381   6.182 -0.7756  0.4919  0.4521
   16DOPE   H4X 2022   7.651   3.342   6.096 -1.0265 -0.8727  1.2127
   16DOPE   H4Y 2023   7.687   3.490   6.180  1.1184  0.9385  1.7092
   16DOPE   C35 2024   7.854   3.363   6.149 -0.1155  0.0185 -0.2996
   16DOPE   H5X 2025   7.883   3.261   6.182  0.4905  0.2492 -0.1030
   16DOPE   H5Y 2026   7.905   3.433   6.218 -1.3566  1.1489 -0.4794
   16DOPE   C36 2027   7.906   3.394   6.007 -0.0038 -0.3801 -0.1696
   16DOPE   H6X 2028   8.007   3.435   6.025 -0.9030  1.1683  1.7180
   16DOPE   H6Y 2029   7.835   3.477   5.989  0.2515  0.3014  1.7762
   16DOPE   C37 2030   7.877   3.287   5.900 -0.5515  0.2502 -0.1971
   16DOPE   H7X 2031   7.768   3.270   5.894 -0.2839 -1.4398 -0.6443
   16DOPE   H7Y 2032   7.920   3.325   5.804 -0.5479  1.2050  0.1731
   16DOPE   C38 2033   7.952   3.153   5.925 -0.1913  0.8856 -0.0403
   16DOPE   H8X 2034   7.912   3.077   5.856 -0.1962  0.4785  0.4066
   16DOPE   H8Y 2035   7.928   3.116   6.027 -3.0184 -0.7504 -1.1694
   16DOPE   C39 2036   8.096   3.165   5.902  0.1889 -0.2198  0.3420
   16DOPE   H9X 2037   8.145   3.239   5.967  0.9201 -0.6890  0.3351
   16DOPE  C310 2038   8.165   3.129   5.792 -0.0352  0.1225  0.3449
   16DOPE  H10X 2039   8.274   3.141   5.787  0.2507 -1.4686  1.7517
   16DOPE  C311 2040   8.103   3.041   5.687  0.6084  0.3917  0.6650
   16DOPE  H11X 2041   7.994   3.050   5.665  0.3136  1.6258  2.3747
   16DOPE  H11Y 2042   8.156   3.051   5.591 -2.4017  0.9739 -1.0634
   16DOPE  C312 2043   8.108   2.893   5.740  0.3536  0.2219 -0.6305
   16DOPE  H12X 2044   8.032   2.888   5.821  0.2035  2.4676 -0.5795
   16DOPE  H12Y 2045   8.208   2.859   5.775 -0.2622  0.1303  1.1110
   16DOPE  C313 2046   8.052   2.786   5.638 -0.4480  0.0079 -0.2022
   16DOPE  H13X 2047   8.040   2.690   5.692  1.3394  0.0362  0.3406
   16DOPE  H13Y 2048   7.949   2.811   5.607 -0.7058 -0.7286  0.0359
   16DOPE  C314 2049   8.136   2.768   5.509  0.2885 -0.1369 -0.0217
   16DOPE  H14X 2050   8.237   2.736   5.542 -0.3818 -0.9814  1.3411
   16DOPE  H14Y 2051   8.154   2.864   5.458  1.0747 -1.1703 -1.7842
   16DOPE  C315 2052   8.064   2.679   5.406 -0.1044 -0.0002  0.0968
   16DOPE  H15X 2053   7.955   2.702   5.405  0.2348  1.7800  0.2581
   16DOPE  H15Y 2054   8.075   2.576   5.445 -1.1220 -1.0866 -2.2939
   16DOPE  C316 2055   8.122   2.676   5.270  0.2979 -0.5715 -0.5827
   16DOPE  H16X 2056   8.231   2.655   5.265  0.1772 -1.5913  0.7526
   16DOPE  H16Y 2057   8.122   2.783   5.238 -0.5279 -0.2743  0.3738
   16DOPE  C317 2058   8.049   2.581   5.172  0.3324 -0.6113  0.2984
   16DOPE  H17X 2059   8.095   2.603   5.074  0.1530  0.6901  0.4981
   16DOPE  H17Y 2060   8.067   2.476   5.206  3.5914  0.2164  1.5366
   16DOPE  C318 2061   7.897   2.605   5.149 -0.0074  0.1323  0.8197
   16DOPE  H18X 2062   7.846   2.531   5.084  1.4975 -1.0229  0.8898
   16DOPE  H18Y 2063   7.853   2.596   5.250 -1.6426  1.7835  0.3032
   16DOPE  H18Z 2064   7.875   2.705   5.108 -1.2225 -1.8173 -3.9446
   17DOPE     N 2065   1.905   6.621   7.000 -0.0990  0.0851 -0.1459
   17DOPE   HN1 2066   1.826   6.556   7.020 -0.3240  0.3105 -0.3036
   17DOPE   HN2 2067   1.891   6.712   7.048 -1.1915  1.1063 -2.2618
   17DOPE   HN3 2068   1.911   6.647   6.900  1.4639  2.6262  0.5164
   17DOPE   C12 2069   2.032   6.543   7.028 -0.3143 -0.0347 -0.3113
   17DOPE  H12A 2070   2.030   6.447   6.971 -0.2519  0.0731 -0.4958
   17DOPE  H12B 2071   2.045   6.523   7.136 -1.3131 -1.1950 -0.3826
   17DOPE   C11 2072   2.147   6.633   6.977  0.7058  0.2176  0.1426
   17DOPE  H11A 2073   2.134   6.666   6.872  0.7040  2.3569  0.7690
   17DOPE  H11B 2074   2.241   6.573   6.973  0.4777 -0.1376  0.0371
   17DOPE     P 2075   2.290   6.823   7.073  0.2145 -0.3208  0.1539
   17DOPE   O13 2076   2.394   6.740   7.144 -0.2111 -0.2142  0.0170
   17DOPE   O14 2077   2.259   6.955   7.133 -0.2115 -0.7062 -0.1268
   17DOPE   O11 2078   2.337   6.838   6.923  0.3732  0.0492 -0.1885
   17DOPE   O12 2079   2.148   6.743   7.063  0.7932  0.0819 -0.3782
   17DOPE    C1 2080   2.254   6.910   6.835  0.0470 -0.2463 -0.0117
   17DOPE    HA 2081   2.300   7.011   6.833  2.9687 -1.4334  1.0035
   17DOPE    HB 2082   2.148   6.914   6.867 -0.3033 -1.5842 -0.9004
   17DOPE    C2 2083   2.255   6.865   6.689  0.4803  0.5663  0.2576
   17DOPE    HS 2084   2.195   6.774   6.672  0.3500  0.7135 -0.0832
   17DOPE   O21 2085   2.394   6.862   6.633 -0.0584 -0.0767  0.3788
   17DOPE   C21 2086   2.407   6.783   6.528 -0.2185 -0.2381  0.4933
   17DOPE   O22 2087   2.323   6.702   6.495  0.2968 -0.3441 -0.2373
   17DOPE   C22 2088   2.533   6.821   6.448 -0.3966 -0.1155  0.5348
   17DOPE   H2R 2089   2.621   6.814   6.515 -0.3430  3.7493  1.0429
   17DOPE   H2S 2090   2.519   6.921   6.402  1.2920  0.5614  1.3905
   17DOPE    C3 2091   2.164   6.959   6.605 -0.4373  0.2366  0.0164
   17DOPE    HX 2092   2.199   7.064   6.613 -0.5430  0.1562  2.0764
   17DOPE    HY 2093   2.063   6.967   6.651 -0.5054 -0.6154  0.0317
   17DOPE   O31 2094   2.162   6.931   6.464 -0.1148  0.1048  0.0865
   17DOPE   C31 2095   2.057   6.850   6.430 -0.3622 -0.1088  1.0834
   17DOPE   O32 2096   1.983   6.795   6.508  0.7124  0.3182  0.2317
   17DOPE   C32 2097   2.051   6.849   6.280 -0.1821  0.7250  0.2190
   17DOPE   H2X 2098   2.012   6.947   6.243 -0.9903  0.8285  1.2995
   17DOPE   H2Y 2099   2.152   6.839   6.235  0.0622  2.0349  0.4342
   17DOPE   C23 2100   2.572   6.727   6.326 -0.3557  0.4049 -1.0507
   17DOPE   H3R 2101   2.604   6.630   6.370 -1.7520 -0.3366 -1.5921
   17DOPE   H3S 2102   2.661   6.781   6.287  0.6747  0.8103  1.6834
   17DOPE   C24 2103   2.479   6.739   6.207  0.3830 -0.2575 -0.4745
   17DOPE   H4R 2104   2.459   6.846   6.187 -1.3095 -0.6224 -0.9561
   17DOPE   H4S 2105   2.384   6.688   6.235 -1.5117  2.8873 -0.6921
   17DOPE   C25 2106   2.530   6.661   6.086  0.0498 -0.0316 -0.1805
   17DOPE   H5R 2107   2.548   6.555   6.115  0.1490  0.0926  0.2151
   17DOPE   H5S 2108   2.631   6.690   6.051  0.5966 -1.6416 -0.0186
   17DOPE   C26 2109   2.418   6.665   5.972  0.3277 -0.1616 -0.0985
   17DOPE   H6R 2110   2.326   6.628   6.021  1.0075  0.2949  1.6050
   17DOPE   H6S 2111   2.449   6.596   5.890  0.0325 -0.7188  0.2499
   17DOPE   C27 2112   2.401   6.801   5.906  0.2732  0.7460 -0.5685
   17DOPE   H7R 2113   2.494   6.813   5.846  1.7891 -1.1513  1.2303
   17DOPE   H7S 2114   2.405   6.893   5.969  0.6994  2.0587 -2.4411
   17DOPE   C28 2115   2.282   6.812   5.811  0.5232 -0.2071  0.1809
   17DOPE   H8R 2116   2.183   6.821   5.862  0.4951  1.1054 -0.0592
   17DOPE   H8S 2117   2.274   6.717   5.754 -0.5829 -0.8241  1.3129
   17DOPE   C29 2118   2.309   6.926   5.715  0.4380  0.1170  0.0339
   17DOPE   H9R 2119   2.377   6.897   5.634  0.0654  1.3874 -0.7535
   17DOPE  C210 2120   2.235   7.041   5.692  0.7696  0.6873  0.2020
   17DOPE  H10R 2121   2.262   7.123   5.623 -2.3809  2.0199  0.4244
   17DOPE  C211 2122   2.118   7.079   5.771 -0.0515  0.4682 -0.0628
   17DOPE  H11R 2123   2.101   7.001   5.849 -2.4678  2.9305  2.0881
   17DOPE  H11S 2124   2.024   7.086   5.712 -0.9950  1.0504  1.4351
   17DOPE  C212 2125   2.126   7.199   5.865 -0.1764 -0.0174  0.0666
   17DOPE  H12R 2126   2.028   7.215   5.913 -0.1659 -1.0696  0.4650
   17DOPE  H12S 2127   2.149   7.291   5.806 -0.9487 -1.2858 -2.3509
   17DOPE  C213 2128   2.230   7.202   5.974  0.0902 -0.2586  0.4343
   17DOPE  H13R 2129   2.222   7.307   6.010 -0.0255 -0.1724  0.1610
   17DOPE  H13S 2130   2.325   7.184   5.920 -1.0072 -2.9360 -0.8119
   17DOPE  C214 2131   2.213   7.107   6.098  0.2532  0.2535  0.4589
   17DOPE  H14R 2132   2.208   7.003   6.059 -2.1702  0.0713  1.1079
   17DOPE  H14S 2133   2.126   7.138   6.160  0.9666  2.4160  0.4819
   17DOPE  C215 2134   2.323   7.110   6.196 -0.2679 -0.1898  0.4655
   17DOPE  H15R 2135   2.419   7.077   6.153  0.5393  0.6284  1.5742
   17DOPE  H15S 2136   2.303   7.030   6.272  0.0365 -1.3171 -0.6140
   17DOPE  C216 2137   2.356   7.243   6.258  0.5139 -0.2911  0.0331
   17DOPE  H16R 2138   2.265   7.283   6.308 -1.7563 -2.4714 -2.0502
   17DOPE  H16S 2139   2.393   7.310   6.178  0.2252  1.2425  1.1360
   17DOPE  C217 2140   2.472   7.230   6.358  0.2817  0.8986 -0.0090
   17DOPE  H17R 2141   2.556   7.179   6.306 -2.0088 -0.1498 -3.0131
   17DOPE  H17S 2142   2.448   7.166   6.446  1.4360  0.2691 -0.1334
   17DOPE  C218 2143   2.514   7.365   6.413  0.9403 -0.0415  0.4097
   17DOPE  H18R 2144   2.555   7.431   6.334  1.1221  0.6206  1.0418
   17DOPE  H18S 2145   2.596   7.354   6.487  0.5917  2.1743  1.2015
   17DOPE  H18T 2146   2.428   7.423   6.453  2.4650  2.9022 -0.2693
   17DOPE   C33 2147   1.967   6.738   6.210 -0.9514 -0.4302 -0.4570
   17DOPE   H3X 2148   1.858   6.754   6.228 -1.4984 -2.1330 -2.0219
   17DOPE   H3Y 2149   1.992   6.638   6.251  0.0387  0.2357  0.6240
   17DOPE   C34 2150   1.973   6.734   6.056 -0.1476 -0.0673  0.1599
   17DOPE   H4X 2151   1.983   6.835   6.011 -1.6141  0.1136  0.1818
   17DOPE   H4Y 2152   2.065   6.683   6.022  0.3031  0.3446  0.7280
   17DOPE   C35 2153   1.852   6.674   5.973 -0.7385  0.1186 -0.5845
   17DOPE   H5X 2154   1.758   6.722   6.008  0.0284  1.2771 -0.0399
   17DOPE   H5Y 2155   1.850   6.564   5.988  1.1628  0.1436  0.1635
   17DOPE   C36 2156   1.853   6.695   5.821 -0.4716 -0.4439  0.6231
   17DOPE   H6X 2157   1.950   6.661   5.777 -0.2625 -0.3846  1.0303
   17DOPE   H6Y 2158   1.856   6.806   5.817  1.1429 -0.4727  0.3592
   17DOPE   C37 2159   1.728   6.647   5.752 -0.2510  0.3366 -0.0792
   17DOPE   H7X 2160   1.635   6.685   5.801 -1.7555 -0.1947 -2.3555
   17DOPE   H7Y 2161   1.718   6.699   5.654  0.0673  0.0614 -0.2566
   17DOPE   C38 2162   1.703   6.494   5.729  0.2687 -0.4727 -0.4866
   17DOPE   H8X 2163   1.680   6.439   5.823  0.9689  0.0064 -0.0214
   17DOPE   H8Y 2164   1.803   6.456   5.699  0.6006 -0.5562  0.6563
   17DOPE   C39 2165   1.605   6.469   5.615  0.1435  0.3729 -0.3789
   17DOPE   H9X 2166   1.559   6.559   5.572 -1.6307 -0.7963 -1.0509
   17DOPE  C310 2167   1.592   6.346   5.563 -0.4396 -0.2586 -0.5250
   17DOPE  H10X 2168   1.519   6.318   5.485 -0.4997  0.6618 -0.8117
   17DOPE  C311 2169   1.664   6.218   5.605  0.3879  0.0880  0.3800
   17DOPE  H11X 2170   1.725   6.239   5.696  1.7443  0.3788 -0.5800
   17DOPE  H11Y 2171   1.586   6.142   5.630  1.5550 -0.3201  3.1326
   17DOPE  C312 2172   1.747   6.152   5.489 -0.4739  0.0674 -0.0568
   17DOPE  H12X 2173   1.826   6.214   5.442 -2.5335  1.4032 -1.9298
   17DOPE  H12Y 2174   1.663   6.146   5.417 -1.4488 -0.7795  1.1084
   17DOPE  C313 2175   1.783   6.006   5.534 -0.2526 -0.0782 -0.0769
   17DOPE  H13X 2176   1.855   6.014   5.618 -0.1031 -2.9787  0.1646
   17DOPE  H13Y 2177   1.697   5.953   5.581  0.0011  0.0540  0.5462
   17DOPE  C314 2178   1.851   5.917   5.426  0.9206 -0.1615 -0.0264
   17DOPE  H14X 2179   1.786   5.893   5.340  0.5030 -0.2358  0.3077
   17DOPE  H14Y 2180   1.871   5.820   5.475 -1.5650 -0.9059 -0.3906
   17DOPE  C315 2181   1.992   5.955   5.370 -0.1322 -0.2951 -0.1620
   17DOPE  H15X 2182   2.065   5.973   5.452 -0.2497 -2.0183  0.3534
   17DOPE  H15Y 2183   1.974   6.052   5.318 -2.1734 -1.5839 -2.0354
   17DOPE  C316 2184   2.042   5.858   5.262 -0.3023  0.0988  0.0430
   17DOPE  H16X 2185   1.954   5.843   5.196  0.0236  1.2544 -0.6987
   17DOPE  H16Y 2186   2.069   5.764   5.314  1.0721  1.2721  1.5642
   17DOPE  C317 2187   2.162   5.913   5.172  0.1284  0.6383 -0.4328
   17DOPE  H17X 2188   2.119   5.989   5.103  1.1977 -0.0139 -1.8669
   17DOPE  H17Y 2189   2.246   5.956   5.230  0.5747  0.4515 -0.9409
   17DOPE  C318 2190   2.220   5.807   5.078  0.2019  0.7722 -0.0159
   17DOPE  H18X 2191   2.140   5.763   5.014 -0.6457  1.3481  0.6249
   17DOPE  H18Y 2192   2.304   5.846   5.017  1.5057 -1.5485  0.1682
   17DOPE  H18Z 2193   2.269   5.729   5.139 -1.0405  0.6005  0.8019
   18DOPE     N 2194   0.293   3.728   6.777  0.0710  0.1640 -0.0630
   18DOPE   HN1 2195   0.321   3.696   6.682  0.7821 -3.3744  1.1818
   18DOPE   HN2 2196   0.194   3.700   6.792  0.7733 -1.8899  1.1595
   18DOPE   HN3 2197   0.303   3.830   6.790 -2.4667  0.9628 -3.1528
   18DOPE   C12 2198   0.367   3.635   6.873 -0.2503 -0.3592  0.1598
   18DOPE  H12A 2199   0.373   3.532   6.832 -0.0506  0.0636 -0.9066
   18DOPE  H12B 2200   0.313   3.634   6.970  3.8315 -0.5906  2.6665
   18DOPE   C11 2201   0.510   3.694   6.885 -0.5188  0.1272 -0.2028
   18DOPE  H11A 2202   0.575   3.643   6.960  0.2242  0.9583 -0.2590
   18DOPE  H11B 2203   0.498   3.794   6.932  1.4749  0.6302 -0.6344
   18DOPE     P 2204   0.679   3.620   6.705  0.3318 -0.1661 -0.1434
   18DOPE   O13 2205   0.605   3.516   6.632 -0.0023 -0.1679  0.5151
   18DOPE   O14 2206   0.774   3.574   6.814  0.7983  0.6180  0.1821
   18DOPE   O11 2207   0.756   3.703   6.598  0.2136  0.5103  0.2052
   18DOPE   O12 2208   0.575   3.716   6.761 -0.4949 -0.5268  0.3082
   18DOPE    C1 2209   0.701   3.808   6.514  0.1818  0.2436 -0.6219
   18DOPE    HA 2210   0.790   3.858   6.470  0.5094  1.2002  1.0212
   18DOPE    HB 2211   0.653   3.887   6.576 -0.9104 -0.3437 -0.6800
   18DOPE    C2 2212   0.606   3.754   6.402  0.1239 -0.1732 -0.6274
   18DOPE    HS 2213   0.515   3.705   6.442 -1.2096  1.7543 -1.1433
   18DOPE   O21 2214   0.690   3.668   6.325  0.3605 -0.4579 -0.0524
   18DOPE   C21 2215   0.623   3.560   6.272 -0.0631  0.2203  0.1426
   18DOPE   O22 2216   0.506   3.532   6.281 -0.4740  0.1106 -0.7211
   18DOPE   C22 2217   0.729   3.477   6.196  0.2454 -0.6022 -0.7344
   18DOPE   H2R 2218   0.686   3.386   6.150 -3.3317  0.6738 -0.2588
   18DOPE   H2S 2219   0.794   3.438   6.276  1.5790  0.4060 -1.2860
   18DOPE    C3 2220   0.559   3.865   6.305 -0.1812 -0.3041  0.6313
   18DOPE    HX 2221   0.656   3.895   6.261  1.4612 -2.0004  2.9185
   18DOPE    HY 2222   0.524   3.956   6.358  1.4853  2.1746 -2.2142
   18DOPE   O31 2223   0.473   3.818   6.202 -0.1476 -0.1316 -0.4142
   18DOPE   C31 2224   0.339   3.832   6.212 -0.9613 -0.2251 -0.6388
   18DOPE   O32 2225   0.280   3.884   6.308 -0.0877 -0.5000  0.3039
   18DOPE   C32 2226   0.273   3.753   6.101 -0.4563  0.5229 -0.0532
   18DOPE   H2X 2227   0.311   3.788   6.002  1.1365 -0.5173  0.1534
   18DOPE   H2Y 2228   0.304   3.647   6.116 -1.7344  0.2199  0.6130
   18DOPE   C23 2229   0.808   3.553   6.087 -1.1702 -0.0460  0.0321
   18DOPE   H3R 2230   0.904   3.497   6.082 -1.7311 -0.9811 -0.5109
   18DOPE   H3S 2231   0.825   3.655   6.126 -1.7929 -0.4855  1.5608
   18DOPE   C24 2232   0.734   3.576   5.950  0.9935  0.1596 -0.1501
   18DOPE   H4R 2233   0.714   3.475   5.907  1.2558 -0.6034  1.4250
   18DOPE   H4S 2234   0.805   3.631   5.885  1.5776 -1.0545 -0.5843
   18DOPE   C25 2235   0.599   3.642   5.961 -0.5121 -0.3469 -0.4540
   18DOPE   H5R 2236   0.626   3.740   6.005 -0.5929 -0.1899 -0.7529
   18DOPE   H5S 2237   0.525   3.591   6.026  1.2078  1.1680  2.9758
   18DOPE   C26 2238   0.538   3.676   5.823 -0.2319  0.4645  0.1474
   18DOPE   H6R 2239   0.615   3.727   5.762 -1.1820  1.7263 -0.0140
   18DOPE   H6S 2240   0.461   3.755   5.834 -0.4971  0.5207 -1.7753
   18DOPE   C27 2241   0.481   3.545   5.757 -0.8424 -0.3973 -0.0574
   18DOPE   H7R 2242   0.452   3.483   5.844 -1.4153 -0.2792 -0.1597
   18DOPE   H7S 2243   0.567   3.491   5.712  0.3671  1.0218  0.4448
   18DOPE   C28 2244   0.373   3.582   5.657  0.1097 -0.0650  0.4857
   18DOPE   H8R 2245   0.336   3.485   5.618 -2.3306  1.1857 -0.4820
   18DOPE   H8S 2246   0.410   3.638   5.569  0.7229  0.3627  1.0059
   18DOPE   C29 2247   0.245   3.641   5.719  0.0748 -0.5146  0.2600
   18DOPE   H9R 2248   0.214   3.589   5.811 -0.0597  1.8232  1.6048
   18DOPE  C210 2249   0.162   3.732   5.671  0.1858 -0.4771  0.4260
   18DOPE  H10R 2250   0.072   3.755   5.730  0.8720 -0.1231  1.3600
   18DOPE  C211 2251   0.187   3.811   5.546 -0.9547  0.0538  0.1882
   18DOPE  H11R 2252   0.288   3.855   5.559 -1.0643  1.0468 -1.9446
   18DOPE  H11S 2253   0.116   3.897   5.544 -2.0478 -0.8225  0.0654
   18DOPE  C212 2254   0.184   3.741   5.409 -0.8520  0.0204  0.5174
   18DOPE  H12R 2255   0.090   3.685   5.391 -1.0618  0.7616 -0.7449
   18DOPE  H12S 2256   0.266   3.666   5.417  0.5184  1.4991  1.0350
   18DOPE  C213 2257   0.217   3.829   5.291 -0.3896 -0.3156  0.3131
   18DOPE  H13R 2258   0.320   3.804   5.258 -0.3616 -1.7914  1.4055
   18DOPE  H13S 2259   0.217   3.939   5.308  0.2026 -0.1043 -0.9547
   18DOPE  C214 2260   0.133   3.806   5.169 -0.1682 -0.3414  0.1969
   18DOPE  H14R 2261   0.028   3.785   5.198  0.5816 -1.7804  2.0545
   18DOPE  H14S 2262   0.181   3.714   5.129  1.0833 -0.1726  1.2456
   18DOPE  C215 2263   0.142   3.924   5.075 -0.3198 -0.4171 -0.0053
   18DOPE  H15R 2264   0.246   3.948   5.045 -1.0711  1.1279 -1.5734
   18DOPE  H15S 2265   0.103   4.011   5.131  3.4494 -0.0439  2.3749
   18DOPE  C216 2266   0.071   3.906   4.941  0.2591  0.0099 -0.5271
   18DOPE  H16R 2267   0.109   3.806   4.910  0.5658  0.5797 -2.0948
   18DOPE  H16S 2268   0.103   3.987   4.871 -0.8321  3.4204  2.6152
   18DOPE  C217 2269  -0.082   3.905   4.952 -0.1699 -0.1449  0.2000
   18DOPE  H17R 2270  -0.116   4.003   4.992 -2.0506 -0.7685  0.2271
   18DOPE  H17S 2271  -0.110   3.833   5.031 -0.3681 -0.7268 -0.3914
   18DOPE  C218 2272  -0.140   3.859   4.823  0.8572 -0.3758  0.0293
   18DOPE  H18R 2273  -0.116   3.927   4.739  2.1368 -0.1479  0.5502
   18DOPE  H18S 2274  -0.246   3.830   4.835  0.8430 -0.0555  0.7263
   18DOPE  H18T 2275  -0.084   3.766   4.799  0.0451 -0.8469 -0.0606
   18DOPE   C33 2276   0.121   3.756   6.106  0.4082  0.7565  1.3266
   18DOPE   H3X 2277   0.071   3.749   6.205 -0.2949 -0.4866  0.9087
   18DOPE   H3Y 2278   0.083   3.662   6.060  1.3002  0.9273  0.1969
   18DOPE   C34 2279   0.059   3.876   6.040  0.5290  0.4041 -0.1000
   18DOPE   H4X 2280   0.129   3.961   6.057  1.0071  0.2630 -1.2684
   18DOPE   H4Y 2281   0.058   3.853   5.931  0.3211 -2.6888  0.4705
   18DOPE   C35 2282  -0.087   3.915   6.070 -1.0454  0.2239  0.4256
   18DOPE   H5X 2283  -0.135   3.815   6.071 -0.9383  0.1489 -0.6258
   18DOPE   H5Y 2284  -0.134   3.979   5.992 -2.0720 -0.3960  0.5149
   18DOPE   C36 2285  -0.107   3.984   6.208  0.8283 -0.3228 -1.1629
   18DOPE   H6X 2286  -0.081   4.092   6.211 -1.6803  0.3661 -2.0489
   18DOPE   H6Y 2287  -0.040   3.934   6.281 -1.6174  1.5773  2.7342
   18DOPE   C37 2288  -0.249   3.965   6.254  0.4159 -0.4415 -0.2529
   18DOPE   H7X 2289  -0.315   3.974   6.165  1.7622  1.1758 -1.1495
   18DOPE   H7Y 2290  -0.268   3.868   6.305 -1.5801  1.0923  2.1628
   18DOPE   C38 2291  -0.285   4.073   6.369 -0.4826  0.8516  0.1817
   18DOPE   H8X 2292  -0.266   4.175   6.330  0.3639  0.0854 -1.4972
   18DOPE   H8Y 2293  -0.205   4.047   6.442 -1.7461 -1.9596  0.7232
   18DOPE   C39 2294  -0.426   4.059   6.429 -0.5385  0.7558 -0.1503
   18DOPE   H9X 2295  -0.437   3.955   6.462 -0.2070  0.5769 -0.5797
   18DOPE  C310 2296  -0.514   4.154   6.468 -0.0188 -0.8114 -0.0106
   18DOPE  H10X 2297  -0.599   4.112   6.524 -1.4015 -0.2746 -1.6040
   18DOPE  C311 2298  -0.521   4.293   6.417  0.1239 -0.7701  0.1149
   18DOPE  H11X 2299  -0.555   4.367   6.493 -2.0389  1.1671 -2.5460
   18DOPE  H11Y 2300  -0.423   4.336   6.388 -0.4252 -0.2605 -1.0354
   18DOPE  C312 2301  -0.618   4.306   6.307 -0.2070  0.2542  1.2452
   18DOPE  H12X 2302  -0.649   4.411   6.286  0.9783  0.2698 -0.6404
   18DOPE  H12Y 2303  -0.714   4.254   6.329 -0.2090  0.2635  1.2589
   18DOPE  C313 2304  -0.563   4.255   6.168 -0.2361 -0.0369 -0.9349
   18DOPE  H13X 2305  -0.504   4.162   6.185 -0.8040 -0.0042  1.4914
   18DOPE  H13Y 2306  -0.657   4.229   6.116 -1.6388  0.5511  1.1697
   18DOPE  C314 2307  -0.482   4.353   6.095  0.0812  0.9109  0.1812
   18DOPE  H14X 2308  -0.398   4.398   6.152  1.7553 -1.4662 -0.2329
   18DOPE  H14Y 2309  -0.544   4.437   6.057 -1.7342 -0.9719 -1.2552
   18DOPE  C315 2310  -0.435   4.290   5.954  0.3854 -0.2077 -0.6920
   18DOPE  H15X 2311  -0.513   4.227   5.908 -0.9595 -0.3787  1.6816
   18DOPE  H15Y 2312  -0.346   4.224   5.966  0.8343  0.3371 -0.9272
   18DOPE  C316 2313  -0.378   4.389   5.851  0.4527  0.0018  0.1954
   18DOPE  H16X 2314  -0.286   4.439   5.888 -1.0345  2.2462  1.0656
   18DOPE  H16Y 2315  -0.460   4.463   5.849 -0.3754 -0.8832  0.4950
   18DOPE  C317 2316  -0.349   4.338   5.710 -0.3183  0.2482 -0.3300
   18DOPE  H17X 2317  -0.275   4.256   5.713 -1.7544 -1.1555 -1.5222
   18DOPE  H17Y 2318  -0.444   4.293   5.674 -0.4246 -1.2721  1.7179
   18DOPE  C318 2319  -0.303   4.454   5.624 -1.1407 -0.2286  0.1659
   18DOPE  H18X 2320  -0.397   4.512   5.613 -1.0284  0.0070  0.4452
   18DOPE  H18Y 2321  -0.228   4.520   5.674  0.1924 -1.3037 -0.3498
   18DOPE  H18Z 2322  -0.261   4.427   5.525  1.0130  0.2751  0.8818
   19DOPE     N 2323   6.362   4.285   6.900  0.3093 -0.3256 -0.2229
   19DOPE   HN1 2324   6.420   4.198   6.901  0.8105  0.0080  0.9039
   19DOPE   HN2 2325   6.271   4.268   6.947  0.3926 -1.9108 -0.5735
   19DOPE   HN3 2326   6.333   4.306   6.802 -1.6057  0.5087  0.4722
   19DOPE   C12 2327   6.447   4.391   6.965  0.2767  0.8058  0.0459
   19DOPE  H12A 2328   6.553   4.361   6.948 -0.1015  0.7267 -2.5603
   19DOPE  H12B 2329   6.427   4.395   7.074  4.4763  0.6901  1.0212
   19DOPE   C11 2330   6.401   4.533   6.916  0.3598 -0.3194 -0.3823
   19DOPE  H11A 2331   6.442   4.526   6.813  1.4841  0.2685 -0.0020
   19DOPE  H11B 2332   6.459   4.606   6.978 -1.3251  2.3987 -1.8223
   19DOPE     P 2333   6.170   4.583   6.814 -0.0946 -0.1344  0.2035
   19DOPE   O13 2334   6.041   4.638   6.861  0.1293  0.1666  0.5666
   19DOPE   O14 2335   6.167   4.458   6.732  0.6787  0.7447  0.0978
   19DOPE   O11 2336   6.241   4.696   6.729  0.0665  0.7255  0.1616
   19DOPE   O12 2337   6.260   4.554   6.931 -0.3943  0.0348 -0.3167
   19DOPE    C1 2338   6.313   4.658   6.611  0.1820 -0.1155  0.5929
   19DOPE    HA 2339   6.330   4.548   6.608 -0.9745 -0.3402  1.5437
   19DOPE    HB 2340   6.412   4.707   6.614  2.4928 -4.3218  0.9428
   19DOPE    C2 2341   6.230   4.693   6.483  0.2714  0.2893 -0.5746
   19DOPE    HS 2342   6.232   4.601   6.422  1.0011 -1.7784  2.3714
   19DOPE   O21 2343   6.305   4.788   6.405  0.2059 -0.4939  0.4562
   19DOPE   C21 2344   6.307   4.915   6.447 -0.4401  0.2809 -1.0953
   19DOPE   O22 2345   6.270   4.948   6.558  0.3688 -0.2623 -0.2404
   19DOPE   C22 2346   6.389   4.994   6.342 -0.6876 -0.0976 -0.4259
   19DOPE   H2R 2347   6.494   4.986   6.379 -1.1521 -1.3747  0.7188
   19DOPE   H2S 2348   6.367   5.102   6.355  0.3774  0.0010  0.8046
   19DOPE    C3 2349   6.083   4.728   6.503  0.7125  0.3187 -0.0478
   19DOPE    HX 2350   6.086   4.806   6.581 -1.0765 -0.4901  0.9005
   19DOPE    HY 2351   6.025   4.645   6.548  0.9051  0.2206  0.0221
   19DOPE   O31 2352   6.028   4.775   6.373 -0.3536 -0.5378 -0.0624
   19DOPE   C31 2353   6.000   4.679   6.287  0.0444  0.0936 -0.4119
   19DOPE   O32 2354   5.993   4.559   6.312 -0.7549 -0.3194  0.4074
   19DOPE   C32 2355   5.976   4.746   6.154 -0.5071 -0.1125  0.4529
   19DOPE   H2X 2356   5.900   4.826   6.170 -0.7221 -0.2299  0.0104
   19DOPE   H2Y 2357   6.073   4.786   6.117 -0.1795  0.7900  2.1474
   19DOPE   C23 2358   6.369   4.948   6.199 -0.1854  0.0598  0.3527
   19DOPE   H3R 2359   6.263   4.962   6.167  0.5124 -2.0067 -3.4521
   19DOPE   H3S 2360   6.375   4.838   6.187 -0.6810 -0.0842  1.3355
   19DOPE   C24 2361   6.468   5.018   6.103  0.0097 -0.1366 -0.4457
   19DOPE   H4R 2362   6.569   5.028   6.146  0.6496  1.1280 -2.1057
   19DOPE   H4S 2363   6.446   5.124   6.075  0.6801  0.2310  0.3946
   19DOPE   C25 2364   6.503   4.947   5.976 -0.5004 -0.7840  0.0846
   19DOPE   H5R 2365   6.500   4.837   5.989 -1.3423 -0.7134  0.5188
   19DOPE   H5S 2366   6.604   4.981   5.942  0.2127 -1.6179  1.2923
   19DOPE   C26 2367   6.408   4.993   5.862  0.9663 -0.0868 -0.0504
   19DOPE   H6R 2368   6.420   5.100   5.835  1.7796 -0.0350  0.4935
   19DOPE   H6S 2369   6.302   4.968   5.886  0.1035  3.0153 -0.2883
   19DOPE   C27 2370   6.434   4.914   5.729  0.1097  0.5085 -0.5901
   19DOPE   H7R 2371   6.420   4.812   5.770  1.5627  0.9072  1.0051
   19DOPE   H7S 2372   6.540   4.928   5.701  1.1486  0.9465  2.9834
   19DOPE   C28 2373   6.353   4.946   5.604 -0.3466  0.4068  0.2889
   19DOPE   H8R 2374   6.409   4.909   5.515  0.5342 -1.8516  1.6947
   19DOPE   H8S 2375   6.350   5.057   5.592 -1.8441  0.3690  0.1792
   19DOPE   C29 2376   6.209   4.897   5.603 -0.4971 -0.0565  0.6441
   19DOPE   H9R 2377   6.187   4.850   5.700  2.0840  0.1285  1.4062
   19DOPE  C210 2378   6.143   4.866   5.487  1.1547  0.4785  0.1386
   19DOPE  H10R 2379   6.036   4.840   5.478  1.5909 -0.7977 -1.8236
   19DOPE  C211 2380   6.189   4.912   5.354 -0.1924  0.9486  0.0004
   19DOPE  H11R 2381   6.283   4.970   5.347 -0.3112  1.0323 -1.1572
   19DOPE  H11S 2382   6.121   4.980   5.298 -1.2818 -1.8750 -2.4153
   19DOPE  C212 2383   6.228   4.787   5.271 -0.2776 -0.5833 -0.7663
   19DOPE  H12R 2384   6.136   4.728   5.246 -0.1672 -0.9259 -0.3752
   19DOPE  H12S 2385   6.291   4.714   5.326  2.1899  1.1719 -1.1092
   19DOPE  C213 2386   6.285   4.825   5.136 -0.7544  0.4774 -0.1645
   19DOPE  H13R 2387   6.255   4.930   5.120 -0.1988  0.7024  0.2371
   19DOPE  H13S 2388   6.249   4.757   5.055  0.5472 -2.0866  1.2714
   19DOPE  C214 2389   6.440   4.814   5.126  0.2490 -0.0127  0.1149
   19DOPE  H14R 2390   6.461   4.705   5.133 -1.8143 -0.5374 -1.0695
   19DOPE  H14S 2391   6.490   4.864   5.212  1.6962 -0.1164 -0.6360
   19DOPE  C215 2392   6.480   4.870   4.990  0.1646  0.3885 -0.0872
   19DOPE  H15R 2393   6.429   4.967   4.972  0.1813  0.1952 -1.2367
   19DOPE  H15S 2394   6.442   4.806   4.909  1.4676 -1.1602  0.4723
   19DOPE  C216 2395   6.633   4.885   4.973  0.5597  0.3259 -0.3872
   19DOPE  H16R 2396   6.675   4.782   4.971 -1.5269 -0.5651 -0.8950
   19DOPE  H16S 2397   6.667   4.941   5.063 -0.0843  0.5555 -0.2813
   19DOPE  C217 2398   6.680   4.967   4.849  0.7722  0.3691  0.0038
   19DOPE  H17R 2399   6.791   4.968   4.852  0.7638  0.7742  0.4924
   19DOPE  H17S 2400   6.647   5.072   4.869  3.0315  1.0943  0.2299
   19DOPE  C218 2401   6.621   4.926   4.717 -0.5321  0.2750  0.3664
   19DOPE  H18R 2402   6.644   4.820   4.696  2.7003  0.9037  0.1738
   19DOPE  H18S 2403   6.672   4.985   4.637 -3.0535  0.2934 -1.3173
   19DOPE  H18T 2404   6.513   4.946   4.728 -0.4351  0.0212  2.0218
   19DOPE   C33 2405   5.936   4.645   6.043 -0.2717 -0.4886  0.4129
   19DOPE   H3X 2406   5.843   4.610   6.093 -0.1603 -0.0749  0.9317
   19DOPE   H3Y 2407   6.004   4.558   6.028 -0.7909 -0.6131 -1.3911
   19DOPE   C34 2408   5.910   4.701   5.905 -0.5435 -0.2154 -0.3898
   19DOPE   H4X 2409   5.850   4.792   5.927  0.6351  0.4300  0.2749
   19DOPE   H4Y 2410   5.994   4.730   5.839  0.8395  0.6048  1.6218
   19DOPE   C35 2411   5.823   4.614   5.821 -0.3667  0.1876 -0.0008
   19DOPE   H5X 2412   5.781   4.663   5.731 -0.3717  0.1548 -0.0168
   19DOPE   H5Y 2413   5.729   4.596   5.879 -0.0167  0.5713  0.7037
   19DOPE   C36 2414   5.877   4.480   5.782 -0.6051  0.0753 -0.3485
   19DOPE   H6X 2415   5.942   4.446   5.865  2.3372  0.6868 -2.2667
   19DOPE   H6Y 2416   5.955   4.485   5.703  0.2106  0.0717  0.4525
   19DOPE   C37 2417   5.768   4.372   5.748 -0.1851  0.1188 -0.4472
   19DOPE   H7X 2418   5.695   4.373   5.832  1.0649  0.6480  0.6527
   19DOPE   H7Y 2419   5.722   4.392   5.648 -0.9048 -2.1622 -0.6587
   19DOPE   C38 2420   5.830   4.235   5.717  0.0894 -0.2761 -0.9419
   19DOPE   H8X 2421   5.911   4.219   5.792 -0.5080  2.4857  0.4344
   19DOPE   H8Y 2422   5.881   4.239   5.619 -0.8790  1.5637 -1.4094
   19DOPE   C39 2423   5.735   4.114   5.731  0.4170 -0.1114  0.2595
   19DOPE   H9X 2424   5.644   4.131   5.790  0.3059 -0.1986  0.1134
   19DOPE  C310 2425   5.757   3.995   5.680 -0.0990  0.3013  0.2936
   19DOPE  H10X 2426   5.676   3.921   5.692 -0.0447  0.2189  0.1563
   19DOPE  C311 2427   5.874   3.936   5.608 -0.0374 -0.1546  0.6271
   19DOPE  H11X 2428   5.864   3.825   5.617  0.4041 -0.2983 -0.4647
   19DOPE  H11Y 2429   5.853   3.938   5.499 -2.9421  2.1502  1.0970
   19DOPE  C312 2430   6.017   3.987   5.616  0.2683 -0.5474  0.7079
   19DOPE  H12X 2431   6.027   4.090   5.574 -3.6478 -0.3610 -0.1736
   19DOPE  H12Y 2432   6.078   3.926   5.545 -2.2132 -0.9486 -1.2064
   19DOPE  C313 2433   6.081   3.941   5.744 -0.4856  0.2273  0.0147
   19DOPE  H13X 2434   6.027   3.971   5.837 -3.1108 -0.0436 -1.3135
   19DOPE  H13Y 2435   6.083   3.830   5.747  1.5014  0.2050 -1.0188
   19DOPE  C314 2436   6.224   3.998   5.755  0.3167 -0.0374 -0.3795
   19DOPE  H14X 2437   6.206   4.106   5.735  0.9175  0.2073  0.3500
   19DOPE  H14Y 2438   6.281   3.948   5.674  1.5076 -0.5315  0.7292
   19DOPE  C315 2439   6.295   3.978   5.887  0.2655  0.5626  0.9577
   19DOPE  H15X 2440   6.324   3.872   5.899  3.1724  0.8080 -2.3262
   19DOPE  H15Y 2441   6.214   3.998   5.961 -1.2629  0.4642 -0.6336
   19DOPE  C316 2442   6.421   4.049   5.925 -0.2722  0.2991 -0.3105
   19DOPE  H16X 2443   6.443   4.042   6.034  1.4371  1.2113 -0.5610
   19DOPE  H16Y 2444   6.401   4.157   5.908 -1.9981 -0.1500 -1.3441
   19DOPE  C317 2445   6.545   4.011   5.838  0.2858  0.3586 -0.0968
   19DOPE  H17X 2446   6.582   3.910   5.866 -0.2223  0.2508  0.1897
   19DOPE  H17Y 2447   6.515   4.009   5.731 -1.0195 -2.0881  0.2286
   19DOPE  C318 2448   6.660   4.108   5.858 -0.5231 -0.3236 -0.6274
   19DOPE  H18X 2449   6.667   4.131   5.967 -2.4866 -0.8537 -0.3573
   19DOPE  H18Y 2450   6.759   4.075   5.818 -0.4604  1.4930 -2.1347
   19DOPE  H18Z 2451   6.637   4.205   5.809  0.1105  0.0706 -0.1597
   20DOPE     N 2452   5.451   0.610   7.141 -0.1958 -0.3091 -0.0637
   20DOPE   HN1 2453   5.369   0.611   7.076  1.6516  0.9530 -2.5360
   20DOPE   HN2 2454   5.421   0.544   7.216  1.2398 -0.9290 -0.0018
   20DOPE   HN3 2455   5.455   0.707   7.178  1.3177 -0.3863  0.0264
   20DOPE   C12 2456   5.567   0.546   7.071  0.1983  0.4468 -0.8333
   20DOPE  H12A 2457   5.658   0.563   7.133  0.6514 -0.8610 -1.1097
   20DOPE  H12B 2458   5.578   0.599   6.974 -2.8639  0.4369 -1.2772
   20DOPE   C11 2459   5.551   0.392   7.053  0.4423 -0.5105  0.0825
   20DOPE  H11A 2460   5.651   0.346   7.038  0.3881 -0.6197  0.0568
   20DOPE  H11B 2461   5.490   0.378   6.961 -2.6505  0.5652  1.8406
   20DOPE     P 2462   5.427   0.183   7.156 -0.2575  0.2523 -0.0702
   20DOPE   O13 2463   5.306   0.202   7.239  0.4165  0.4161  0.2959
   20DOPE   O14 2464   5.520   0.076   7.206  0.1213  0.1637 -0.1784
   20DOPE   O11 2465   5.403   0.168   7.002 -0.1328 -0.1200  0.1370
   20DOPE   O12 2466   5.507   0.324   7.166  0.4591 -0.2168 -0.0224
   20DOPE    C1 2467   5.411   0.034   6.950 -0.3241 -0.2178  0.0869
   20DOPE    HA 2468   5.352   0.033   6.855 -1.6312  0.3195  0.8627
   20DOPE    HB 2469   5.368  -0.037   7.024 -0.9156  0.8956  0.8385
   20DOPE    C2 2470   5.559  -0.004   6.915 -0.2276 -0.2173 -0.1779
   20DOPE    HS 2471   5.614   0.003   7.011 -0.4037  2.8874 -0.2082
   20DOPE   O21 2472   5.617   0.087   6.819  0.0125 -0.4406  0.4495
   20DOPE   C21 2473   5.748   0.090   6.817 -0.3697  0.1610 -0.0009
   20DOPE   O22 2474   5.823   0.042   6.902 -0.0667  0.4435 -0.1511
   20DOPE   C22 2475   5.792   0.151   6.683 -0.1654  0.0573  0.4650
   20DOPE   H2R 2476   5.762   0.258   6.681  1.4968  0.5573 -1.0521
   20DOPE   H2S 2477   5.750   0.105   6.591  0.1530  1.8759 -0.6399
   20DOPE    C3 2478   5.576  -0.148   6.870 -0.0217  0.3925  0.5343
   20DOPE    HX 2479   5.536  -0.213   6.951 -0.8680 -3.0684 -2.3653
   20DOPE    HY 2480   5.682  -0.178   6.854  0.0008  0.0608  1.2792
   20DOPE   O31 2481   5.497  -0.169   6.752  0.1080  0.4915  0.0406
   20DOPE   C31 2482   5.565  -0.177   6.635  0.4991  0.0133 -0.2779
   20DOPE   O32 2483   5.679  -0.139   6.618  0.2399 -0.1463  0.7008
   20DOPE   C32 2484   5.459  -0.219   6.527 -0.3614 -0.3872 -0.3248
   20DOPE   H2X 2485   5.429  -0.325   6.541  0.1167 -0.5900 -0.8140
   20DOPE   H2Y 2486   5.367  -0.159   6.540 -0.5823 -1.1716  2.3322
   20DOPE   C23 2487   5.953   0.163   6.671  0.9927  0.4192 -0.8980
   20DOPE   H3R 2488   5.989   0.059   6.684  0.5466  0.3044 -0.5652
   20DOPE   H3S 2489   5.973   0.230   6.757 -0.6512 -1.5304  1.1279
   20DOPE   C24 2490   5.987   0.233   6.543 -0.1816 -0.0111 -0.0903
   20DOPE   H4R 2491   6.085   0.281   6.564  0.8246 -3.0019  2.9319
   20DOPE   H4S 2492   5.924   0.320   6.512  0.5158  0.2933 -0.6846
   20DOPE   C25 2493   5.984   0.127   6.434  0.5358 -0.1315  0.3218
   20DOPE   H5R 2494   5.885   0.077   6.427 -0.5668  1.9431  0.3786
   20DOPE   H5S 2495   6.055   0.045   6.458  0.6996 -0.1028 -0.0583
   20DOPE   C26 2496   6.030   0.186   6.291  0.4805 -0.1373 -0.1619
   20DOPE   H6R 2497   6.125   0.243   6.303 -0.3806  1.3189 -0.0536
   20DOPE   H6S 2498   5.952   0.254   6.251 -1.1245 -0.9455  1.4455
   20DOPE   C27 2499   6.060   0.062   6.206 -0.3183 -0.1170 -0.8025
   20DOPE   H7R 2500   6.140  -0.004   6.245 -1.4622 -1.3515 -0.4529
   20DOPE   H7S 2501   6.104   0.100   6.112 -1.7046 -0.1855 -1.5123
   20DOPE   C28 2502   5.937  -0.022   6.167  0.8787 -0.3353 -0.5493
   20DOPE   H8R 2503   5.903  -0.077   6.257  1.3307 -1.3990 -1.0167
   20DOPE   H8S 2504   5.977  -0.108   6.109 -0.2893 -1.0498 -0.3198
   20DOPE   C29 2505   5.836   0.056   6.094 -0.3048 -0.0883  0.2006
   20DOPE   H9R 2506   5.795   0.140   6.152 -0.5190 -0.0375 -0.0251
   20DOPE  C210 2507   5.781   0.027   5.976 -0.4909  0.4294 -0.0507
   20DOPE  H10R 2508   5.700   0.090   5.935  0.1128  1.6917  0.6700
   20DOPE  C211 2509   5.818  -0.087   5.881  0.9535 -0.0662  0.3957
   20DOPE  H11R 2510   5.725  -0.144   5.863  1.6159 -0.5690 -1.7799
   20DOPE  H11S 2511   5.878  -0.163   5.935  0.4850 -0.6380  0.1209
   20DOPE  C212 2512   5.865  -0.031   5.749  0.1925 -0.3118 -0.1475
   20DOPE  H12R 2513   5.971  -0.002   5.768  0.1238 -0.3568  0.3290
   20DOPE  H12S 2514   5.792   0.045   5.714  0.0372 -0.1141  0.5943
   20DOPE  C213 2515   5.872  -0.134   5.644  0.0812  0.1361  0.2507
   20DOPE  H13R 2516   5.776  -0.160   5.595  0.9174  1.3877 -2.2082
   20DOPE  H13S 2517   5.914  -0.225   5.691  0.9315 -0.5111 -1.6481
   20DOPE  C214 2518   5.970  -0.089   5.539 -0.8041 -0.3229 -0.0577
   20DOPE  H14R 2519   6.073  -0.064   5.573 -0.8931 -2.1697  1.7765
   20DOPE  H14S 2520   5.942   0.009   5.497 -2.5711 -0.5529  0.5126
   20DOPE  C215 2521   5.992  -0.194   5.435  0.1580  0.2248 -0.2279
   20DOPE  H15R 2522   5.916  -0.215   5.356 -0.6705 -1.0243  0.8652
   20DOPE  H15S 2523   6.015  -0.294   5.476 -0.8041 -0.3804 -1.0977
   20DOPE  C216 2524   6.119  -0.166   5.351 -0.3394  0.5538  0.5230
   20DOPE  H16R 2525   6.201  -0.136   5.420  1.1047 -1.8849  0.0022
   20DOPE  H16S 2526   6.091  -0.088   5.277  1.1243 -0.5276 -1.2700
   20DOPE  C217 2527   6.171  -0.289   5.275  0.0207  1.0569 -0.1681
   20DOPE  H17R 2528   6.089  -0.332   5.213  0.0684  0.9031 -0.1229
   20DOPE  H17S 2529   6.198  -0.367   5.349  0.1725  1.6954  0.4700
   20DOPE  C218 2530   6.291  -0.258   5.191  0.2185 -0.5591  0.5029
   20DOPE  H18R 2531   6.334  -0.353   5.153 -1.5348 -1.1094 -0.2203
   20DOPE  H18S 2532   6.366  -0.207   5.255 -0.0608  0.0454  0.3545
   20DOPE  H18T 2533   6.243  -0.197   5.111 -0.3188 -1.7966 -0.1458
   20DOPE   C33 2534   5.525  -0.214   6.386  0.0730 -0.2574 -0.1002
   20DOPE   H3X 2535   5.459  -0.269   6.315 -0.6857  0.5692 -0.0609
   20DOPE   H3Y 2536   5.616  -0.277   6.392  1.0514  0.9029 -1.8046
   20DOPE   C34 2537   5.563  -0.077   6.339  0.0033  0.2223 -0.1289
   20DOPE   H4X 2538   5.623  -0.028   6.418  0.6972  0.4790 -0.8009
   20DOPE   H4Y 2539   5.632  -0.086   6.252  0.0870 -0.1862 -0.0228
   20DOPE   C35 2540   5.448   0.013   6.296  0.1912 -0.7526  0.2196
   20DOPE   H5X 2541   5.382   0.023   6.385  1.2624 -0.9849  1.0499
   20DOPE   H5Y 2542   5.388  -0.042   6.220  0.5756 -0.3277 -0.4073
   20DOPE   C36 2543   5.505   0.135   6.231 -0.3639  0.8383 -0.0696
   20DOPE   H6X 2544   5.535   0.106   6.129  3.7035  0.4587  1.0669
   20DOPE   H6Y 2545   5.603   0.159   6.278  0.6655 -3.8325  0.6569
   20DOPE   C37 2546   5.411   0.256   6.236  0.3437  0.1433  0.0281
   20DOPE   H7X 2547   5.400   0.306   6.335 -1.7194  2.2078 -1.1331
   20DOPE   H7Y 2548   5.455   0.337   6.174  1.7080 -0.7520 -0.2030
   20DOPE   C38 2549   5.262   0.215   6.189  0.2548 -0.1083  0.2807
   20DOPE   H8X 2550   5.223   0.155   6.274  1.2054  0.8954  1.4719
   20DOPE   H8Y 2551   5.257   0.147   6.101 -3.1081 -0.6086  0.6995
   20DOPE   C39 2552   5.178   0.342   6.177  0.0428  0.6491  0.2056
   20DOPE   H9X 2553   5.157   0.396   6.271  0.8967  0.9858  0.2169
   20DOPE  C310 2554   5.118   0.388   6.065  0.0622 -0.1757 -0.2761
   20DOPE  H10X 2555   5.063   0.483   6.069 -1.1983 -0.8810 -0.7148
   20DOPE  C311 2556   5.116   0.315   5.936 -0.2114 -0.7716 -0.4722
   20DOPE  H11X 2557   5.193   0.235   5.930  0.9870  0.1389  1.7608
   20DOPE  H11Y 2558   5.017   0.265   5.928 -0.1342 -1.1586  0.8269
   20DOPE  C312 2559   5.132   0.417   5.817  0.2446  1.1550 -0.3720
   20DOPE  H12X 2560   5.057   0.499   5.824 -1.6303 -0.6091  1.2094
   20DOPE  H12Y 2561   5.102   0.366   5.723  1.9113 -0.4318 -0.1171
   20DOPE  C313 2562   5.275   0.464   5.790 -0.2190 -0.2499  0.4002
   20DOPE  H13X 2563   5.321   0.509   5.881  2.7656 -1.1540 -0.5494
   20DOPE  H13Y 2564   5.347   0.381   5.774 -0.4193 -0.4944  0.7276
   20DOPE  C314 2565   5.290   0.563   5.671  0.0224 -0.4225  0.3283
   20DOPE  H14X 2566   5.389   0.614   5.679 -0.9578  2.1146 -2.2845
   20DOPE  H14Y 2567   5.219   0.648   5.674 -0.3947 -0.6481 -1.6437
   20DOPE  C315 2568   5.265   0.497   5.537  0.1719 -0.3932 -0.2044
   20DOPE  H15X 2569   5.160   0.461   5.539  0.6079 -1.8187 -1.6441
   20DOPE  H15Y 2570   5.325   0.404   5.532  0.8624  0.1065 -2.2029
   20DOPE  C316 2571   5.297   0.585   5.419 -0.1468  0.3871  0.2896
   20DOPE  H16X 2572   5.407   0.595   5.405 -0.5425  1.4320 -2.6312
   20DOPE  H16Y 2573   5.262   0.689   5.436  0.8150  1.4698 -3.3942
   20DOPE  C317 2574   5.234   0.531   5.293 -0.8048  0.5807  0.2600
   20DOPE  H17X 2575   5.123   0.525   5.288 -0.7026 -1.0478 -1.0115
   20DOPE  H17Y 2576   5.247   0.600   5.207  2.1749  0.8538  0.8253
   20DOPE  C318 2577   5.306   0.400   5.245  0.3755 -0.5251  0.0272
   20DOPE  H18X 2578   5.255   0.374   5.150 -2.1370 -0.9500  1.3965
   20DOPE  H18Y 2579   5.416   0.413   5.248  0.4266 -1.1104  0.9808
   20DOPE  H18Z 2580   5.275   0.313   5.305 -1.0129  0.0906  0.2415
   21DOPE     N 2581   2.604   6.816   6.865  0.5766  0.4852  0.3740
   21DOPE   HN1 2582   2.593   6.773   6.958  1.0670 -2.0833 -0.6626
   21DOPE   HN2 2583   2.509   6.829   6.824 -0.2890  0.2579  2.2338
   21DOPE   HN3 2584   2.659   6.743   6.815  1.5676 -0.1258  2.2592
   21DOPE   C12 2585   2.679   6.948   6.861 -0.1766  0.2670  0.2951
   21DOPE  H12A 2586   2.783   6.915   6.881 -0.1220 -0.4054 -0.9729
   21DOPE  H12B 2587   2.650   7.014   6.946  1.7759  1.6817 -0.0525
   21DOPE   C11 2588   2.673   7.025   6.722  0.1650 -0.6225 -0.0862
   21DOPE  H11A 2589   2.570   7.065   6.708  0.8674  0.9502 -1.0060
   21DOPE  H11B 2590   2.690   6.944   6.648  0.9307 -0.8166  0.2880
   21DOPE     P 2591   2.780   7.260   6.805 -0.0029 -0.4007  0.1461
   21DOPE   O13 2592   2.785   7.215   6.942  0.0913 -0.0364 -0.1519
   21DOPE   O14 2593   2.668   7.347   6.760 -0.2401  0.2855 -0.3911
   21DOPE   O11 2594   2.916   7.338   6.771 -0.4243  0.0916 -0.6619
   21DOPE   O12 2595   2.775   7.131   6.713  0.1348  0.4822  0.2505
   21DOPE    C1 2596   2.955   7.355   6.636 -0.7980 -0.2647  0.5686
   21DOPE    HA 2597   2.892   7.429   6.582  1.9630  2.1185  0.3470
   21DOPE    HB 2598   2.962   7.261   6.578  0.1706 -0.2191  0.5835
   21DOPE    C2 2599   3.095   7.418   6.616 -0.3981 -0.2813 -0.1013
   21DOPE    HS 2600   3.174   7.355   6.664  1.4540  1.9245 -0.1090
   21DOPE   O21 2601   3.088   7.547   6.682  0.4029 -0.2265  0.1555
   21DOPE   C21 2602   3.202   7.592   6.729 -0.0386 -0.1522 -0.6078
   21DOPE   O22 2603   3.303   7.529   6.750 -0.3481  0.5118  0.1768
   21DOPE   C22 2604   3.177   7.736   6.760  0.5293 -0.1584  0.4040
   21DOPE   H2R 2605   3.259   7.786   6.816 -1.1926  0.7589  2.2004
   21DOPE   H2S 2606   3.089   7.737   6.827  0.4422 -0.5694  0.2986
   21DOPE    C3 2607   3.127   7.451   6.466  0.1374 -0.2619 -0.3301
   21DOPE    HX 2608   3.056   7.522   6.418 -1.7637 -1.1969  0.9611
   21DOPE    HY 2609   3.124   7.356   6.407  2.7971 -1.1909  0.8813
   21DOPE   O31 2610   3.256   7.505   6.450 -0.2208 -0.2175  0.1975
   21DOPE   C31 2611   3.353   7.417   6.438  0.4027 -0.3365 -0.2121
   21DOPE   O32 2612   3.339   7.295   6.453  0.5979 -0.4954 -0.5433
   21DOPE   C32 2613   3.483   7.479   6.402  0.1073 -0.0660  1.0619
   21DOPE   H2X 2614   3.526   7.528   6.492  0.0586 -1.1412  1.6901
   21DOPE   H2Y 2615   3.555   7.402   6.366 -0.9706 -0.4747 -0.3054
   21DOPE   C23 2616   3.136   7.815   6.640 -0.0852  0.1929 -0.0616
   21DOPE   H3R 2617   3.099   7.912   6.680 -0.5305  1.2805 -2.9268
   21DOPE   H3S 2618   3.054   7.775   6.578  0.0670 -2.0652  1.0804
   21DOPE   C24 2619   3.255   7.846   6.547  0.2118 -0.0228  0.1705
   21DOPE   H4R 2620   3.332   7.767   6.534 -0.3224 -0.5578  0.1975
   21DOPE   H4S 2621   3.305   7.920   6.612 -0.4816 -1.1681  2.0998
   21DOPE   C25 2622   3.219   7.902   6.408 -0.1508  0.2727  0.2444
   21DOPE   H5R 2623   3.311   7.949   6.368  0.3703 -0.1156  0.9658
   21DOPE   H5S 2624   3.146   7.984   6.424  0.1958  0.4300  1.0798
   21DOPE   C26 2625   3.164   7.796   6.313  0.1993 -0.1555 -0.1024
   21DOPE   H6R 2626   3.070   7.752   6.353  2.1594 -2.3610  2.4944
   21DOPE   H6S 2627   3.243   7.717   6.310 -0.1993 -0.5817  0.5371
   21DOPE   C27 2628   3.138   7.850   6.177 -0.4874 -0.3692  0.5861
   21DOPE   H7R 2629   3.225   7.910   6.142 -0.6199 -0.8468 -0.6093
   21DOPE   H7S 2630   3.056   7.923   6.192  1.6759  2.5667 -0.6594
   21DOPE   C28 2631   3.111   7.748   6.068  0.5666  0.5117  0.0235
   21DOPE   H8R 2632   3.200   7.688   6.041  2.7127  3.0688  0.9864
   21DOPE   H8S 2633   3.082   7.805   5.978 -0.9269  0.9704  0.7650
   21DOPE   C29 2634   2.986   7.661   6.104 -0.6942  0.1819  0.3614
   21DOPE   H9R 2635   2.893   7.711   6.137 -1.1099  0.8692 -1.6403
   21DOPE  C210 2636   2.980   7.525   6.109 -0.2115 -0.5600 -0.3591
   21DOPE  H10R 2637   2.887   7.480   6.147 -1.2030  2.2003  0.7137
   21DOPE  C211 2638   3.095   7.429   6.100  0.2428 -1.0848  0.4298
   21DOPE  H11R 2639   3.087   7.353   6.180 -1.3283 -0.7450  0.6232
   21DOPE  H11S 2640   3.190   7.485   6.115  0.4954 -0.8415 -1.7057
   21DOPE  C212 2641   3.117   7.361   5.962 -0.3460 -0.6496  0.0328
   21DOPE  H12R 2642   3.039   7.289   5.931 -1.2990  1.0960 -1.8471
   21DOPE  H12S 2643   3.213   7.307   5.976  0.0885 -0.0592 -0.6059
   21DOPE  C213 2644   3.144   7.461   5.842  0.3653 -0.2805 -0.1569
   21DOPE  H13R 2645   3.197   7.548   5.886 -1.2178  0.6866 -0.0653
   21DOPE  H13S 2646   3.053   7.514   5.807  1.2300  1.9689  0.8064
   21DOPE  C214 2647   3.219   7.398   5.723 -0.7716  0.6942  0.0418
   21DOPE  H14R 2648   3.155   7.312   5.694  1.1914 -0.5174 -0.8707
   21DOPE  H14S 2649   3.318   7.358   5.754 -0.3749 -1.3546 -3.3750
   21DOPE  C215 2650   3.216   7.489   5.598 -0.4942  0.4845 -0.2507
   21DOPE  H15R 2651   3.247   7.591   5.629 -0.6936  0.6483 -0.5786
   21DOPE  H15S 2652   3.110   7.500   5.565 -0.2099 -1.8022 -2.2666
   21DOPE  C216 2653   3.301   7.446   5.476  0.1286 -0.1420  0.5552
   21DOPE  H16R 2654   3.411   7.441   5.489  0.2304  2.6695  1.5083
   21DOPE  H16S 2655   3.280   7.516   5.392  0.3600 -2.0653 -1.1947
   21DOPE  C217 2656   3.266   7.307   5.425  0.3470 -0.2794  0.2218
   21DOPE  H17R 2657   3.295   7.222   5.492  1.3003 -1.1498 -1.2525
   21DOPE  H17S 2658   3.335   7.297   5.339  1.4618  0.9627  0.9223
   21DOPE  C218 2659   3.128   7.284   5.372 -0.4754 -0.1907  0.1103
   21DOPE  H18R 2660   3.109   7.178   5.344 -3.1065 -0.1624  1.4904
   21DOPE  H18S 2661   3.101   7.343   5.282 -1.6343 -0.4283  0.2884
   21DOPE  H18T 2662   3.053   7.312   5.449 -1.3626  0.2437 -0.8856
   21DOPE   C33 2663   3.466   7.579   6.284 -0.0568 -0.1551  0.4305
   21DOPE   H3X 2664   3.424   7.676   6.317 -0.4704  1.1627 -3.4545
   21DOPE   H3Y 2665   3.406   7.533   6.202  0.0847 -1.1084  0.8478
   21DOPE   C34 2666   3.601   7.614   6.216  0.9084  0.3050  0.9685
   21DOPE   H4X 2667   3.674   7.636   6.296  0.2719 -0.9262  1.9113
   21DOPE   H4Y 2668   3.632   7.525   6.158 -2.1257 -0.1906 -0.0673
   21DOPE   C35 2669   3.608   7.735   6.117 -0.6743 -0.2148 -0.0014
   21DOPE   H5X 2670   3.714   7.751   6.089 -0.4640 -0.0305  0.8616
   21DOPE   H5Y 2671   3.559   7.825   6.162 -1.7423 -0.7719 -0.0043
   21DOPE   C36 2672   3.533   7.699   5.988  0.6222 -0.7147 -0.1587
   21DOPE   H6X 2673   3.428   7.680   6.020  1.6660 -3.7234  1.9704
   21DOPE   H6Y 2674   3.587   7.615   5.939  2.3272 -1.2401  2.4346
   21DOPE   C37 2675   3.548   7.811   5.893  0.6825 -0.5034  0.6429
   21DOPE   H7X 2676   3.480   7.890   5.932 -1.8101 -2.3141  0.1998
   21DOPE   H7Y 2677   3.658   7.827   5.881  0.0302  3.4454 -2.2651
   21DOPE   C38 2678   3.492   7.770   5.754 -0.2591  0.3119  0.3547
   21DOPE   H8X 2679   3.388   7.732   5.760 -1.3006  2.3628 -2.4076
   21DOPE   H8Y 2680   3.555   7.686   5.716 -0.7807  0.5703 -1.1467
   21DOPE   C39 2681   3.505   7.885   5.661  0.5917  0.1296  0.1572
   21DOPE   H9X 2682   3.476   7.984   5.699 -1.6684  0.2431 -1.6179
   21DOPE  C310 2683   3.539   7.882   5.527  0.2181  0.4994  0.7323
   21DOPE  H10X 2684   3.546   7.976   5.469 -3.6541  0.1566 -0.6178
   21DOPE  C311 2685   3.562   7.759   5.442 -0.2018  1.0264  0.3648
   21DOPE  H11X 2686   3.514   7.671   5.490 -0.2636  0.3356 -0.9225
   21DOPE  H11Y 2687   3.512   7.778   5.345 -1.6579  1.5383  1.1824
   21DOPE  C312 2688   3.712   7.723   5.419  0.0049  0.4319 -0.5075
   21DOPE  H12X 2689   3.766   7.727   5.515  0.9225  3.3488 -1.0405
   21DOPE  H12Y 2690   3.750   7.804   5.354  1.0873 -0.4032 -0.9443
   21DOPE  C313 2691   3.734   7.586   5.350 -0.2566  0.8633 -0.1470
   21DOPE  H13X 2692   3.677   7.509   5.406 -0.9647 -1.0789 -3.3385
   21DOPE  H13Y 2693   3.688   7.573   5.250  0.2605 -0.3971 -0.2305
   21DOPE  C314 2694   3.879   7.540   5.353  0.2160 -0.3767  0.1165
   21DOPE  H14X 2695   3.921   7.512   5.452 -0.4095 -2.5642 -0.1980
   21DOPE  H14Y 2696   3.945   7.626   5.327 -0.8113  1.1515  2.2450
   21DOPE  C315 2697   3.907   7.418   5.265  0.1167  0.0477 -0.0705
   21DOPE  H15X 2698   4.016   7.397   5.265  0.1902  0.4366  0.0032
   21DOPE  H15Y 2699   3.878   7.424   5.158 -1.3004 -2.2037  0.1122
   21DOPE  C316 2700   3.832   7.295   5.319 -0.4825  0.3438 -0.4955
   21DOPE  H16X 2701   3.727   7.301   5.285 -0.8050 -0.0877  0.3866
   21DOPE  H16Y 2702   3.839   7.308   5.430  0.6325 -0.2636 -0.4788
   21DOPE  C317 2703   3.905   7.167   5.277 -0.0311  0.1990  0.3970
   21DOPE  H17X 2704   3.834   7.083   5.295  2.6585 -2.5383 -0.8012
   21DOPE  H17Y 2705   3.906   7.154   5.166 -0.5694 -2.4689  0.6348
   21DOPE  C318 2706   4.042   7.132   5.330  0.2715  0.5444 -0.7548
   21DOPE  H18X 2707   4.029   7.109   5.438 -0.3278 -0.0314 -0.9445
   21DOPE  H18Y 2708   4.087   7.042   5.283 -0.3164  1.2782 -2.8135
   21DOPE  H18Z 2709   4.121   7.210   5.324  2.1590 -1.2642 -0.5148
   22DOPE     N 2710   0.296   4.885   7.027 -0.5052 -0.3662 -0.1225
   22DOPE   HN1 2711   0.317   4.938   7.115 -2.6309  0.6818 -0.1820
   22DOPE   HN2 2712   0.379   4.860   6.970  1.0751 -0.7380  2.1881
   22DOPE   HN3 2713   0.238   4.947   6.966  0.1165 -0.8031 -1.1694
   22DOPE   C12 2714   0.213   4.763   7.061 -0.5166  0.2837  0.4863
   22DOPE  H12A 2715   0.273   4.709   7.138 -0.2752 -0.3004 -0.1022
   22DOPE  H12B 2716   0.216   4.704   6.967  1.6286 -0.0873  0.7262
   22DOPE   C11 2717   0.078   4.797   7.122  0.2540  0.2678 -0.3594
   22DOPE  H11A 2718   0.040   4.880   7.059  1.2965 -0.9564 -2.7395
   22DOPE  H11B 2719   0.103   4.833   7.224  0.7792 -1.2509  0.0754
   22DOPE     P 2720  -0.119   4.648   7.030 -0.2501 -0.0635 -0.3640
   22DOPE   O13 2721  -0.247   4.711   7.071  0.2596 -0.0351  0.3224
   22DOPE   O14 2722  -0.126   4.500   7.016 -0.3245 -0.3517 -0.0497
   22DOPE   O11 2723  -0.062   4.712   6.902  0.1662 -0.2020  0.4789
   22DOPE   O12 2724   0.000   4.677   7.132 -0.2876 -0.1591  0.0786
   22DOPE    C1 2725  -0.134   4.796   6.813  0.2887 -0.9294  0.2386
   22DOPE    HA 2726  -0.115   4.901   6.845  0.8746 -0.0745 -2.6611
   22DOPE    HB 2727  -0.245   4.789   6.812  0.0717  1.5285  0.2636
   22DOPE    C2 2728  -0.086   4.791   6.667 -0.8588 -1.1620  0.1203
   22DOPE    HS 2729  -0.164   4.849   6.613 -1.5383  0.5251  2.7264
   22DOPE   O21 2730  -0.063   4.651   6.625 -0.0666 -0.3615 -0.3219
   22DOPE   C21 2731  -0.173   4.589   6.611 -0.3835 -0.2052 -0.1870
   22DOPE   O22 2732  -0.284   4.635   6.620  0.0765 -0.3182  0.1545
   22DOPE   C22 2733  -0.140   4.436   6.574  0.0682 -0.3292  0.0214
   22DOPE   H2R 2734  -0.233   4.388   6.535 -0.3126  2.0441 -2.3087
   22DOPE   H2S 2735  -0.094   4.379   6.657 -0.4122 -0.5628  0.1331
   22DOPE    C3 2736   0.047   4.870   6.661  0.3753  0.9407 -0.0888
   22DOPE    HX 2737   0.108   4.829   6.744 -1.6431 -0.5121  0.7509
   22DOPE    HY 2738   0.035   4.979   6.682  0.3829  1.1581 -1.1509
   22DOPE   O31 2739   0.134   4.856   6.548 -0.4504  0.4513  0.4068
   22DOPE   C31 2740   0.108   4.942   6.454  0.5759  0.2520  0.2518
   22DOPE   O32 2741   0.009   5.013   6.448 -0.3501  0.0750  0.3668
   22DOPE   C32 2742   0.215   4.934   6.344 -0.1385 -0.0170  0.8354
   22DOPE   H2X 2743   0.190   5.034   6.303  0.6660 -0.0766  0.1822
   22DOPE   H2Y 2744   0.317   4.925   6.386 -0.0650  0.8656  0.8536
   22DOPE   C23 2745  -0.029   4.438   6.459 -0.4834  0.1296 -0.2929
   22DOPE   H3R 2746   0.010   4.334   6.456  2.0324  1.0170 -0.7032
   22DOPE   H3S 2747   0.055   4.508   6.481 -0.7952 -0.3258  2.8000
   22DOPE   C24 2748  -0.087   4.461   6.313 -0.3237 -0.0083 -0.4936
   22DOPE   H4R 2749  -0.123   4.565   6.305 -1.0138 -0.3377 -2.1154
   22DOPE   H4S 2750  -0.166   4.383   6.306  0.6437 -0.9029 -2.0405
   22DOPE   C25 2751   0.011   4.439   6.199  0.8130 -0.7942 -0.3150
   22DOPE   H5R 2752   0.092   4.368   6.225  2.4192  0.9919 -0.2104
   22DOPE   H5S 2753   0.065   4.533   6.176 -0.0404  0.0879  1.1102
   22DOPE   C26 2754  -0.053   4.388   6.063  0.1877  0.5277 -0.3671
   22DOPE   H6R 2755  -0.100   4.478   6.018 -0.8026  0.4498  0.4711
   22DOPE   H6S 2756  -0.142   4.325   6.084  1.9897 -1.4888  1.7829
   22DOPE   C27 2757   0.042   4.318   5.973 -0.8334  0.2520 -0.5433
   22DOPE   H7R 2758   0.074   4.221   6.016  1.8948  1.3342  0.0960
   22DOPE   H7S 2759   0.130   4.381   5.948 -1.1144  1.3536  1.0942
   22DOPE   C28 2760  -0.023   4.269   5.847  0.0203 -0.1897  0.2071
   22DOPE   H8R 2761  -0.052   4.364   5.798 -0.1197 -0.1886  0.2925
   22DOPE   H8S 2762  -0.117   4.224   5.886 -1.2163  0.9564 -1.3288
   22DOPE   C29 2763   0.050   4.172   5.757 -0.7823  0.8310 -0.3739
   22DOPE   H9R 2764   0.045   4.070   5.797  1.4992 -0.1443 -2.3428
   22DOPE  C210 2765   0.102   4.204   5.638  0.3657  0.4108 -0.5510
   22DOPE  H10R 2766   0.164   4.129   5.587  0.2952 -1.8951  2.4671
   22DOPE  C211 2767   0.112   4.344   5.588 -0.6899  0.1824 -0.1915
   22DOPE  H11R 2768   0.172   4.402   5.662  0.6198 -1.9480  0.5077
   22DOPE  H11S 2769   0.008   4.383   5.601 -0.0724  1.7767  0.1270
   22DOPE  C212 2770   0.145   4.363   5.435 -0.2516 -0.3437  0.2157
   22DOPE  H12R 2771   0.072   4.299   5.380  0.7027 -1.7021  0.4813
   22DOPE  H12S 2772   0.249   4.330   5.413 -1.2074 -2.1355 -2.0640
   22DOPE  C213 2773   0.134   4.507   5.385  0.2216  0.3282  0.3073
   22DOPE  H13R 2774   0.183   4.579   5.453 -1.7398  0.3014  1.8168
   22DOPE  H13S 2775   0.029   4.539   5.372 -0.1413 -0.9844 -0.2283
   22DOPE  C214 2776   0.196   4.522   5.244 -0.2038 -0.3382  0.3985
   22DOPE  H14R 2777   0.303   4.494   5.244  0.0125  0.2100 -2.4134
   22DOPE  H14S 2778   0.183   4.630   5.221  0.5948 -0.3574 -0.1541
   22DOPE  C215 2779   0.136   4.443   5.121  0.3439  0.2703 -0.4761
   22DOPE  H15R 2780   0.036   4.486   5.102 -0.1305  0.4466  2.0626
   22DOPE  H15S 2781   0.109   4.343   5.161 -2.0236  0.6897 -0.8560
   22DOPE  C216 2782   0.234   4.449   5.011 -0.0797  0.4621 -0.0447
   22DOPE  H16R 2783   0.328   4.409   5.055 -0.1182  0.1169 -0.2712
   22DOPE  H16S 2784   0.267   4.551   4.982  0.2882  0.5423  0.6487
   22DOPE  C217 2785   0.196   4.355   4.893 -0.0076 -0.1881 -0.1042
   22DOPE  H17R 2786   0.090   4.366   4.861 -0.0552 -1.7895 -0.6060
   22DOPE  H17S 2787   0.208   4.246   4.912 -1.0755 -0.1165  1.1373
   22DOPE  C218 2788   0.273   4.389   4.767 -0.9474 -0.1591 -0.1846
   22DOPE  H18R 2789   0.251   4.328   4.677 -0.4245  1.4740 -1.4901
   22DOPE  H18S 2790   0.380   4.366   4.788 -1.0717 -1.8410 -1.2666
   22DOPE  H18T 2791   0.258   4.490   4.723 -1.5908 -0.8446 -1.5753
   22DOPE   C33 2792   0.184   4.833   6.229 -0.1222 -0.2421  0.3600
   22DOPE   H3X 2793   0.091   4.870   6.182  0.0527 -1.4046 -0.9608
   22DOPE   H3Y 2794   0.162   4.730   6.267 -0.1162 -0.8924 -1.3148
   22DOPE   C34 2795   0.289   4.824   6.118 -0.5353  0.1109  0.0766
   22DOPE   H4X 2796   0.243   4.767   6.035 -0.8860 -0.9348  0.9606
   22DOPE   H4Y 2797   0.315   4.928   6.089  0.5589  0.3399  1.7584
   22DOPE   C35 2798   0.418   4.762   6.169 -0.4866 -0.4614  0.4958
   22DOPE   H5X 2799   0.396   4.675   6.234 -0.6966 -0.9781 -0.2601
   22DOPE   H5Y 2800   0.472   4.834   6.235  0.1460 -1.3011  0.9024
   22DOPE   C36 2801   0.518   4.727   6.065 -0.2956  0.3181 -0.2693
   22DOPE   H6X 2802   0.607   4.678   6.109 -0.0322  1.3350  0.3594
   22DOPE   H6Y 2803   0.556   4.825   6.029  2.0281 -0.5556 -0.3319
   22DOPE   C37 2804   0.471   4.631   5.953  0.0336  0.4944 -0.5908
   22DOPE   H7X 2805   0.429   4.534   5.988  1.3173  0.3440  0.5907
   22DOPE   H7Y 2806   0.406   4.694   5.888 -0.9424  1.5449  1.3207
   22DOPE   C38 2807   0.585   4.589   5.858  0.4367 -0.2471 -0.0291
   22DOPE   H8X 2808   0.655   4.527   5.918  0.2620  0.2305  0.6755
   22DOPE   H8Y 2809   0.653   4.669   5.820 -0.1724  1.1421  1.6993
   22DOPE   C39 2810   0.540   4.499   5.746 -0.3136  0.0463  0.4065
   22DOPE   H9X 2811   0.575   4.395   5.752 -0.9299 -0.3007 -1.5112
   22DOPE  C310 2812   0.503   4.546   5.632 -0.1049  0.4459  0.5150
   22DOPE  H10X 2813   0.492   4.480   5.545 -1.4371 -0.5335  1.3797
   22DOPE  C311 2814   0.486   4.691   5.596  0.6156  0.0851 -0.4402
   22DOPE  H11X 2815   0.400   4.702   5.527 -1.8292  0.0242  2.4037
   22DOPE  H11Y 2816   0.462   4.756   5.683  1.7310 -0.5690  0.3875
   22DOPE  C312 2817   0.614   4.753   5.536  0.6258 -0.1229  0.5097
   22DOPE  H12X 2818   0.704   4.697   5.569  1.2432  0.1057 -0.7470
   22DOPE  H12Y 2819   0.623   4.857   5.573 -1.7333  0.1681  0.4063
   22DOPE  C313 2820   0.613   4.770   5.383  0.1118 -0.8914  0.3897
   22DOPE  H13X 2821   0.522   4.826   5.353  0.7329 -0.0372  0.0620
   22DOPE  H13Y 2822   0.702   4.829   5.354 -1.1960  1.1745  0.3658
   22DOPE  C314 2823   0.612   4.642   5.294 -0.1808  0.0768  0.0818
   22DOPE  H14X 2824   0.521   4.580   5.310  0.7976 -1.3827  0.2709
   22DOPE  H14Y 2825   0.696   4.575   5.325  0.6207 -0.1478 -2.3159
   22DOPE  C315 2826   0.629   4.675   5.143 -0.2858  0.5092  0.2577
   22DOPE  H15X 2827   0.721   4.737   5.135  1.8868 -2.4305  0.7820
   22DOPE  H15Y 2828   0.537   4.724   5.104 -0.7413  1.7233  2.6741
   22DOPE  C316 2829   0.644   4.554   5.053 -0.0785  0.4502 -0.2645
   22DOPE  H16X 2830   0.562   4.486   5.084  1.3409 -0.6685  1.1016
   22DOPE  H16Y 2831   0.736   4.501   5.083  1.7958  1.8188 -3.1193
   22DOPE  C317 2832   0.645   4.586   4.902 -0.1977  0.1226 -0.0506
   22DOPE  H17X 2833   0.545   4.629   4.880 -0.1189  1.4434  1.9481
   22DOPE  H17Y 2834   0.720   4.667   4.889  1.0256 -0.8400  0.7440
   22DOPE  C318 2835   0.682   4.477   4.801 -0.8555 -0.5433  0.6365
   22DOPE  H18X 2836   0.785   4.439   4.817 -0.0951  0.9613 -0.4024
   22DOPE  H18Y 2837   0.606   4.398   4.786  0.0451 -1.1939 -0.6849
   22DOPE  H18Z 2838   0.681   4.523   4.701 -1.2354 -0.2115  0.7898
   23DOPE     N 2839   3.607   0.264   6.640 -0.3650  0.6320 -0.9276
   23DOPE   HN1 2840   3.527   0.252   6.704  1.5332  2.0180  1.8889
   23DOPE   HN2 2841   3.651   0.170   6.644 -0.3189  0.6876  0.0100
   23DOPE   HN3 2842   3.681   0.329   6.674 -0.9319  0.7633  0.1023
   23DOPE   C12 2843   3.583   0.288   6.495  0.3160  0.7070  0.5540
   23DOPE  H12A 2844   3.530   0.385   6.483  1.1109  0.9086 -1.6825
   23DOPE  H12B 2845   3.518   0.205   6.461  0.5963  0.6669  0.1127
   23DOPE   C11 2846   3.714   0.284   6.409 -0.4455  0.1297  0.0683
   23DOPE  H11A 2847   3.693   0.283   6.300 -1.1682  0.9720  0.1908
   23DOPE  H11B 2848   3.780   0.198   6.433  0.8679  1.3080  0.8072
   23DOPE     P 2849   3.901   0.414   6.538  0.0668 -0.0644 -0.3169
   23DOPE   O13 2850   4.011   0.321   6.501  0.3383  0.2649 -0.3950
   23DOPE   O14 2851   3.832   0.402   6.670 -0.3816  0.3335  0.4544
   23DOPE   O11 2852   3.956   0.566   6.530  0.3134 -0.7695 -0.2435
   23DOPE   O12 2853   3.784   0.410   6.427  0.1146  0.1672  0.2470
   23DOPE    C1 2854   3.897   0.652   6.429  1.0613  0.1017  0.2620
   23DOPE    HA 2855   3.787   0.659   6.445  0.8430 -0.5372 -0.8234
   23DOPE    HB 2856   3.907   0.595   6.333  1.0788 -0.3691  0.5416
   23DOPE    C2 2857   3.977   0.782   6.412 -0.7319 -0.2070 -0.2754
   23DOPE    HS 2858   3.955   0.837   6.505  1.6542  0.5232 -0.0780
   23DOPE   O21 2859   3.935   0.845   6.293 -0.3851  0.5594 -0.1554
   23DOPE   C21 2860   3.979   0.963   6.265 -0.6435  0.2575 -0.6677
   23DOPE   O22 2861   4.048   1.031   6.342  0.0710 -0.4491  0.4316
   23DOPE   C22 2862   3.957   1.000   6.114  0.1328 -0.5556  0.5727
   23DOPE   H2R 2863   4.004   1.099   6.099 -0.2458 -0.7902 -2.8906
   23DOPE   H2S 2864   3.847   1.011   6.103  0.3259  2.1206  0.7895
   23DOPE    C3 2865   4.131   0.758   6.401 -0.3911 -0.5122  0.5620
   23DOPE    HX 2866   4.180   0.697   6.480  0.2384  1.4558  1.7644
   23DOPE    HY 2867   4.171   0.862   6.404 -0.6385 -0.4001  0.0700
   23DOPE   O31 2868   4.151   0.688   6.281  0.1059  0.2410  0.0090
   23DOPE   C31 2869   4.283   0.684   6.232 -0.5558  0.3085 -0.0563
   23DOPE   O32 2870   4.372   0.748   6.281  0.0802  0.0916  0.0181
   23DOPE   C32 2871   4.289   0.587   6.110  0.2374  0.2550 -0.2742
   23DOPE   H2X 2872   4.338   0.492   6.141 -1.2749 -0.4029  0.2270
   23DOPE   H2Y 2873   4.185   0.572   6.074 -0.0998  1.7861  0.0118
   23DOPE   C23 2874   4.012   0.894   6.019  0.3453 -0.0277  0.5179
   23DOPE   H3R 2875   3.979   0.790   6.038  0.1935 -0.4259 -1.6300
   23DOPE   H3S 2876   4.122   0.899   6.028  0.6324 -1.9573 -1.3338
   23DOPE   C24 2877   3.958   0.908   5.874 -0.2647  0.1308  0.4338
   23DOPE   H4R 2878   3.962   1.016   5.846 -0.4661 -0.4525 -2.0847
   23DOPE   H4S 2879   3.850   0.883   5.874 -0.5455  1.2248 -0.7722
   23DOPE   C25 2880   4.041   0.819   5.773 -0.0839 -1.2831  0.5702
   23DOPE   H5R 2881   4.024   0.713   5.802  1.5826 -1.5074  0.8357
   23DOPE   H5S 2882   4.147   0.844   5.795  0.3758 -0.9997 -1.7375
   23DOPE   C26 2883   4.005   0.844   5.621 -0.0103 -0.3309 -0.5813
   23DOPE   H6R 2884   3.959   0.747   5.589 -0.3684 -0.9487  1.6349
   23DOPE   H6S 2885   4.099   0.853   5.563 -0.1656  0.5570 -0.7062
   23DOPE   C27 2886   3.921   0.967   5.591 -0.2680 -0.0026  0.5510
   23DOPE   H7R 2887   3.972   1.059   5.625  1.4905  0.1190 -2.1099
   23DOPE   H7S 2888   3.820   0.956   5.637 -1.2484  1.4467 -1.0994
   23DOPE   C28 2889   3.895   0.974   5.435  0.0090 -0.0389 -0.0236
   23DOPE   H8R 2890   3.996   0.998   5.394 -0.2390  1.4232  0.1706
   23DOPE   H8S 2891   3.824   1.058   5.421 -1.0253 -0.2824  3.0629
   23DOPE   C29 2892   3.829   0.846   5.392 -0.8520 -0.6374  0.0364
   23DOPE   H9R 2893   3.901   0.771   5.358 -0.1384  0.5591 -1.1552
   23DOPE  C210 2894   3.697   0.827   5.367 -0.2909  0.1069  0.0442
   23DOPE  H10R 2895   3.659   0.724   5.358 -0.6001  0.0246  1.9285
   23DOPE  C211 2896   3.588   0.924   5.400  0.1700  0.0781 -0.6672
   23DOPE  H11R 2897   3.613   1.018   5.453 -2.2114 -0.7125  2.1292
   23DOPE  H11S 2898   3.511   0.872   5.462 -0.1228  3.7599  2.4004
   23DOPE  C212 2899   3.523   0.970   5.265  0.8976 -0.6255 -0.0110
   23DOPE  H12R 2900   3.419   1.005   5.283  0.0733 -2.6556 -0.5451
   23DOPE  H12S 2901   3.519   0.882   5.198  0.3873 -0.4819 -0.1752
   23DOPE  C213 2902   3.593   1.087   5.188 -0.6797  0.2046  0.0692
   23DOPE  H13R 2903   3.697   1.054   5.165 -1.3956 -1.6121 -0.7488
   23DOPE  H13S 2904   3.599   1.177   5.252 -0.7671 -0.7390  1.4605
   23DOPE  C214 2905   3.528   1.115   5.053 -0.2234 -0.9568 -0.3258
   23DOPE  H14R 2906   3.422   1.142   5.073  0.6572  2.5187  0.1871
   23DOPE  H14S 2907   3.546   1.019   5.000 -0.4017 -1.3592  0.3277
   23DOPE  C215 2908   3.606   1.236   4.986  0.6691  0.0971  0.0596
   23DOPE  H15R 2909   3.575   1.218   4.881  0.9727  0.1275 -0.0359
   23DOPE  H15S 2910   3.715   1.218   4.979  0.6341 -0.5384  0.9995
   23DOPE  C216 2911   3.576   1.380   5.037  0.1617 -0.0987  0.2354
   23DOPE  H16R 2912   3.606   1.405   5.142 -1.2444  1.7256  0.2496
   23DOPE  H16S 2913   3.465   1.377   5.035  0.1554 -1.3134  1.4047
   23DOPE  C217 2914   3.634   1.488   4.946  0.4789 -0.4792  0.9578
   23DOPE  H17R 2915   3.645   1.464   4.838  0.4948 -1.3946  1.1470
   23DOPE  H17S 2916   3.736   1.500   4.987  0.8156 -2.0849  0.6555
   23DOPE  C218 2917   3.557   1.623   4.970  0.2183  1.1017 -0.6966
   23DOPE  H18R 2918   3.577   1.662   5.072 -1.4425 -0.9816  0.5319
   23DOPE  H18S 2919   3.448   1.604   4.959  0.4650 -0.3960 -0.7825
   23DOPE  H18T 2920   3.593   1.701   4.900 -2.3366  1.1048 -2.1576
   23DOPE   C33 2921   4.366   0.652   5.997  1.0767 -0.1257 -0.6841
   23DOPE   H3X 2922   4.473   0.653   6.024  0.6881 -2.0739  1.2860
   23DOPE   H3Y 2923   4.330   0.757   5.989  0.3576 -0.1921  1.2096
   23DOPE   C34 2924   4.346   0.584   5.862  0.6571 -0.2615  0.4147
   23DOPE   H4X 2925   4.240   0.566   5.833  0.5668  0.2790  0.3897
   23DOPE   H4Y 2926   4.399   0.643   5.784  1.4553 -4.2274 -2.3474
   23DOPE   C35 2927   4.409   0.446   5.850  0.0279 -0.0651 -0.2826
   23DOPE   H5X 2928   4.349   0.366   5.898 -3.3358  2.7339  0.6408
   23DOPE   H5Y 2929   4.512   0.453   5.890 -0.2907  1.7366  0.3463
   23DOPE   C36 2930   4.430   0.400   5.703  0.2394  0.2889  0.5104
   23DOPE   H6X 2931   4.495   0.477   5.657  1.2383 -1.4663 -1.1766
   23DOPE   H6Y 2932   4.339   0.406   5.640  0.7109 -1.3665 -0.3941
   23DOPE   C37 2933   4.492   0.260   5.682  0.3805 -0.6704  0.9225
   23DOPE   H7X 2934   4.592   0.243   5.728  0.5329  0.7556  1.1604
   23DOPE   H7Y 2935   4.421   0.193   5.736 -2.9431  0.0869 -2.1376
   23DOPE   C38 2936   4.503   0.224   5.535  1.0559  0.2131  0.0166
   23DOPE   H8X 2937   4.401   0.208   5.495 -0.0048  3.1051  1.3401
   23DOPE   H8Y 2938   4.547   0.122   5.531  0.1104 -0.1729 -0.8378
   23DOPE   C39 2939   4.580   0.323   5.445  0.8097  0.2042  0.9085
   23DOPE   H9X 2940   4.521   0.411   5.417  1.9051  0.4460 -0.7415
   23DOPE  C310 2941   4.709   0.317   5.399  0.2720 -0.0372  0.8251
   23DOPE  H10X 2942   4.739   0.383   5.317  1.3063  0.3163  1.4715
   23DOPE  C311 2943   4.802   0.199   5.412  0.2699  0.1548  0.1760
   23DOPE  H11X 2944   4.743   0.118   5.460  0.8131  1.4299  3.2360
   23DOPE  H11Y 2945   4.845   0.181   5.311 -0.0088  0.7650 -0.0575
   23DOPE  C312 2946   4.903   0.217   5.522 -0.4296 -0.1556  0.2779
   23DOPE  H12X 2947   4.854   0.263   5.611  0.9251  0.6894  0.6291
   23DOPE  H12Y 2948   4.983   0.283   5.481  0.8581 -0.9299  1.4205
   23DOPE  C313 2949   4.964   0.085   5.573  0.4372  0.7120  0.0157
   23DOPE  H13X 2950   5.056   0.097   5.635  0.1704 -2.8224  1.3109
   23DOPE  H13Y 2951   4.891   0.024   5.630  2.4835 -1.1331  0.8428
   23DOPE  C314 2952   5.018   0.001   5.455 -0.5726  0.6814 -0.4780
   23DOPE  H14X 2953   5.101   0.057   5.406 -0.0714  1.4189  1.1554
   23DOPE  H14Y 2954   4.941  -0.020   5.378 -1.5405 -0.2684  0.7045
   23DOPE  C315 2955   5.083  -0.134   5.490  0.0936  0.0169 -0.5954
   23DOPE  H15X 2956   5.159  -0.117   5.568  0.6193 -0.7341 -0.9368
   23DOPE  H15Y 2957   5.142  -0.170   5.404  2.6415  1.8049  0.2817
   23DOPE  C316 2958   4.976  -0.241   5.541 -0.6663 -0.1603  0.0663
   23DOPE  H16X 2959   4.894  -0.246   5.467 -2.5579 -1.6868  2.1182
   23DOPE  H16Y 2960   4.931  -0.214   5.639  2.3491 -2.8213  2.4040
   23DOPE  C317 2961   5.046  -0.375   5.554  0.2122 -0.5492 -0.0823
   23DOPE  H17X 2962   5.096  -0.406   5.460 -0.2406 -1.1388 -0.1322
   23DOPE  H17Y 2963   5.127  -0.377   5.631 -0.3770 -1.0478  0.5312
   23DOPE  C318 2964   4.956  -0.490   5.590 -0.1361 -0.0261 -0.0762
   23DOPE  H18X 2965   4.885  -0.514   5.509  1.3868  1.4581 -1.9332
   23DOPE  H18Y 2966   5.019  -0.580   5.608 -1.0974 -0.5213  1.0204
   23DOPE  H18Z 2967   4.907  -0.481   5.690  1.2093  0.9909  0.5224
   24DOPE     N 2968   6.344   5.971   7.342  0.3046 -0.2401 -0.9453
   24DOPE   HN1 2969   6.401   6.032   7.280 -0.6466  0.4917 -1.1367
   24DOPE   HN2 2970   6.295   6.033   7.410 -0.0864  0.6057 -1.9602
   24DOPE   HN3 2971   6.416   5.924   7.400 -0.6710  1.9574  2.3278
   24DOPE   C12 2972   6.252   5.878   7.268  0.4757  0.3606 -0.4083
   24DOPE  H12A 2973   6.187   5.830   7.344  0.7131 -0.5540 -0.7721
   24DOPE  H12B 2974   6.304   5.795   7.216  0.2459 -0.5227  0.7271
   24DOPE   C11 2975   6.168   5.949   7.161  0.3609  0.5617 -0.0278
   24DOPE  H11A 2976   6.099   5.882   7.106 -0.6761  2.3788 -1.0384
   24DOPE  H11B 2977   6.238   5.975   7.078  1.0174 -1.7278 -0.2363
   24DOPE     P 2978   6.022   6.161   7.131 -0.2148  0.1633 -0.2915
   24DOPE   O13 2979   6.087   6.295   7.138  0.0162 -0.3908  0.1586
   24DOPE   O14 2980   5.876   6.166   7.156  0.0245 -0.6223 -0.0263
   24DOPE   O11 2981   6.035   6.091   6.980  0.0438  0.4441 -0.3195
   24DOPE   O12 2982   6.097   6.058   7.224  0.2780  0.1596  0.4006
   24DOPE    C1 2983   5.936   6.003   6.933  0.1210  0.1900 -0.0674
   24DOPE    HA 2984   5.864   5.961   7.008  0.7274 -0.1247  0.3458
   24DOPE    HB 2985   5.994   5.911   6.910 -1.9870 -1.6920  1.6020
   24DOPE    C2 2986   5.842   6.057   6.814 -0.2281  0.4274  0.0724
   24DOPE    HS 2987   5.774   5.970   6.800 -1.0763  0.6106  2.5054
   24DOPE   O21 2988   5.927   6.084   6.705  0.4578  0.0867 -0.0202
   24DOPE   C21 2989   5.865   6.067   6.590 -0.4852  0.1337  0.2020
   24DOPE   O22 2990   5.752   6.028   6.565 -0.7165  0.2927 -0.1391
   24DOPE   C22 2991   5.957   6.101   6.473  0.1114 -0.9840 -0.1566
   24DOPE   H2R 2992   6.057   6.055   6.486  0.9073  0.7438  0.2126
   24DOPE   H2S 2993   5.982   6.210   6.474 -1.8650 -0.4891  0.0841
   24DOPE    C3 2994   5.763   6.185   6.861  0.8392  0.8130 -0.9780
   24DOPE    HX 2995   5.842   6.253   6.899  0.2542  0.7982  0.3124
   24DOPE    HY 2996   5.705   6.154   6.951  1.5686 -0.7502 -1.0167
   24DOPE   O31 2997   5.693   6.255   6.761  0.5170  0.3992 -0.3291
   24DOPE   C31 2998   5.606   6.337   6.797 -0.3090 -0.1929  0.1701
   24DOPE   O32 2999   5.568   6.358   6.912 -0.6201 -0.2460  0.6189
   24DOPE   C32 3000   5.554   6.418   6.674  0.4103 -0.9284  0.0698
   24DOPE   H2X 3001   5.493   6.504   6.712 -0.3523 -0.6815 -1.6405
   24DOPE   H2Y 3002   5.643   6.454   6.618  0.7062  1.6826  2.0044
   24DOPE   C23 3003   5.910   6.050   6.334 -0.2288 -0.3693 -0.6087
   24DOPE   H3R 3004   5.809   6.094   6.316  0.7992  2.0312 -0.8988
   24DOPE   H3S 3005   5.904   5.940   6.346 -0.6698 -0.2299  0.6080
   24DOPE   C24 3006   5.993   6.091   6.219 -0.4810 -0.1929 -0.5619
   24DOPE   H4R 3007   5.951   6.032   6.135  0.8422 -2.9373  0.5825
   24DOPE   H4S 3008   6.098   6.060   6.234 -0.8396 -0.7273  1.0502
   24DOPE   C25 3009   5.983   6.236   6.183 -0.3562 -0.1906  0.5684
   24DOPE   H5R 3010   6.016   6.312   6.257  1.0748  1.0508 -1.2490
   24DOPE   H5S 3011   5.877   6.255   6.158  0.4489  1.5410 -1.9920
   24DOPE   C26 3012   6.050   6.253   6.042  0.7046 -0.3478  0.4897
   24DOPE   H6R 3013   6.012   6.173   5.976 -0.1418 -0.4239  1.0500
   24DOPE   H6S 3014   6.158   6.232   6.056  0.4863 -1.7965  0.1378
   24DOPE   C27 3015   6.030   6.394   5.982  0.0011 -0.0282  0.8112
   24DOPE   H7R 3016   5.922   6.419   5.981  0.3112  1.4285  0.9022
   24DOPE   H7S 3017   6.072   6.393   5.880 -0.4009  1.5986  0.5983
   24DOPE   C28 3018   6.100   6.507   6.066 -0.0009  0.4565 -0.4401
   24DOPE   H8R 3019   6.198   6.463   6.095 -0.5468 -0.0807  0.6610
   24DOPE   H8S 3020   6.051   6.526   6.164 -0.6617 -1.0783 -0.4369
   24DOPE   C29 3021   6.115   6.631   5.982  0.2169  0.4279  0.1425
   24DOPE   H9R 3022   6.155   6.601   5.884 -1.2002 -1.9136  0.2122
   24DOPE  C210 3023   6.115   6.760   6.029  0.3784  0.1435  0.3165
   24DOPE  H10R 3024   6.131   6.834   5.949 -1.8568 -2.2414 -2.5324
   24DOPE  C211 3025   6.074   6.810   6.165  0.3998 -0.1745 -0.8883
   24DOPE  H11R 3026   6.163   6.856   6.213  0.9526 -0.5163 -1.5648
   24DOPE  H11S 3027   6.064   6.728   6.240  2.8540  0.6695  0.4789
   24DOPE  C212 3028   5.953   6.908   6.156 -0.3419 -0.2909  0.6272
   24DOPE  H12R 3029   5.869   6.859   6.102 -1.2891  1.7080  0.1944
   24DOPE  H12S 3030   5.986   6.998   6.099 -1.0483 -1.1268 -1.1680
   24DOPE  C213 3031   5.911   6.962   6.293  0.2538 -0.9073 -0.1344
   24DOPE  H13R 3032   5.836   7.043   6.276  0.4205 -0.5798  0.6534
   24DOPE  H13S 3033   6.006   7.000   6.335  1.0326 -0.6431 -2.0283
   24DOPE  C214 3034   5.845   6.858   6.384  0.2548  0.2034 -0.1401
   24DOPE  H14R 3035   5.912   6.769   6.376  0.1777  0.0903  0.4205
   24DOPE  H14S 3036   5.744   6.833   6.345 -0.3010  0.8794  0.8301
   24DOPE  C215 3037   5.830   6.891   6.532 -0.2276  0.0717 -0.2051
   24DOPE  H15R 3038   5.926   6.904   6.585 -0.3815  0.9979 -0.1298
   24DOPE  H15S 3039   5.781   6.807   6.585  1.4383 -0.1860  0.9967
   24DOPE  C216 3040   5.740   7.018   6.572 -0.1797 -0.1518  0.1996
   24DOPE  H16R 3041   5.634   6.998   6.549  0.0617  2.5142 -4.6738
   24DOPE  H16S 3042   5.779   7.099   6.506  0.5692 -2.4609 -2.3272
   24DOPE  C217 3043   5.759   7.066   6.718  0.0273  0.2863  0.2423
   24DOPE  H17R 3044   5.863   7.103   6.732 -0.7197  3.3334 -1.3334
   24DOPE  H17S 3045   5.759   6.977   6.784  1.6330  0.7303  0.9139
   24DOPE  C218 3046   5.658   7.160   6.768  0.0392 -1.2574  0.1500
   24DOPE  H18R 3047   5.648   7.159   6.879  1.2183  2.9367  0.4605
   24DOPE  H18S 3048   5.562   7.141   6.716  0.4091  0.8248 -1.4357
   24DOPE  H18T 3049   5.686   7.265   6.743  1.7317 -1.3793  1.2851
   24DOPE   C33 3050   5.457   6.328   6.598  0.6397 -0.5974 -0.3397
   24DOPE   H3X 3051   5.383   6.273   6.661 -1.0587 -0.6395 -2.2758
   24DOPE   H3Y 3052   5.516   6.253   6.540 -1.0919  0.0252 -3.1085
   24DOPE   C34 3053   5.377   6.391   6.487 -0.0605 -0.1191  0.1660
   24DOPE   H4X 3054   5.339   6.302   6.432  0.4404 -1.5562  2.0172
   24DOPE   H4Y 3055   5.294   6.459   6.516  0.3810  0.5667 -0.1752
   24DOPE   C35 3056   5.465   6.480   6.398 -0.5521 -0.4804 -0.1113
   24DOPE   H5X 3057   5.501   6.571   6.452 -2.7252  0.5987 -0.3643
   24DOPE   H5Y 3058   5.404   6.523   6.315  0.3236  1.0645  0.0064
   24DOPE   C36 3059   5.589   6.417   6.332  0.1806 -0.0973 -0.2290
   24DOPE   H6X 3060   5.548   6.350   6.253 -1.2978  0.3368  0.1555
   24DOPE   H6Y 3061   5.650   6.362   6.407  0.9810  1.8724  0.6277
   24DOPE   C37 3062   5.700   6.508   6.269  0.7753  0.4256  0.1475
   24DOPE   H7X 3063   5.743   6.566   6.354  2.5939  2.1902 -1.8902
   24DOPE   H7Y 3064   5.777   6.441   6.226  0.8523 -0.9310  2.2255
   24DOPE   C38 3065   5.649   6.613   6.171 -0.1720 -0.1647 -0.5606
   24DOPE   H8X 3066   5.730   6.684   6.142 -1.8804  2.3021  0.3746
   24DOPE   H8Y 3067   5.580   6.669   6.238 -2.0931 -1.6940 -1.1895
   24DOPE   C39 3068   5.575   6.552   6.049 -0.7365  0.3658 -0.2996
   24DOPE   H9X 3069   5.483   6.497   6.075  0.1247 -2.5212 -2.8543
   24DOPE  C310 3070   5.607   6.562   5.920  0.0265 -0.4634 -0.0244
   24DOPE  H10X 3071   5.548   6.512   5.841  2.0380 -1.2959 -1.0973
   24DOPE  C311 3072   5.720   6.630   5.844 -0.3750 -0.0207 -0.9656
   24DOPE  H11X 3073   5.795   6.675   5.913 -1.3513  2.1371 -1.2360
   24DOPE  H11Y 3074   5.780   6.546   5.803  0.1336  1.0704 -2.5681
   24DOPE  C312 3075   5.688   6.737   5.742 -0.4330  0.0165  0.5757
   24DOPE  H12X 3076   5.648   6.833   5.782 -0.7924  0.1896 -0.1772
   24DOPE  H12Y 3077   5.624   6.700   5.659 -1.0236  1.2556  0.4598
   24DOPE  C313 3078   5.832   6.773   5.685  0.7656  0.2603 -0.4966
   24DOPE  H13X 3079   5.901   6.805   5.766  1.3245 -2.2760  0.1226
   24DOPE  H13Y 3080   5.878   6.693   5.624  0.7957 -0.1868  0.1008
   24DOPE  C314 3081   5.835   6.903   5.606  0.2936  0.4501  0.1403
   24DOPE  H14X 3082   5.937   6.919   5.567  0.1213  0.1795 -0.4372
   24DOPE  H14Y 3083   5.819   6.992   5.670 -0.0489  0.2386  0.3561
   24DOPE  C315 3084   5.750   6.918   5.480 -0.1138  0.3897  0.1687
   24DOPE  H15X 3085   5.645   6.934   5.513 -0.1285 -1.2207  1.0086
   24DOPE  H15Y 3086   5.758   6.827   5.416 -0.0332  1.3840 -1.2732
   24DOPE  C316 3087   5.808   7.045   5.403 -0.6293  0.0530  0.7762
   24DOPE  H16X 3088   5.919   7.042   5.405 -0.5534 -0.4819 -1.4105
   24DOPE  H16Y 3089   5.770   7.139   5.449 -2.1626  0.5628 -1.3450
   24DOPE  C317 3090   5.789   7.031   5.252  0.1655 -0.3981 -0.8018
   24DOPE  H17X 3091   5.829   6.933   5.220  4.1054  0.9407 -0.5513
   24DOPE  H17Y 3092   5.680   7.048   5.235  0.3200  2.9356  0.5958
   24DOPE  C318 3093   5.852   7.149   5.170  0.1586  0.4777  0.5737
   24DOPE  H18X 3094   5.839   7.128   5.062  0.2683  1.5573  0.3428
   24DOPE  H18Y 3095   5.802   7.246   5.191  1.3828  1.6517 -1.5394
   24DOPE  H18Z 3096   5.961   7.160   5.191 -0.0273  1.1441  1.2118
   25DOPE     N 3097   7.442   5.207   7.168  0.0413 -0.0430 -0.1492
   25DOPE   HN1 3098   7.475   5.301   7.138 -3.0975  0.0625 -4.0849
   25DOPE   HN2 3099   7.373   5.206   7.246  0.3119  0.1801  0.0898
   25DOPE   HN3 3100   7.526   5.161   7.209  0.7213  1.5329  0.2903
   25DOPE   C12 3101   7.372   5.137   7.058 -0.0244 -0.0401  0.0426
   25DOPE  H12A 3102   7.285   5.197   7.027 -0.0134  0.0296  0.1447
   25DOPE  H12B 3103   7.329   5.042   7.097  3.3733 -1.7852 -0.0701
   25DOPE   C11 3104   7.464   5.132   6.938 -0.2017 -0.0389  0.3668
   25DOPE  H11A 3105   7.462   5.232   6.889 -0.0672 -0.2068  0.0219
   25DOPE  H11B 3106   7.402   5.066   6.874 -1.0007  1.9741 -1.0616
   25DOPE     P 3107   7.727   5.179   6.964  0.1071  0.1493  0.3989
   25DOPE   O13 3108   7.833   5.081   6.926  0.3361 -0.2413  0.2050
   25DOPE   O14 3109   7.732   5.246   7.096 -0.1891 -0.4757  0.0388
   25DOPE   O11 3110   7.687   5.291   6.861 -0.4187 -0.3492  0.0752
   25DOPE   O12 3111   7.598   5.086   6.966  0.3097 -0.0295 -0.3908
   25DOPE    C1 3112   7.717   5.267   6.720 -0.1329  0.4317 -0.1388
   25DOPE    HA 3113   7.639   5.206   6.669  0.8160  0.9707 -2.3710
   25DOPE    HB 3114   7.817   5.221   6.702 -0.6796 -0.5100 -0.8658
   25DOPE    C2 3115   7.720   5.408   6.639 -0.1283  0.0369 -0.2111
   25DOPE    HS 3116   7.623   5.460   6.657  0.0557 -0.1103  1.3331
   25DOPE   O21 3117   7.744   5.384   6.505 -0.1223 -0.4662  0.7955
   25DOPE   C21 3118   7.659   5.430   6.422  0.0844  0.3218  0.4676
   25DOPE   O22 3119   7.564   5.505   6.446 -0.3533 -0.1395 -0.0141
   25DOPE   C22 3120   7.676   5.350   6.287 -0.5207 -0.6061  0.6447
   25DOPE   H2R 3121   7.730   5.257   6.315  2.6562  1.4922  1.9876
   25DOPE   H2S 3122   7.740   5.416   6.225 -0.5792  0.8606  2.0711
   25DOPE    C3 3123   7.838   5.502   6.687  0.2751 -1.2092  0.6848
   25DOPE    HX 3124   7.940   5.465   6.659  0.1694 -0.2613 -1.1107
   25DOPE    HY 3125   7.830   5.506   6.797  0.7951 -3.1896  0.8475
   25DOPE   O31 3126   7.817   5.640   6.630  0.1665 -0.1905 -0.0285
   25DOPE   C31 3127   7.897   5.669   6.524 -0.4052 -0.5203 -0.6618
   25DOPE   O32 3128   7.997   5.611   6.487 -0.7543  0.2100 -0.0664
   25DOPE   C32 3129   7.857   5.800   6.470 -0.5786  0.1922 -0.2573
   25DOPE   H2X 3130   7.749   5.819   6.485 -0.4703  0.8135 -0.2313
   25DOPE   H2Y 3131   7.908   5.878   6.531 -0.4775  0.3343 -0.5193
   25DOPE   C23 3132   7.547   5.317   6.206 -0.4334 -0.1107  0.1548
   25DOPE   H3R 3133   7.486   5.410   6.204 -2.1776 -1.2140 -0.0292
   25DOPE   H3S 3134   7.489   5.231   6.247  1.0201 -0.3050  1.9187
   25DOPE   C24 3135   7.587   5.275   6.064 -0.1003  0.1891 -0.2346
   25DOPE   H4R 3136   7.631   5.174   6.073  0.5829  0.3212 -1.7566
   25DOPE   H4S 3137   7.655   5.344   6.010 -0.5542  0.7168 -0.1457
   25DOPE   C25 3138   7.464   5.253   5.968 -0.1467 -0.5930  0.2764
   25DOPE   H5R 3139   7.391   5.184   6.014  1.5512 -1.5173  1.7239
   25DOPE   H5S 3140   7.505   5.211   5.873 -1.0008  1.6400 -1.1471
   25DOPE   C26 3141   7.382   5.380   5.929 -0.7353 -0.3215  0.3191
   25DOPE   H6R 3142   7.461   5.444   5.884  1.2665 -1.5575  1.9063
   25DOPE   H6S 3143   7.343   5.426   6.022  0.6939  1.4456  0.1143
   25DOPE   C27 3144   7.256   5.357   5.851 -0.1751 -0.6707  0.4083
   25DOPE   H7R 3145   7.221   5.458   5.821  0.4313 -0.8324 -0.9092
   25DOPE   H7S 3146   7.178   5.301   5.908 -1.1812  1.5922  1.3697
   25DOPE   C28 3147   7.272   5.283   5.718  0.7714 -0.3513  0.4657
   25DOPE   H8R 3148   7.283   5.173   5.731  1.0652 -0.3933 -0.1033
   25DOPE   H8S 3149   7.364   5.321   5.668 -0.5129 -0.4255 -2.1747
   25DOPE   C29 3150   7.150   5.299   5.636 -0.2189 -0.6005 -0.2448
   25DOPE   H9R 3151   7.071   5.359   5.684 -0.9622 -2.3103  0.7854
   25DOPE  C210 3152   7.144   5.244   5.513 -0.0962 -0.1436  0.0384
   25DOPE  H10R 3153   7.048   5.241   5.460  1.2540 -3.9365 -2.6414
   25DOPE  C211 3154   7.249   5.162   5.438 -0.2706  0.8476 -0.5068
   25DOPE  H11R 3155   7.207   5.061   5.420 -1.2088  0.8430  1.4498
   25DOPE  H11S 3156   7.344   5.144   5.494  2.0579  0.4958 -4.1946
   25DOPE  C212 3157   7.300   5.216   5.300  0.4016 -0.0913 -0.3509
   25DOPE  H12R 3158   7.213   5.241   5.236  0.3303 -2.0977 -1.0841
   25DOPE  H12S 3159   7.353   5.133   5.248  1.6342 -0.5463  1.5114
   25DOPE  C213 3160   7.406   5.332   5.309  0.0154 -0.0760 -0.6507
   25DOPE  H13R 3161   7.488   5.304   5.379 -0.4127 -1.0470 -0.5235
   25DOPE  H13S 3162   7.356   5.424   5.347  1.2460 -0.7573  3.0127
   25DOPE  C214 3163   7.473   5.370   5.178  0.3273  0.4191  0.1984
   25DOPE  H14R 3164   7.546   5.449   5.205 -1.5880  1.6735  2.1155
   25DOPE  H14S 3165   7.402   5.409   5.101 -0.4794  0.0344  0.7279
   25DOPE  C215 3166   7.556   5.262   5.114 -0.4814 -0.3225 -0.2580
   25DOPE  H15R 3167   7.609   5.309   5.028  1.0691 -1.5037  0.0037
   25DOPE  H15S 3168   7.499   5.180   5.066 -1.1831  0.1320 -0.2160
   25DOPE  C216 3169   7.660   5.193   5.210 -0.3505 -0.6460  0.2077
   25DOPE  H16R 3170   7.613   5.105   5.257 -0.5457 -0.7423 -0.1681
   25DOPE  H16S 3171   7.683   5.272   5.284  1.3518 -0.0171 -0.9214
   25DOPE  C217 3172   7.791   5.158   5.137 -0.0396 -0.6560  0.4864
   25DOPE  H17R 3173   7.820   5.241   5.070  0.9071 -0.2741  1.3415
   25DOPE  H17S 3174   7.771   5.075   5.066  0.5476  2.2009 -3.3369
   25DOPE  C218 3175   7.896   5.133   5.246  0.5033 -0.1006 -0.1565
   25DOPE  H18R 3176   7.906   5.221   5.312 -0.4171 -0.5654  0.6350
   25DOPE  H18S 3177   7.999   5.105   5.214  0.8172 -0.1940  0.8998
   25DOPE  H18T 3178   7.849   5.057   5.313  0.7837  0.9034  1.2199
   25DOPE   C33 3179   7.901   5.816   6.328  0.1224  0.1564  0.1444
   25DOPE   H3X 3180   7.990   5.754   6.304  0.9599  0.5694  2.0234
   25DOPE   H3Y 3181   7.911   5.925   6.315 -1.8524  0.3904  0.2714
   25DOPE   C34 3182   7.792   5.765   6.236 -0.2164 -0.5162 -0.7637
   25DOPE   H4X 3183   7.750   5.667   6.268  2.0740 -1.4874 -0.5022
   25DOPE   H4Y 3184   7.707   5.836   6.241 -1.0449 -1.5671  2.1485
   25DOPE   C35 3185   7.845   5.744   6.090 -0.3005 -0.0303  0.3891
   25DOPE   H5X 3186   7.929   5.671   6.092  1.2662  1.6737 -0.5029
   25DOPE   H5Y 3187   7.889   5.840   6.056  1.3129 -0.3539  1.4855
   25DOPE   C36 3188   7.738   5.709   5.984  0.1407 -0.1676 -0.3987
   25DOPE   H6X 3189   7.683   5.616   6.007  1.1523 -0.3341  1.6954
   25DOPE   H6Y 3190   7.807   5.693   5.898  2.4154 -1.7618  1.5714
   25DOPE   C37 3191   7.655   5.838   5.961 -0.6371  0.6154  0.4970
   25DOPE   H7X 3192   7.562   5.834   6.021 -0.0999  0.3381  1.3313
   25DOPE   H7Y 3193   7.725   5.921   5.985 -0.5556 -0.3750  4.3989
   25DOPE   C38 3194   7.629   5.844   5.805 -0.2548  0.1615 -0.5143
   25DOPE   H8X 3195   7.728   5.839   5.756 -0.0463 -2.0242  0.0399
   25DOPE   H8Y 3196   7.589   5.946   5.788  1.4762  1.2178  1.2642
   25DOPE   C39 3197   7.527   5.744   5.759 -0.3489  0.1680  0.1146
   25DOPE   H9X 3198   7.426   5.778   5.789 -0.6102  1.1744 -1.7288
   25DOPE  C310 3199   7.552   5.623   5.701 -0.0671  0.7373  0.4530
   25DOPE  H10X 3200   7.472   5.556   5.665 -0.6112  0.9656  1.2075
   25DOPE  C311 3201   7.685   5.580   5.659  0.0038  0.6018  0.4475
   25DOPE  H11X 3202   7.751   5.669   5.651  3.4957 -1.7430  0.8657
   25DOPE  H11Y 3203   7.729   5.517   5.739  1.7224 -0.7843 -1.4933
   25DOPE  C312 3204   7.696   5.501   5.520  0.5065  0.2385 -0.0850
   25DOPE  H12X 3205   7.651   5.565   5.441  1.2425 -1.4319 -1.9485
   25DOPE  H12Y 3206   7.639   5.405   5.522  2.2785 -0.9390 -1.8977
   25DOPE  C313 3207   7.840   5.462   5.497 -0.2151  0.2449  0.3022
   25DOPE  H13X 3208   7.866   5.378   5.565 -0.9728 -0.3110 -0.0799
   25DOPE  H13Y 3209   7.833   5.417   5.396 -0.3659  1.7135 -0.3800
   25DOPE  C314 3210   7.951   5.571   5.486  0.1080 -0.3520 -0.1492
   25DOPE  H14X 3211   7.973   5.604   5.590  0.1236 -0.9321  0.0369
   25DOPE  H14Y 3212   7.905   5.659   5.437 -1.7319 -0.8805  0.5631
   25DOPE  C315 3213   8.091   5.530   5.421 -0.4145 -0.4952  0.1833
   25DOPE  H15X 3214   8.102   5.419   5.418 -0.5161 -0.7319  3.9011
   25DOPE  H15Y 3215   8.177   5.580   5.469  0.0765 -1.8481  0.7633
   25DOPE  C316 3216   8.094   5.593   5.278 -1.0578  0.1076  0.3484
   25DOPE  H16X 3217   8.051   5.695   5.275  1.3866  1.1772 -1.9396
   25DOPE  H16Y 3218   8.037   5.526   5.210  0.6002 -0.6517 -0.3233
   25DOPE  C317 3219   8.234   5.610   5.216 -0.1854  0.0683  0.0358
   25DOPE  H17X 3220   8.223   5.671   5.124 -1.0696  0.4127  0.3574
   25DOPE  H17Y 3221   8.303   5.669   5.280 -1.4198  0.0051  1.4772
   25DOPE  C318 3222   8.297   5.470   5.191  0.1200 -0.5107 -0.2804
   25DOPE  H18X 3223   8.237   5.407   5.122 -0.4746 -0.5694  0.2833
   25DOPE  H18Y 3224   8.395   5.482   5.139 -0.8031 -1.9268 -2.5185
   25DOPE  H18Z 3225   8.306   5.413   5.286  0.0643 -2.5315 -1.4341
   26DOPE     N 3226   0.925   6.293   7.282 -0.3206  0.0964  0.4177
   26DOPE   HN1 3227   0.823   6.305   7.296 -0.2642 -1.7757  3.1151
   26DOPE   HN2 3228   0.952   6.246   7.371 -1.2571 -0.6912  0.3080
   26DOPE   HN3 3229   0.957   6.392   7.280 -0.5367  0.2797  3.0311
   26DOPE   C12 3230   0.948   6.215   7.160 -0.1810 -0.0484 -0.3812
   26DOPE  H12A 3231   0.863   6.216   7.088 -0.0862  0.8674 -0.5042
   26DOPE  H12B 3232   0.976   6.111   7.188 -0.3135  0.1260  0.4340
   26DOPE   C11 3233   1.066   6.290   7.095  0.6182  1.0484  0.5448
   26DOPE  H11A 3234   1.096   6.220   7.014 -0.8663 -1.8599  2.3540
   26DOPE  H11B 3235   1.153   6.305   7.162  0.3687 -0.8750  1.3467
   26DOPE     P 3236   1.033   6.554   7.096  0.0363 -0.1029  0.1080
   26DOPE   O13 3237   1.157   6.613   7.042  0.5259 -0.3137 -0.1653
   26DOPE   O14 3238   1.023   6.550   7.240  0.1128  0.7665 -0.4521
   26DOPE   O11 3239   0.911   6.628   7.030  0.2180 -0.4892  0.2411
   26DOPE   O12 3240   1.018   6.409   7.041 -0.5541  0.5667  0.1616
   26DOPE    C1 3241   0.793   6.550   6.997 -0.6746 -0.6429 -0.9316
   26DOPE    HA 3242   0.702   6.605   7.029 -0.5681  0.2905 -2.1408
   26DOPE    HB 3243   0.781   6.449   7.041 -1.1681 -0.7746 -1.3583
   26DOPE    C2 3244   0.779   6.548   6.842  0.0764 -0.0253  0.6301
   26DOPE    HS 3245   0.684   6.498   6.815  0.6327 -0.8987  0.1994
   26DOPE   O21 3246   0.890   6.482   6.787  0.7437  0.0046  0.1670
   26DOPE   C21 3247   0.897   6.353   6.812  0.8633  0.4147 -0.3936
   26DOPE   O22 3248   0.814   6.286   6.874  0.3529  0.4459  0.5282
   26DOPE   C22 3249   1.025   6.295   6.753 -0.7290  0.5031  0.0289
   26DOPE   H2R 3250   1.107   6.313   6.824 -1.0063  2.3517 -0.0897
   26DOPE   H2S 3251   1.035   6.357   6.661 -0.3335 -2.1675 -1.8640
   26DOPE    C3 3252   0.775   6.682   6.768  0.5530 -0.6607 -0.1027
   26DOPE    HX 3253   0.868   6.742   6.779 -0.6122  1.3346 -0.6770
   26DOPE    HY 3254   0.687   6.727   6.819  0.3713 -1.0992 -0.0283
   26DOPE   O31 3255   0.745   6.656   6.627 -0.1175 -0.4038  0.2260
   26DOPE   C31 3256   0.700   6.760   6.561  0.6672 -0.6349  0.0371
   26DOPE   O32 3257   0.711   6.874   6.604 -1.0962 -0.5517 -0.1449
   26DOPE   C32 3258   0.637   6.733   6.425  0.1737  0.2424 -0.4552
   26DOPE   H2X 3259   0.667   6.630   6.395  1.2229  0.0576  1.1011
   26DOPE   H2Y 3260   0.529   6.732   6.448  0.2690 -0.9156 -0.0028
   26DOPE   C23 3261   0.998   6.147   6.717  0.0652  0.0467  0.1379
   26DOPE   H3R 3262   0.891   6.118   6.714 -0.2190  0.8459  1.8705
   26DOPE   H3S 3263   1.038   6.076   6.793 -0.5123  2.6447  3.0701
   26DOPE   C24 3264   1.059   6.103   6.584 -0.0647 -0.2341  0.0619
   26DOPE   H4R 3265   1.169   6.117   6.587  0.1471 -1.8738  2.0850
   26DOPE   H4S 3266   1.009   6.170   6.510 -2.5410  0.1371  1.9221
   26DOPE   C25 3267   1.030   5.953   6.548 -0.2153 -0.6559 -0.2246
   26DOPE   H5R 3268   0.939   5.925   6.604 -1.4651  0.8488 -1.4133
   26DOPE   H5S 3269   1.118   5.894   6.583  1.1360  1.4631  0.1524
   26DOPE   C26 3270   1.026   5.924   6.397  0.3051  0.4073 -0.1291
   26DOPE   H6R 3271   0.942   5.983   6.357  0.0067  1.7469  2.2857
   26DOPE   H6S 3272   1.002   5.815   6.389 -1.0466  0.6118  0.8905
   26DOPE   C27 3273   1.144   5.966   6.311 -0.0975 -0.3656  0.1236
   26DOPE   H7R 3274   1.239   5.922   6.347 -0.1272 -1.0679 -0.6356
   26DOPE   H7S 3275   1.142   6.077   6.315 -1.3490 -0.2659 -2.0333
   26DOPE   C28 3276   1.133   5.941   6.153 -0.6068  0.4624  0.2964
   26DOPE   H8R 3277   1.042   5.994   6.118  1.0310  1.8366 -2.2396
   26DOPE   H8S 3278   1.125   5.832   6.135 -0.7822  0.5279 -0.0213
   26DOPE   C29 3279   1.251   5.979   6.071 -0.3784 -1.0332  0.0058
   26DOPE   H9R 3280   1.346   5.969   6.127  0.3997  0.3282 -1.0042
   26DOPE  C210 3281   1.255   6.028   5.946  0.6601 -0.4585 -0.0146
   26DOPE  H10R 3282   1.348   6.066   5.899  0.7517 -0.7191 -0.0459
   26DOPE  C211 3283   1.124   6.044   5.871 -0.5788 -0.5434  0.6517
   26DOPE  H11R 3284   1.106   6.154   5.863 -2.0272 -0.6951  1.3566
   26DOPE  H11S 3285   1.031   5.997   5.911 -1.3459  0.5300  0.1976
   26DOPE  C212 3286   1.137   5.987   5.728 -0.0296  0.2123  0.7483
   26DOPE  H12R 3287   1.043   6.009   5.673  1.0242  2.4220 -0.3179
   26DOPE  H12S 3288   1.140   5.877   5.739  1.0281  0.2112  0.5506
   26DOPE  C213 3289   1.238   6.051   5.634 -0.1171 -0.3838  0.0475
   26DOPE  H13R 3290   1.340   6.039   5.676  0.8994 -2.5374 -2.7237
   26DOPE  H13S 3291   1.222   6.161   5.637  1.0622 -0.1782 -0.4754
   26DOPE  C214 3292   1.232   5.989   5.494 -0.1426 -0.3304 -0.4699
   26DOPE  H14R 3293   1.304   6.052   5.437  1.8929 -0.9404  1.3135
   26DOPE  H14S 3294   1.136   6.010   5.443  0.0082  0.6652 -0.3487
   26DOPE  C215 3295   1.276   5.843   5.487  0.2600  0.3211  0.1498
   26DOPE  H15R 3296   1.203   5.773   5.533  0.9096  0.7153  1.8333
   26DOPE  H15S 3297   1.376   5.817   5.528  1.1359  0.7677 -1.5949
   26DOPE  C216 3298   1.281   5.792   5.339  0.1503  0.6854 -0.5259
   26DOPE  H16R 3299   1.175   5.785   5.305 -0.1543 -0.5534  0.6028
   26DOPE  H16S 3300   1.299   5.682   5.340 -0.7355  0.4327  2.9309
   26DOPE  C217 3301   1.389   5.857   5.246 -0.0185 -0.0113  0.4625
   26DOPE  H17R 3302   1.491   5.829   5.279  0.0298 -1.0296 -0.4949
   26DOPE  H17S 3303   1.372   5.967   5.234  0.4009  0.0881  0.7533
   26DOPE  C218 3304   1.376   5.805   5.105  0.0530  0.5266  0.5929
   26DOPE  H18R 3305   1.397   5.696   5.110  1.7855  0.7840 -0.1274
   26DOPE  H18S 3306   1.458   5.854   5.048  0.9551  1.0037  2.2225
   26DOPE  H18T 3307   1.277   5.827   5.061 -0.4800  0.9969  2.0025
   26DOPE   C33 3308   0.678   6.831   6.323 -0.8324 -0.1719  0.4627
   26DOPE   H3X 3309   0.788   6.823   6.308 -0.8666  0.4532 -0.1796
   26DOPE   H3Y 3310   0.650   6.932   6.359 -1.9823 -1.2671  2.8365
   26DOPE   C34 3311   0.610   6.810   6.188 -1.2626 -0.4025  0.2268
   26DOPE   H4X 3312   0.636   6.707   6.156  0.9793  0.3237 -0.4916
   26DOPE   H4Y 3313   0.500   6.812   6.201 -1.3393 -1.5113 -0.1589
   26DOPE   C35 3314   0.653   6.916   6.087  0.3807 -0.2993  0.1825
   26DOPE   H5X 3315   0.763   6.906   6.084  0.1856 -5.8061 -0.0743
   26DOPE   H5Y 3316   0.623   7.018   6.118  0.9850  0.2709 -1.0615
   26DOPE   C36 3317   0.589   6.897   5.944 -0.0950  0.5199 -0.8972
   26DOPE   H6X 3318   0.630   6.974   5.875  1.0979  0.2280 -0.5417
   26DOPE   H6Y 3319   0.483   6.920   5.968  0.4849 -0.2235  2.8807
   26DOPE   C37 3320   0.613   6.755   5.891 -0.0761  0.1669  0.3210
   26DOPE   H7X 3321   0.706   6.720   5.942 -0.0200  0.8927  0.7250
   26DOPE   H7Y 3322   0.534   6.687   5.929  0.7880 -0.7320  0.5506
   26DOPE   C38 3323   0.620   6.743   5.741  0.1898  0.7473  0.3273
   26DOPE   H8X 3324   0.708   6.800   5.705  0.6468  0.2098  0.5996
   26DOPE   H8Y 3325   0.534   6.796   5.692  0.8582  0.1436 -1.6057
   26DOPE   C39 3326   0.633   6.595   5.701  0.5680 -0.9281 -0.0452
   26DOPE   H9X 3327   0.704   6.531   5.757 -0.6933 -1.4879  0.9639
   26DOPE  C310 3328   0.554   6.532   5.616 -0.0033 -0.6318  0.3420
   26DOPE  H10X 3329   0.571   6.427   5.587 -0.6914 -1.0820  1.4885
   26DOPE  C311 3330   0.438   6.609   5.548 -0.3285  0.7147 -0.3575
   26DOPE  H11X 3331   0.354   6.536   5.538 -0.5310  0.7929  0.6546
   26DOPE  H11Y 3332   0.402   6.696   5.607 -1.9321 -0.6903  0.8720
   26DOPE  C312 3333   0.482   6.661   5.413 -0.9895 -0.0732  0.3415
   26DOPE  H12X 3334   0.564   6.735   5.423 -1.0199 -0.2631  2.5198
   26DOPE  H12Y 3335   0.396   6.720   5.374 -0.8193 -1.1410 -1.7773
   26DOPE  C313 3336   0.505   6.562   5.294 -0.4102  0.3489 -0.1654
   26DOPE  H13X 3337   0.479   6.616   5.201 -0.9061  1.9599  0.8635
   26DOPE  H13Y 3338   0.610   6.529   5.281 -0.4712  0.8754 -2.3531
   26DOPE  C314 3339   0.430   6.428   5.302 -0.2710 -0.1448  0.8338
   26DOPE  H14X 3340   0.322   6.449   5.316 -0.2014  1.3032 -0.4760
   26DOPE  H14Y 3341   0.467   6.367   5.386  0.7842  0.5093  0.8694
   26DOPE  C315 3342   0.440   6.349   5.176 -0.4994 -0.4281 -0.1733
   26DOPE  H15X 3343   0.540   6.340   5.130 -0.3276  0.0248  0.0992
   26DOPE  H15Y 3344   0.377   6.405   5.104 -0.3376  1.1121  0.8275
   26DOPE  C316 3345   0.372   6.212   5.207 -0.0277  0.3302  0.2745
   26DOPE  H16X 3346   0.269   6.214   5.247 -0.3807  0.0732 -0.5998
   26DOPE  H16Y 3347   0.438   6.171   5.286  0.6989 -0.4506 -0.7130
   26DOPE  C317 3348   0.375   6.118   5.089  0.4797  0.4851 -0.4667
   26DOPE  H17X 3349   0.328   6.151   4.994  1.1270 -1.4387 -1.5162
   26DOPE  H17Y 3350   0.480   6.091   5.063 -0.0885 -0.8365 -1.5248
   26DOPE  C318 3351   0.309   5.980   5.129 -0.1544  0.5087  0.2731
   26DOPE  H18X 3352   0.298   5.918   5.038 -1.3255 -1.5654  1.7460
   26DOPE  H18Y 3353   0.367   5.932   5.211  0.8629  0.7065 -0.3168
   26DOPE  H18Z 3354   0.203   6.000   5.155 -0.0812 -1.2003  2.1415
   27DOPE     N 3355   6.639   7.234   7.371 -0.0360  0.3268  0.4857
   27DOPE   HN1 3356   6.657   7.224   7.473 -1.4465 -1.7517  0.5886
   27DOPE   HN2 3357   6.632   7.147   7.315  2.3303 -0.6453  1.5374
   27DOPE   HN3 3358   6.717   7.276   7.316 -0.5057 -0.2210 -0.6208
   27DOPE   C12 3359   6.508   7.312   7.364 -0.4585  0.4287  0.0586
   27DOPE  H12A 3360   6.523   7.414   7.405  1.1526  0.2715 -0.0626
   27DOPE  H12B 3361   6.438   7.249   7.423 -0.4299  0.5403  0.2147
   27DOPE   C11 3362   6.462   7.328   7.218  0.6308  0.3885 -0.3673
   27DOPE  H11A 3363   6.535   7.389   7.160 -0.9517  0.1380 -2.7775
   27DOPE  H11B 3364   6.368   7.387   7.216 -0.9943 -1.9098  1.7924
   27DOPE     P 3365   6.522   7.128   7.055  0.1360  0.0660 -0.1786
   27DOPE   O13 3366   6.446   7.027   6.978  0.1681  0.8300  0.0716
   27DOPE   O14 3367   6.637   7.080   7.132 -0.3373 -0.6748  0.2013
   27DOPE   O11 3368   6.578   7.241   6.965 -0.7397  0.3413  0.4471
   27DOPE   O12 3369   6.431   7.203   7.160  0.2781  0.0089  0.3253
   27DOPE    C1 3370   6.499   7.325   6.886 -0.1110  0.3570 -0.2828
   27DOPE    HA 3371   6.543   7.422   6.917  1.9094 -1.5011  3.3591
   27DOPE    HB 3372   6.391   7.322   6.913  0.2946  0.5638  1.4716
   27DOPE    C2 3373   6.502   7.296   6.733  0.0225  0.3104 -0.4174
   27DOPE    HS 3374   6.476   7.190   6.712 -0.9596  0.5095 -0.2350
   27DOPE   O21 3375   6.632   7.332   6.686 -0.2326 -0.0559  0.4322
   27DOPE   C21 3376   6.705   7.241   6.621  0.2700  0.2250 -0.0197
   27DOPE   O22 3377   6.704   7.119   6.634  0.0958 -0.2309 -0.1067
   27DOPE   C22 3378   6.803   7.316   6.525  0.7609  0.1379  0.3541
   27DOPE   H2R 3379   6.860   7.388   6.588 -0.3274 -0.0209  1.5764
   27DOPE   H2S 3380   6.746   7.373   6.449  0.8773  0.9054  0.8270
   27DOPE    C3 3381   6.399   7.386   6.660  0.8147  0.0109  0.2964
   27DOPE    HX 3382   6.406   7.490   6.699 -1.7112  0.4697 -0.3523
   27DOPE    HY 3383   6.298   7.349   6.687  0.3414 -0.6441 -2.1150
   27DOPE   O31 3384   6.412   7.375   6.515  0.0429 -0.4309  0.4963
   27DOPE   C31 3385   6.445   7.484   6.453 -0.0455 -0.8093  0.4372
   27DOPE   O32 3386   6.448   7.598   6.496 -0.2791  0.1037  0.2323
   27DOPE   C32 3387   6.502   7.442   6.308  1.1506 -0.8981 -1.0470
   27DOPE   H2X 3388   6.612   7.430   6.295  1.9570  3.7988 -0.2141
   27DOPE   H2Y 3389   6.443   7.350   6.285  0.9068 -1.4094  1.3798
   27DOPE   C23 3390   6.907   7.224   6.453  0.0118 -0.4086  0.2048
   27DOPE   H3R 3391   6.845   7.141   6.412  0.1698 -0.3623 -0.1366
   27DOPE   H3S 3392   6.982   7.188   6.527  1.1641 -1.3208 -1.3364
   27DOPE   C24 3393   6.975   7.304   6.341  0.3456  0.6696 -0.0756
   27DOPE   H4R 3394   7.020   7.398   6.379  1.1582  0.5531 -0.7140
   27DOPE   H4S 3395   6.912   7.325   6.252  1.2999 -0.7934 -1.1485
   27DOPE   C25 3396   7.097   7.231   6.281 -0.2829 -0.2092  0.6380
   27DOPE   H5R 3397   7.153   7.184   6.365 -0.8923 -0.8230  0.7088
   27DOPE   H5S 3398   7.159   7.297   6.217  1.8649 -1.4297  1.3707
   27DOPE   C26 3399   7.047   7.118   6.198 -0.6415 -0.1720  0.2737
   27DOPE   H6R 3400   6.993   7.168   6.114  0.6615  3.0406  1.1974
   27DOPE   H6S 3401   6.979   7.057   6.261  0.3852  0.3491  1.9372
   27DOPE   C27 3402   7.154   7.018   6.143  0.3838 -0.0789 -0.8074
   27DOPE   H7R 3403   7.097   6.943   6.084 -1.3033  0.8087 -0.3810
   27DOPE   H7S 3404   7.202   6.967   6.229 -1.3438 -1.8500 -0.8228
   27DOPE   C28 3405   7.257   7.080   6.048 -0.0936 -0.4389 -0.3818
   27DOPE   H8R 3406   7.329   7.001   6.016  0.2558 -0.2783 -0.0018
   27DOPE   H8S 3407   7.318   7.149   6.110  0.2440 -0.5083 -0.6328
   27DOPE   C29 3408   7.202   7.147   5.929  0.3821 -0.1646  0.0814
   27DOPE   H9R 3409   7.107   7.197   5.952 -0.2132 -0.4172 -1.6717
   27DOPE  C210 3410   7.246   7.150   5.800 -0.6961  0.0597  0.2132
   27DOPE  H10R 3411   7.199   7.225   5.735 -1.0660 -1.4031 -1.2751
   27DOPE  C211 3412   7.371   7.079   5.749 -0.0422 -0.4566 -0.6857
   27DOPE  H11R 3413   7.452   7.093   5.823 -1.1544  0.8277  0.3505
   27DOPE  H11S 3414   7.415   7.135   5.664 -0.5566  0.5660 -0.2948
   27DOPE  C212 3415   7.346   6.929   5.702 -0.3362  0.0135 -0.6650
   27DOPE  H12R 3416   7.330   6.869   5.794  1.0112  2.2223  1.1082
   27DOPE  H12S 3417   7.434   6.895   5.643  0.6151  1.6072 -0.2104
   27DOPE  C213 3418   7.220   6.911   5.609 -0.1320 -0.0422  0.2083
   27DOPE  H13R 3419   7.130   6.951   5.661 -0.5031  0.8667 -1.0740
   27DOPE  H13S 3420   7.193   6.805   5.589 -0.4767  0.3114 -1.3365
   27DOPE  C214 3421   7.228   6.982   5.476 -0.3046  0.3138  0.4438
   27DOPE  H14R 3422   7.299   6.930   5.409 -0.8039  0.9611 -0.6107
   27DOPE  H14S 3423   7.277   7.079   5.498 -0.8932  0.5721  0.6572
   27DOPE  C215 3424   7.098   7.009   5.398  0.1886 -0.1855  0.3281
   27DOPE  H15R 3425   7.120   7.060   5.301 -0.8422  0.4208  0.3942
   27DOPE  H15S 3426   7.013   7.062   5.445  1.0699  0.2942  1.4144
   27DOPE  C216 3427   7.035   6.883   5.340 -0.3935  0.0940  0.6014
   27DOPE  H16R 3428   7.019   6.813   5.424 -0.1804 -0.9575 -0.2188
   27DOPE  H16S 3429   7.101   6.827   5.271 -1.4138 -1.7784  1.0876
   27DOPE  C217 3430   6.902   6.895   5.271  0.3262  0.1535 -0.5198
   27DOPE  H17R 3431   6.836   6.942   5.346 -0.3084 -0.8635 -0.4268
   27DOPE  H17S 3432   6.858   6.797   5.241  2.4562 -1.2638  0.6777
   27DOPE  C218 3433   6.908   6.978   5.135  0.7934 -0.4232 -0.0994
   27DOPE  H18R 3434   6.958   6.916   5.058 -1.6920 -1.4614 -0.9975
   27DOPE  H18S 3435   6.955   7.076   5.152  0.4066 -0.7027  3.2119
   27DOPE  H18T 3436   6.805   7.002   5.100  0.3655 -1.5844  0.3019
   27DOPE   C33 3437   6.475   7.543   6.195 -0.9013  0.3795  0.7920
   27DOPE   H3X 3438   6.514   7.642   6.226 -1.0951  1.4443 -2.0928
   27DOPE   H3Y 3439   6.365   7.549   6.179 -1.1607 -2.0496  1.2723
   27DOPE   C34 3440   6.543   7.495   6.070  0.4663  0.5777  0.1852
   27DOPE   H4X 3441   6.651   7.504   6.090  0.4685  0.4782  0.2192
   27DOPE   H4Y 3442   6.509   7.390   6.051 -2.1223  1.4315 -0.3711
   27DOPE   C35 3443   6.503   7.587   5.958  0.4315 -0.4988 -0.6881
   27DOPE   H5X 3444   6.519   7.695   5.978 -1.3025 -0.2754 -0.3121
   27DOPE   H5Y 3445   6.394   7.582   5.938  0.4524 -1.2129 -0.6217
   27DOPE   C36 3446   6.576   7.545   5.831 -0.0246 -0.3359 -0.0316
   27DOPE   H6X 3447   6.567   7.437   5.806 -0.9049  0.2013 -2.2931
   27DOPE   H6Y 3448   6.686   7.549   5.850 -0.2568 -0.5390  1.4302
   27DOPE   C37 3449   6.539   7.620   5.703 -0.5703  0.5167  0.2736
   27DOPE   H7X 3450   6.431   7.609   5.680 -0.4900 -0.5192  0.3323
   27DOPE   H7Y 3451   6.565   7.726   5.725  1.3033  0.5613 -1.8468
   27DOPE   C38 3452   6.623   7.572   5.588 -0.3099 -0.0120  0.9424
   27DOPE   H8X 3453   6.594   7.472   5.549  0.2173 -0.1069  0.7840
   27DOPE   H8Y 3454   6.730   7.564   5.618 -0.1602  2.1932  1.1384
   27DOPE   C39 3455   6.629   7.657   5.464 -0.3710  0.2127 -0.0854
   27DOPE   H9X 3456   6.554   7.622   5.391 -0.0436  1.4818 -1.0731
   27DOPE  C310 3457   6.717   7.752   5.433  0.6310 -0.3036 -0.0172
   27DOPE  H10X 3458   6.723   7.778   5.327  2.0920 -1.0915 -0.1658
   27DOPE  C311 3459   6.824   7.799   5.535 -0.3774  0.3551  0.8638
   27DOPE  H11X 3460   6.827   7.732   5.624 -0.5896 -2.5246 -1.1669
   27DOPE  H11Y 3461   6.924   7.798   5.487 -0.9911  0.6226 -0.4709
   27DOPE  C312 3462   6.801   7.932   5.609 -0.2714 -0.7615  0.1083
   27DOPE  H12X 3463   6.704   7.927   5.664 -1.2582 -0.8519 -1.5731
   27DOPE  H12Y 3464   6.801   8.021   5.543 -3.4350 -1.3868 -0.9057
   27DOPE  C313 3465   6.910   7.951   5.715 -0.5493 -0.2244  0.1813
   27DOPE  H13X 3466   6.923   7.867   5.788  0.5292 -0.4966 -0.3057
   27DOPE  H13Y 3467   7.009   7.961   5.666 -0.3679 -0.1438  0.5560
   27DOPE  C314 3468   6.900   8.090   5.793 -0.1778  0.2580  0.4843
   27DOPE  H14X 3469   6.815   8.087   5.864  0.2638 -1.7830  0.9853
   27DOPE  H14Y 3470   6.886   8.167   5.714  0.8302 -1.5331 -1.5361
   27DOPE  C315 3471   7.028   8.118   5.862  0.2930  0.5002  0.3713
   27DOPE  H15X 3472   7.107   8.135   5.785  0.5054  1.2494  0.7401
   27DOPE  H15Y 3473   7.070   8.033   5.920  0.8405  2.1095  2.4553
   27DOPE  C316 3474   7.020   8.240   5.953  0.0844 -0.6201 -0.3654
   27DOPE  H16X 3475   6.954   8.318   5.908  1.2252  0.7611  0.2626
   27DOPE  H16Y 3476   7.123   8.282   5.955  0.1340 -0.7561  0.9164
   27DOPE  C317 3477   6.981   8.211   6.098  0.0315 -0.3939  0.1313
   27DOPE  H17X 3478   7.052   8.135   6.137 -0.6622 -1.1548 -0.0705
   27DOPE  H17Y 3479   7.001   8.307   6.151 -1.9150  0.4749 -0.5890
   27DOPE  C318 3480   6.836   8.173   6.122 -0.2197  0.0951 -0.2638
   27DOPE  H18X 3481   6.766   8.247   6.078  0.1331  0.9589  0.5856
   27DOPE  H18Y 3482   6.809   8.075   6.076 -1.4054  0.5814 -0.6342
   27DOPE  H18Z 3483   6.810   8.155   6.229  0.4700  1.8956  0.2386
   28DOPE     N 3484   6.895   7.021   7.139 -0.4717  0.0813  0.4439
   28DOPE   HN1 3485   6.931   7.033   7.235  1.0429  1.3020 -0.2309
   28DOPE   HN2 3486   6.792   7.036   7.145 -0.5892 -0.1453 -0.6458
   28DOPE   HN3 3487   6.919   6.927   7.102  2.0946  2.0315 -3.5743
   28DOPE   C12 3488   6.965   7.127   7.058  0.6416  0.8856 -0.0508
   28DOPE  H12A 3489   7.075   7.117   7.077  0.7638  0.1613 -1.0506
   28DOPE  H12B 3490   6.928   7.224   7.098  0.7300  1.2038 -0.7281
   28DOPE   C11 3491   6.929   7.098   6.913  0.3523  1.4597  0.2869
   28DOPE  H11A 3492   6.955   7.191   6.857  2.4889  0.5127 -0.4006
   28DOPE  H11B 3493   6.819   7.089   6.906  0.4961  0.8143 -1.6668
   28DOPE     P 3494   7.143   6.965   6.815 -0.2407  0.3141 -0.1563
   28DOPE   O13 3495   7.213   6.876   6.908  0.0545  0.1145 -0.0993
   28DOPE   O14 3496   7.181   7.100   6.789  0.3691  0.0703  0.3012
   28DOPE   O11 3497   7.138   6.886   6.672  1.0598 -0.3544 -0.2043
   28DOPE   O12 3498   6.992   6.980   6.868  0.0967  0.3755  0.3963
   28DOPE    C1 3499   7.034   6.916   6.581  0.2806  0.1031 -0.7452
   28DOPE    HA 3500   7.076   6.964   6.490 -0.2372  0.5344 -0.7574
   28DOPE    HB 3501   6.958   6.985   6.622  2.3141  2.7080 -1.1265
   28DOPE    C2 3502   6.958   6.783   6.542 -0.4279  0.5459 -0.1618
   28DOPE    HS 3503   6.940   6.722   6.633 -0.4138  0.0303 -0.5007
   28DOPE   O21 3504   7.048   6.710   6.461 -0.3130  0.2935  0.2622
   28DOPE   C21 3505   7.131   6.614   6.511  0.6784 -0.2241  0.3156
   28DOPE   O22 3506   7.140   6.579   6.625  0.0062 -0.3266 -0.0766
   28DOPE   C22 3507   7.213   6.567   6.395 -0.3894 -0.2751  0.4462
   28DOPE   H2R 3508   7.224   6.457   6.396  0.2120 -0.2270 -0.2487
   28DOPE   H2S 3509   7.318   6.594   6.420  0.1517 -2.6250  0.9647
   28DOPE    C3 3510   6.829   6.813   6.458  0.2736 -0.2350 -0.0839
   28DOPE    HX 3511   6.860   6.892   6.387 -0.0257 -1.8313 -2.1127
   28DOPE    HY 3512   6.757   6.854   6.532  0.9543 -0.8001  0.9047
   28DOPE   O31 3513   6.788   6.699   6.377 -0.0802 -0.6381  0.6411
   28DOPE   C31 3514   6.698   6.622   6.435 -0.1980 -0.6537 -0.4955
   28DOPE   O32 3515   6.678   6.614   6.556 -0.1232 -0.1386  0.9861
   28DOPE   C32 3516   6.629   6.543   6.323 -0.5782 -0.3874  0.6302
   28DOPE   H2X 3517   6.676   6.443   6.331  0.9197  0.2213 -0.1810
   28DOPE   H2Y 3518   6.525   6.518   6.353 -0.0874 -5.4116 -0.8604
   28DOPE   C23 3519   7.159   6.610   6.262  0.0867  0.3527 -0.0806
   28DOPE   H3R 3520   7.164   6.721   6.250  0.6328  0.2612 -0.8326
   28DOPE   H3S 3521   7.057   6.576   6.235 -0.3089  1.4281 -0.0106
   28DOPE   C24 3522   7.235   6.558   6.137 -0.0586  0.2871 -1.2633
   28DOPE   H4R 3523   7.217   6.451   6.115  0.5885  0.5129 -3.0429
   28DOPE   H4S 3524   7.344   6.572   6.159 -0.1784 -1.4192  0.7293
   28DOPE   C25 3525   7.201   6.634   6.011 -0.6543 -0.0506  0.1942
   28DOPE   H5R 3526   7.294   6.632   5.951 -1.8596  0.2024 -1.7425
   28DOPE   H5S 3527   7.193   6.743   6.027 -0.1284  0.0467 -0.1802
   28DOPE   C26 3528   7.080   6.570   5.933 -0.0314  0.8082 -0.2962
   28DOPE   H6R 3529   6.981   6.562   5.982  0.8618 -1.3676  1.2968
   28DOPE   H6S 3530   7.103   6.463   5.915 -0.9745  0.1536  2.1398
   28DOPE   C27 3531   7.074   6.642   5.797 -0.2314  0.4778  0.5812
   28DOPE   H7R 3532   7.162   6.614   5.734 -2.2428  1.2671 -2.8359
   28DOPE   H7S 3533   7.081   6.752   5.815 -1.1070  0.8600 -1.1857
   28DOPE   C28 3534   6.946   6.619   5.717  0.0048 -0.1268  0.5983
   28DOPE   H8R 3535   6.948   6.508   5.716  0.2523 -0.2335 -3.3800
   28DOPE   H8S 3536   6.960   6.642   5.609  1.1868 -0.4704  0.6573
   28DOPE   C29 3537   6.812   6.677   5.770 -0.5568 -0.0645  0.8910
   28DOPE   H9R 3538   6.816   6.719   5.872 -1.1077 -0.3723  1.0465
   28DOPE  C210 3539   6.714   6.713   5.687  0.4333 -0.4294  0.3891
   28DOPE  H10R 3540   6.627   6.768   5.725  1.7596  1.4622  0.8272
   28DOPE  C211 3541   6.712   6.691   5.537 -0.0767  0.3993  0.1391
   28DOPE  H11R 3542   6.813   6.704   5.493  0.2032  1.0823  0.9537
   28DOPE  H11S 3543   6.651   6.766   5.482  1.8987  0.2383 -2.5001
   28DOPE  C212 3544   6.659   6.551   5.502  0.0178  0.0454 -0.0171
   28DOPE  H12R 3545   6.560   6.534   5.551  0.5739  2.0262  1.9645
   28DOPE  H12S 3546   6.711   6.468   5.554 -0.8005 -0.3841  0.1430
   28DOPE  C213 3547   6.647   6.532   5.353  0.6393 -0.1936  0.0262
   28DOPE  H13R 3548   6.745   6.551   5.304  0.0990  0.0960 -0.9583
   28DOPE  H13S 3549   6.578   6.610   5.315  0.3369 -0.2348  0.4850
   28DOPE  C214 3550   6.585   6.397   5.311 -0.1553 -0.6266 -0.2595
   28DOPE  H14R 3551   6.487   6.398   5.362  0.5598  3.8250  1.4586
   28DOPE  H14S 3552   6.646   6.319   5.361 -0.4225  1.0171  2.8597
   28DOPE  C215 3553   6.561   6.365   5.163 -0.0382 -0.2476 -0.2003
   28DOPE  H15R 3554   6.660   6.350   5.115 -0.8356 -0.9891 -1.6876
   28DOPE  H15S 3555   6.515   6.451   5.110 -0.4667  0.4509  1.2688
   28DOPE  C216 3556   6.473   6.234   5.156 -0.4013 -0.5482 -0.0119
   28DOPE  H16R 3557   6.383   6.242   5.220 -0.8121 -0.8221 -0.5424
   28DOPE  H16S 3558   6.534   6.150   5.196  1.6375  0.0288 -1.6601
   28DOPE  C217 3559   6.423   6.202   5.015  0.1745 -0.3932 -0.0059
   28DOPE  H17R 3560   6.507   6.188   4.943 -2.4445  1.9505 -3.8999
   28DOPE  H17S 3561   6.374   6.294   4.976  3.3922  0.9781 -1.1886
   28DOPE  C218 3562   6.335   6.079   5.006  0.0600 -0.2110 -0.6422
   28DOPE  H18R 3563   6.231   6.104   5.035  0.3589  1.2781 -0.7568
   28DOPE  H18S 3564   6.380   6.006   5.076 -0.2512  1.5471  1.5102
   28DOPE  H18T 3565   6.343   6.038   4.903  2.3751  1.8112 -1.3758
   28DOPE   C33 3566   6.638   6.593   6.176  0.5143  1.3899  0.0443
   28DOPE   H3X 3567   6.744   6.592   6.141 -0.0530 -1.0548 -1.8827
   28DOPE   H3Y 3568   6.583   6.689   6.169 -2.2171 -0.1485 -0.8983
   28DOPE   C34 3569   6.555   6.488   6.089 -0.3151  0.1009 -0.4292
   28DOPE   H4X 3570   6.611   6.392   6.097  0.7047  0.7044 -0.0261
   28DOPE   H4Y 3571   6.457   6.470   6.137  0.5352 -1.3206  0.8864
   28DOPE   C35 3572   6.536   6.531   5.946  0.7014 -0.4290  0.1586
   28DOPE   H5X 3573   6.643   6.530   5.914  1.4426  1.1321  2.3899
   28DOPE   H5Y 3574   6.493   6.633   5.938 -0.0587 -0.7084  0.5852
   28DOPE   C36 3575   6.443   6.439   5.870  0.4287 -0.7543 -0.0226
   28DOPE   H6X 3576   6.421   6.486   5.772 -1.8822 -0.8736  0.3673
   28DOPE   H6Y 3577   6.345   6.434   5.924  0.4532  3.2519  0.6875
   28DOPE   C37 3578   6.497   6.300   5.834 -0.7870 -0.8553 -0.1248
   28DOPE   H7X 3579   6.607   6.292   5.830 -0.8422 -1.3498 -0.8007
   28DOPE   H7Y 3580   6.468   6.235   5.920 -1.9017  2.0316  1.8625
   28DOPE   C38 3581   6.436   6.248   5.701 -0.0486  0.1707  0.0125
   28DOPE   H8X 3582   6.463   6.307   5.610 -0.1182 -0.3994 -0.3839
   28DOPE   H8Y 3583   6.328   6.272   5.716 -0.1248  1.2686 -1.8496
   28DOPE   C39 3584   6.473   6.104   5.673 -0.7836 -0.3172 -0.1148
   28DOPE   H9X 3585   6.577   6.078   5.698 -0.6091 -1.0644 -1.5275
   28DOPE  C310 3586   6.388   6.011   5.630 -0.6839  0.8820 -0.6801
   28DOPE  H10X 3587   6.435   5.917   5.599 -0.4023  0.7043  0.2698
   28DOPE  C311 3588   6.236   6.018   5.623 -0.9126  0.2745 -0.8965
   28DOPE  H11X 3589   6.196   6.112   5.666 -0.3152 -0.9692  2.6659
   28DOPE  H11Y 3590   6.211   6.028   5.515 -0.1430  1.5918 -0.9796
   28DOPE  C312 3591   6.171   5.899   5.687  0.2509  1.0628  0.5295
   28DOPE  H12X 3592   6.200   5.803   5.641 -3.2201  0.6002 -1.0204
   28DOPE  H12Y 3593   6.061   5.915   5.679  0.1377  0.9014  1.6180
   28DOPE  C313 3594   6.196   5.892   5.833  0.4618 -0.2421 -0.9260
   28DOPE  H13X 3595   6.306   5.888   5.847  0.6622  1.1914 -1.8825
   28DOPE  H13Y 3596   6.160   5.986   5.880 -0.6443 -0.5574 -1.1337
   28DOPE  C314 3597   6.123   5.773   5.898 -0.0007  0.8075 -0.2978
   28DOPE  H14X 3598   6.178   5.680   5.874 -0.9427 -0.4389  2.0606
   28DOPE  H14Y 3599   6.014   5.757   5.884 -0.1714  0.2780  1.3723
   28DOPE  C315 3600   6.144   5.776   6.054 -0.2575  0.0799 -0.2325
   28DOPE  H15X 3601   6.075   5.845   6.106 -0.1714  0.3445 -0.4690
   28DOPE  H15Y 3602   6.250   5.806   6.070 -0.3581 -0.0466  0.6944
   28DOPE  C316 3603   6.131   5.642   6.120 -0.3981  0.1000  0.0491
   28DOPE  H16X 3604   6.194   5.564   6.072 -0.5164  0.0856 -0.0847
   28DOPE  H16Y 3605   6.027   5.604   6.103  0.2930 -2.4514  1.0265
   28DOPE  C317 3606   6.159   5.650   6.271  0.7123 -0.0124  0.1489
   28DOPE  H17X 3607   6.264   5.688   6.274 -0.0056  2.2780 -1.5218
   28DOPE  H17Y 3608   6.086   5.717   6.321  0.9660  0.8103 -0.5771
   28DOPE  C318 3609   6.148   5.515   6.345  0.5164  0.6682  0.5821
   28DOPE  H18X 3610   6.179   5.531   6.450 -1.4909  1.4422  1.1136
   28DOPE  H18Y 3611   6.044   5.475   6.343 -0.2851  2.6288  0.5916
   28DOPE  H18Z 3612   6.215   5.442   6.295 -0.3872  0.5689 -0.5364
   29DOPE     N 3613   7.649   0.555   7.068 -0.4815  0.0332 -0.0851
   29DOPE   HN1 3614   7.662   0.476   7.001  1.2099 -0.6794  1.0188
   29DOPE   HN2 3615   7.727   0.553   7.137  0.7089  0.9484 -1.3446
   29DOPE   HN3 3616   7.557   0.534   7.111 -0.5774 -1.3669 -0.9054
   29DOPE   C12 3617   7.644   0.692   6.991 -0.4552 -0.0182 -0.2447
   29DOPE  H12A 3618   7.751   0.707   6.965 -0.1867  0.5006  1.0608
   29DOPE  H12B 3619   7.621   0.766   7.072  1.7581 -0.9831  1.3620
   29DOPE   C11 3620   7.547   0.695   6.872  0.5504 -0.0996  0.1672
   29DOPE  H11A 3621   7.594   0.622   6.803 -0.0199  1.0963 -1.5498
   29DOPE  H11B 3622   7.549   0.795   6.823 -0.8746 -0.4398 -0.6550
   29DOPE     P 3623   7.304   0.731   6.954 -0.3614 -0.3740  0.1307
   29DOPE   O13 3624   7.347   0.831   7.050 -0.1298 -0.0199 -0.0555
   29DOPE   O14 3625   7.180   0.651   6.979  0.2393  0.2526  0.6398
   29DOPE   O11 3626   7.282   0.816   6.817 -0.1004 -0.0741 -0.7104
   29DOPE   O12 3627   7.422   0.645   6.918 -0.0724  0.1751  0.4735
   29DOPE    C1 3628   7.249   0.739   6.703  0.7726 -0.2544  0.2405
   29DOPE    HA 3629   7.180   0.655   6.725  0.7941  0.0394  1.5439
   29DOPE    HB 3630   7.344   0.696   6.666  0.2462 -1.7193  0.5285
   29DOPE    C2 3631   7.194   0.824   6.578  0.2999  0.6872 -0.6337
   29DOPE    HS 3632   7.187   0.761   6.487 -1.3971 -1.5482  0.9400
   29DOPE   O21 3633   7.279   0.938   6.556 -0.0442  0.2270  0.1734
   29DOPE   C21 3634   7.404   0.922   6.506  0.1456 -0.2651  0.3751
   29DOPE   O22 3635   7.455   0.816   6.482  0.0829 -0.0651  0.3077
   29DOPE   C22 3636   7.472   1.063   6.491 -0.3789 -0.0473  0.2423
   29DOPE   H2R 3637   7.532   1.089   6.581 -0.2879 -4.8155  1.8380
   29DOPE   H2S 3638   7.391   1.139   6.482 -1.4026 -1.2269 -0.9046
   29DOPE    C3 3639   7.048   0.868   6.606 -0.0359  0.1050  0.6565
   29DOPE    HX 3640   7.011   0.930   6.522  0.4248  1.8030  1.6706
   29DOPE    HY 3641   7.041   0.931   6.697 -2.5838  1.0988 -0.1325
   29DOPE   O31 3642   6.976   0.746   6.611  0.3585 -0.2527  0.3162
   29DOPE   C31 3643   6.851   0.763   6.643  0.7216  0.2144  0.4195
   29DOPE   O32 3644   6.797   0.873   6.653  0.5154 -0.3381  0.2585
   29DOPE   C32 3645   6.800   0.626   6.671  0.2892  0.3160  0.7968
   29DOPE   H2X 3646   6.869   0.555   6.723 -1.0094 -0.2353  1.8526
   29DOPE   H2Y 3647   6.721   0.639   6.749 -0.2538 -0.6122  0.4258
   29DOPE   C23 3648   7.563   1.081   6.370  0.0103  0.1147  0.1826
   29DOPE   H3R 3649   7.642   1.002   6.378  0.1929  0.4031  1.4758
   29DOPE   H3S 3650   7.626   1.173   6.380  0.4562  0.0056 -1.3226
   29DOPE   C24 3651   7.490   1.071   6.243  0.4951  0.6426 -0.2216
   29DOPE   H4R 3652   7.426   1.162   6.247 -0.9530 -0.2389 -1.9139
   29DOPE   H4S 3653   7.420   0.985   6.236  0.0530  1.1068 -2.1318
   29DOPE   C25 3654   7.580   1.089   6.122 -0.6554  0.4708  0.7857
   29DOPE   H5R 3655   7.666   1.020   6.138 -0.7961  0.0154 -0.3667
   29DOPE   H5S 3656   7.612   1.195   6.125  0.1297  0.2457  3.3865
   29DOPE   C26 3657   7.513   1.059   5.985  0.7029  0.1897  0.0232
   29DOPE   H6R 3658   7.403   1.050   5.993  0.4902  0.9004 -1.6976
   29DOPE   H6S 3659   7.543   0.969   5.928 -1.4707 -0.2719 -0.4783
   29DOPE   C27 3660   7.550   1.179   5.888  0.5012  0.3718 -0.6847
   29DOPE   H7R 3661   7.660   1.167   5.891  0.5023  0.2829 -1.0737
   29DOPE   H7S 3662   7.515   1.274   5.935  0.5812 -0.8321  2.0366
   29DOPE   C28 3663   7.495   1.169   5.747 -0.8265  0.3850 -0.4365
   29DOPE   H8R 3664   7.384   1.164   5.747 -0.8503 -2.3527 -3.1486
   29DOPE   H8S 3665   7.515   1.069   5.703  2.0760  0.2095  1.0199
   29DOPE   C29 3666   7.550   1.274   5.654  0.2814 -0.4632  0.0649
   29DOPE   H9R 3667   7.565   1.369   5.707 -0.2958 -0.0701 -0.4650
   29DOPE  C210 3668   7.573   1.272   5.525  0.1089  0.0840  1.1612
   29DOPE  H10R 3669   7.608   1.361   5.471  0.4857 -1.1159 -0.6751
   29DOPE  C211 3670   7.536   1.162   5.435 -0.3766  0.5816 -0.6011
   29DOPE  H11R 3671   7.471   1.085   5.483 -1.1083  2.2136  1.1859
   29DOPE  H11S 3672   7.623   1.104   5.400 -0.2191  0.0075  0.6717
   29DOPE  C212 3673   7.455   1.212   5.316 -0.1163  0.5279 -0.7625
   29DOPE  H12R 3674   7.429   1.127   5.250 -0.0064 -0.8160  0.8640
   29DOPE  H12S 3675   7.512   1.284   5.253  2.5037 -1.2537 -0.5509
   29DOPE  C213 3676   7.311   1.277   5.354  0.3030  0.1003 -0.2089
   29DOPE  H13R 3677   7.313   1.308   5.460 -1.4130  0.7010 -0.3250
   29DOPE  H13S 3678   7.235   1.198   5.335  0.3445 -0.1555  0.6411
   29DOPE  C214 3679   7.284   1.401   5.268  0.7015  0.2188 -0.5319
   29DOPE  H14R 3680   7.290   1.366   5.163  2.6968 -0.7528 -0.1303
   29DOPE  H14S 3681   7.366   1.475   5.275  0.2933  0.6457 -0.0716
   29DOPE  C215 3682   7.157   1.486   5.319 -0.6544 -0.3534 -0.6203
   29DOPE  H15R 3683   7.154   1.577   5.256  1.1733 -0.4825 -0.9623
   29DOPE  H15S 3684   7.177   1.518   5.423 -2.2020 -0.6582 -0.2091
   29DOPE  C216 3685   7.019   1.413   5.322  0.2657 -0.4358 -0.1223
   29DOPE  H16R 3686   7.040   1.310   5.359 -0.8057 -0.5967  0.0755
   29DOPE  H16S 3687   6.979   1.419   5.218  0.6209 -0.1001 -0.2409
   29DOPE  C217 3688   6.912   1.477   5.409 -0.2057 -0.4664 -0.3205
   29DOPE  H17R 3689   6.941   1.463   5.515  2.6706  2.0367 -0.6492
   29DOPE  H17S 3690   6.820   1.417   5.388 -0.9490  0.2617  0.7269
   29DOPE  C218 3691   6.902   1.621   5.386  0.0017 -0.3976 -0.3886
   29DOPE  H18R 3692   6.978   1.683   5.437 -0.8706  0.0610  0.3949
   29DOPE  H18S 3693   6.810   1.669   5.426  0.8316  1.8818 -1.0333
   29DOPE  H18T 3694   6.914   1.635   5.276  2.5089  0.8493 -0.0158
   29DOPE   C33 3695   6.749   0.547   6.545 -0.0311  0.0474 -0.9431
   29DOPE   H3X 3696   6.830   0.524   6.473  0.2336  0.3296 -0.7389
   29DOPE   H3Y 3697   6.674   0.609   6.491 -0.0195  1.0404  0.1284
   29DOPE   C34 3698   6.694   0.405   6.584 -0.5154 -0.0344  0.4019
   29DOPE   H4X 3699   6.777   0.333   6.604 -0.8179 -1.1381 -2.0167
   29DOPE   H4Y 3700   6.636   0.408   6.679 -1.2686  1.6227 -0.0849
   29DOPE   C35 3701   6.603   0.336   6.481  0.0466 -0.0558 -0.1186
   29DOPE   H5X 3702   6.561   0.249   6.537 -0.7458  0.9432  0.8760
   29DOPE   H5Y 3703   6.662   0.287   6.401  1.6282 -0.9295  1.4869
   29DOPE   C36 3704   6.493   0.422   6.420 -0.3335  0.0310 -0.1326
   29DOPE   H6X 3705   6.536   0.499   6.352  2.0492 -1.6148 -0.6357
   29DOPE   H6Y 3706   6.432   0.483   6.489  1.7794 -1.3032  3.1654
   29DOPE   C37 3707   6.382   0.350   6.345  0.0814  0.3889 -0.7558
   29DOPE   H7X 3708   6.305   0.322   6.421  1.0506  0.2599  0.1961
   29DOPE   H7Y 3709   6.328   0.424   6.282  1.1835  0.0077 -2.1985
   29DOPE   C38 3710   6.425   0.224   6.266  0.0339 -0.8726  0.6033
   29DOPE   H8X 3711   6.330   0.199   6.213  0.0159  0.2135  0.1130
   29DOPE   H8Y 3712   6.461   0.146   6.337 -0.5997 -1.4397  0.3187
   29DOPE   C39 3713   6.532   0.263   6.164  0.0731  0.8354 -0.1210
   29DOPE   H9X 3714   6.634   0.284   6.200  0.9598  0.2976 -2.1613
   29DOPE  C310 3715   6.524   0.304   6.045  0.1132 -0.1543  0.3851
   29DOPE  H10X 3716   6.613   0.324   5.984 -0.3735 -0.4622 -0.4324
   29DOPE  C311 3717   6.392   0.307   5.962  0.7062 -0.2809 -0.4949
   29DOPE  H11X 3718   6.325   0.227   5.999 -1.1021  1.5114  0.3601
   29DOPE  H11Y 3719   6.340   0.398   6.000  2.8626  1.7047 -1.9808
   29DOPE  C312 3720   6.426   0.322   5.815 -0.8434 -0.2718 -0.0614
   29DOPE  H12X 3721   6.460   0.223   5.778 -0.3511  0.3580 -1.3409
   29DOPE  H12Y 3722   6.512   0.391   5.798  0.1583 -1.0931  1.4208
   29DOPE  C313 3723   6.306   0.368   5.735 -0.1006  0.4182  0.3954
   29DOPE  H13X 3724   6.222   0.297   5.750 -1.5741  1.6955 -1.3676
   29DOPE  H13Y 3725   6.280   0.469   5.774  1.5977  1.5360 -1.1816
   29DOPE  C314 3726   6.314   0.387   5.583 -0.6307  0.0206 -0.6210
   29DOPE  H14X 3727   6.404   0.449   5.562 -1.4706  1.1298 -1.0740
   29DOPE  H14Y 3728   6.220   0.431   5.542 -1.1207  1.6355  2.0141
   29DOPE  C315 3729   6.350   0.262   5.494 -0.1460  0.1332  0.0022
   29DOPE  H15X 3730   6.272   0.183   5.497 -0.3095  0.3184  0.6588
   29DOPE  H15Y 3731   6.435   0.205   5.538 -0.5475 -0.2906  0.2367
   29DOPE  C316 3732   6.388   0.301   5.352 -1.2917  0.4084 -0.0881
   29DOPE  H16X 3733   6.415   0.206   5.301  0.4730  0.1386  1.2571
   29DOPE  H16Y 3734   6.475   0.371   5.350 -1.2645  0.3740 -0.0851
   29DOPE  C317 3735   6.269   0.355   5.275 -0.3756 -0.4321 -0.9853
   29DOPE  H17X 3736   6.232   0.448   5.322 -0.3879 -0.8545 -0.1255
   29DOPE  H17Y 3737   6.312   0.387   5.178 -0.2298  0.5801 -0.6003
   29DOPE  C318 3738   6.154   0.260   5.256  0.3423  0.1575 -0.3323
   29DOPE  H18X 3739   6.091   0.255   5.347  2.1319  1.2432  1.0270
   29DOPE  H18Y 3740   6.088   0.290   5.171 -0.5983  1.6963  0.8895
   29DOPE  H18Z 3741   6.181   0.154   5.237 -2.3018 -1.3258  3.1301
   30DOPE     N 3742   7.455   6.927   7.055  0.5045 -0.2079 -0.3715
   30DOPE   HN1 3743   7.451   7.024   7.020 -1.6617 -0.0606  0.1587
   30DOPE   HN2 3744   7.360   6.886   7.055  1.0040 -1.4324 -0.5640
   30DOPE   HN3 3745   7.485   6.926   7.155 -0.7670 -2.5470  0.0653
   30DOPE   C12 3746   7.536   6.836   6.963  0.0737 -0.6405 -0.7199
   30DOPE  H12A 3747   7.489   6.854   6.864  0.3131  0.7181 -0.6040
   30DOPE  H12B 3748   7.520   6.731   6.998 -1.1244 -0.0094  0.7674
   30DOPE   C11 3749   7.677   6.890   6.967  0.1164  0.0573 -0.4395
   30DOPE  H11A 3750   7.750   6.825   6.913 -1.4572 -2.0842 -0.1467
   30DOPE  H11B 3751   7.717   6.897   7.071 -0.0817 -0.2292 -0.3419
   30DOPE     P 3752   7.800   7.086   6.842 -0.0467  0.3100  0.0712
   30DOPE   O13 3753   7.906   6.983   6.821 -0.5654  0.0666 -0.7896
   30DOPE   O14 3754   7.848   7.205   6.909 -0.5206  0.1241 -0.3720
   30DOPE   O11 3755   7.759   7.129   6.697  0.2844  0.1895 -0.0525
   30DOPE   O12 3756   7.678   7.024   6.921 -0.0358  0.3364 -0.0697
   30DOPE    C1 3757   7.625   7.180   6.667  0.2657 -0.1801  0.0832
   30DOPE    HA 3758   7.594   7.257   6.741  0.7634  1.5016 -1.3718
   30DOPE    HB 3759   7.551   7.099   6.678  1.0435 -0.8647  0.3291
   30DOPE    C2 3760   7.624   7.246   6.526  0.0192 -0.3712  0.5760
   30DOPE    HS 3761   7.518   7.277   6.512  0.0977 -0.1343  0.5086
   30DOPE   O21 3762   7.668   7.155   6.422 -0.4340  0.2417  0.6313
   30DOPE   C21 3763   7.576   7.072   6.385  0.5515  0.3084  0.2524
   30DOPE   O22 3764   7.457   7.073   6.417 -0.4558  0.1987 -0.2387
   30DOPE   C22 3765   7.639   6.957   6.292 -0.0223 -0.8567 -0.4112
   30DOPE   H2R 3766   7.626   6.870   6.360 -0.6359  0.5876  1.3747
   30DOPE   H2S 3767   7.745   6.989   6.294 -0.6278  1.2721  1.8181
   30DOPE    C3 3768   7.707   7.383   6.526  0.0012 -0.5416  0.4442
   30DOPE    HX 3769   7.812   7.362   6.553  0.5247  2.1411  0.7800
   30DOPE    HY 3770   7.670   7.450   6.606  1.9526  1.0458  0.0934
   30DOPE   O31 3771   7.692   7.438   6.397  0.0392  0.7734  0.0307
   30DOPE   C31 3772   7.577   7.505   6.371 -1.0254  0.5587 -0.4390
   30DOPE   O32 3773   7.482   7.513   6.450 -0.3427 -0.0163 -0.0289
   30DOPE   C32 3774   7.598   7.587   6.246 -0.4764  0.2243 -0.1533
   30DOPE   H2X 3775   7.597   7.691   6.284 -0.4359 -0.3376  1.4928
   30DOPE   H2Y 3776   7.702   7.572   6.212  1.5849 -0.8662  5.4525
   30DOPE   C23 3777   7.553   6.932   6.162  0.2986 -0.8218 -0.1018
   30DOPE   H3R 3778   7.550   7.013   6.085  2.4484 -1.0562 -0.4772
   30DOPE   H3S 3779   7.453   6.935   6.210  1.0252 -2.2318  1.5767
   30DOPE   C24 3780   7.588   6.804   6.092 -0.0096 -0.3588 -0.4440
   30DOPE   H4R 3781   7.497   6.745   6.117 -2.0765  3.4080  2.0264
   30DOPE   H4S 3782   7.676   6.763   6.147 -0.8012 -1.8659 -0.2494
   30DOPE   C25 3783   7.617   6.820   5.940 -0.0139 -0.1131  0.0775
   30DOPE   H5R 3784   7.525   6.862   5.895 -0.3829 -0.8644  0.1153
   30DOPE   H5S 3785   7.635   6.720   5.895 -1.1094  1.0682 -3.2454
   30DOPE   C26 3786   7.739   6.919   5.899  0.5122  0.4517  0.2279
   30DOPE   H6R 3787   7.826   6.883   5.958  1.5629  2.6327  0.1068
   30DOPE   H6S 3788   7.714   7.023   5.928  0.2220  0.6461 -0.6944
   30DOPE   C27 3789   7.775   6.912   5.747 -0.4362 -0.1686 -0.1784
   30DOPE   H7R 3790   7.677   6.918   5.695 -0.9068  0.8602  0.7728
   30DOPE   H7S 3791   7.825   6.819   5.713 -1.9379 -1.1398  0.1368
   30DOPE   C28 3792   7.866   7.028   5.704 -0.5692  0.5173 -0.3708
   30DOPE   H8R 3793   7.960   7.020   5.763 -0.7471 -0.9656 -0.2554
   30DOPE   H8S 3794   7.818   7.122   5.737 -2.0861 -0.2787 -0.2441
   30DOPE   C29 3795   7.887   7.010   5.555 -0.0535  0.5691 -0.5266
   30DOPE   H9R 3796   7.794   6.986   5.501 -1.3024  1.4971  1.0966
   30DOPE  C210 3797   8.002   7.008   5.497 -0.6065  0.1668  0.2794
   30DOPE  H10R 3798   7.998   6.973   5.393 -2.5943  0.8671  0.0639
   30DOPE  C211 3799   8.138   7.029   5.560  0.2407 -0.3618  0.2691
   30DOPE  H11R 3800   8.202   6.942   5.534  0.6118 -0.2027  0.6481
   30DOPE  H11S 3801   8.140   7.026   5.671 -1.2512 -1.6873  0.2924
   30DOPE  C212 3802   8.211   7.158   5.521 -0.3667  0.1215 -0.3402
   30DOPE  H12R 3803   8.296   7.173   5.591  0.6065 -0.0082 -1.4666
   30DOPE  H12S 3804   8.139   7.243   5.530 -0.5428 -0.2082  2.1944
   30DOPE  C213 3805   8.266   7.146   5.379  0.4007  0.4425  0.1078
   30DOPE  H13R 3806   8.185   7.113   5.310  1.5463  0.0129 -1.0770
   30DOPE  H13S 3807   8.331   7.056   5.378 -1.1178 -0.6830  0.1337
   30DOPE  C214 3808   8.322   7.277   5.328 -0.9297 -0.1176  0.2727
   30DOPE  H14R 3809   8.407   7.304   5.394 -0.0933  0.7634 -1.1247
   30DOPE  H14S 3810   8.240   7.352   5.336 -0.9833 -0.0157 -0.9665
   30DOPE  C215 3811   8.377   7.289   5.185 -0.2082 -0.5192 -0.3118
   30DOPE  H15R 3812   8.424   7.390   5.176 -0.9309 -0.0690  0.8319
   30DOPE  H15S 3813   8.284   7.287   5.125 -1.4098  1.1449  1.4027
   30DOPE  C216 3814   8.469   7.177   5.131  0.2507  0.2826  0.2359
   30DOPE  H16R 3815   8.410   7.084   5.116  1.0292 -0.3353  0.8529
   30DOPE  H16S 3816   8.550   7.158   5.205  1.3569  1.3319 -0.6621
   30DOPE  C217 3817   8.523   7.215   4.992 -1.3047  0.7945  0.4694
   30DOPE  H17R 3818   8.621   7.163   4.985 -1.6483 -0.0295  1.6274
   30DOPE  H17S 3819   8.541   7.325   4.995  0.5693  0.5886 -0.8848
   30DOPE  C218 3820   8.434   7.178   4.873  0.3789  0.0060  0.2758
   30DOPE  H18R 3821   8.486   7.191   4.775  0.6240 -4.2906 -0.3593
   30DOPE  H18S 3822   8.336   7.228   4.888  0.9748  1.4728 -0.4997
   30DOPE  H18T 3823   8.412   7.069   4.875  3.7115 -0.9376 -2.8742
   30DOPE   C33 3824   7.492   7.544   6.142 -0.1361  0.3657  0.2060
   30DOPE   H3X 3825   7.512   7.601   6.049  0.2627  0.2480  0.2153
   30DOPE   H3Y 3826   7.390   7.566   6.178 -0.5738 -0.8117 -0.2786
   30DOPE   C34 3827   7.502   7.390   6.113 -0.0099  0.1311  0.6359
   30DOPE   H4X 3828   7.488   7.334   6.207  0.2980 -0.8998  0.0880
   30DOPE   H4Y 3829   7.423   7.364   6.039 -0.4494 -3.0447  2.0689
   30DOPE   C35 3830   7.630   7.345   6.045  0.1104 -0.0452  0.1623
   30DOPE   H5X 3831   7.632   7.236   6.029  0.7499 -0.0820  0.4949
   30DOPE   H5Y 3832   7.712   7.361   6.118 -0.5474  0.2315  0.8583
   30DOPE   C36 3833   7.664   7.418   5.919  0.0300 -0.1914  0.1517
   30DOPE   H6X 3834   7.771   7.398   5.897  0.6609  1.6953  1.2655
   30DOPE   H6Y 3835   7.668   7.528   5.937  0.4476 -0.1381 -0.2307
   30DOPE   C37 3836   7.574   7.374   5.801 -0.3636 -0.1352 -0.4872
   30DOPE   H7X 3837   7.595   7.266   5.788 -1.3970 -0.4337  0.2266
   30DOPE   H7Y 3838   7.471   7.389   5.841 -0.9287 -3.0651 -0.6369
   30DOPE   C38 3839   7.580   7.452   5.664 -0.2636 -0.7675 -0.6696
   30DOPE   H8X 3840   7.551   7.559   5.676  1.5647 -0.1061 -1.7645
   30DOPE   H8Y 3841   7.505   7.412   5.592  1.2338 -0.8218 -2.2682
   30DOPE   C39 3842   7.718   7.445   5.592 -0.1523 -0.3150 -0.0102
   30DOPE   H9X 3843   7.801   7.491   5.648 -0.9423  0.4287  0.5700
   30DOPE  C310 3844   7.749   7.384   5.475 -0.1667  0.4221  0.2731
   30DOPE  H10X 3845   7.844   7.406   5.423 -0.5452 -0.4356 -0.8007
   30DOPE  C311 3846   7.638   7.329   5.381 -0.7895 -0.4513 -0.3959
   30DOPE  H11X 3847   7.622   7.228   5.424  0.1471 -1.0016 -1.3041
   30DOPE  H11Y 3848   7.549   7.395   5.388 -0.2610  0.5703 -2.5232
   30DOPE  C312 3849   7.672   7.318   5.229 -0.4857  0.1452 -0.3675
   30DOPE  H12X 3850   7.710   7.412   5.183 -0.9894 -1.0981 -3.6463
   30DOPE  H12Y 3851   7.579   7.298   5.171 -0.4094  0.4101 -0.5856
   30DOPE  C313 3852   7.772   7.205   5.190  0.2175  0.2146 -0.4846
   30DOPE  H13X 3853   7.875   7.227   5.227 -0.2226  0.0939  0.8821
   30DOPE  H13Y 3854   7.741   7.103   5.221  0.2972  0.5400  0.7037
   30DOPE  C314 3855   7.807   7.221   5.036 -0.3430  0.8695  0.5816
   30DOPE  H14X 3856   7.832   7.327   5.011  0.7577  0.3734 -0.5717
   30DOPE  H14Y 3857   7.715   7.183   4.986 -0.1162  0.7090  0.2832
   30DOPE  C315 3858   7.930   7.136   4.997 -0.4861  0.4778  0.0938
   30DOPE  H15X 3859   8.024   7.179   5.040  1.0195 -1.3304 -1.2374
   30DOPE  H15Y 3860   7.942   7.141   4.887 -1.0605  0.9674  0.0496
   30DOPE  C316 3861   7.924   6.988   5.043  0.0905  0.5755  0.2546
   30DOPE  H16X 3862   7.829   6.949   5.002  0.7153  2.2949 -3.1798
   30DOPE  H16Y 3863   7.919   6.995   5.154  1.7328  1.9484  0.2848
   30DOPE  C317 3864   8.049   6.904   5.020 -0.0328 -1.0939  0.8576
   30DOPE  H17X 3865   8.129   6.968   5.063 -0.6840  1.0100 -0.9318
   30DOPE  H17Y 3866   8.059   6.798   5.053  3.5877 -1.4447 -0.8595
   30DOPE  C318 3867   8.083   6.889   4.867  1.0291  0.2100 -0.1883
   30DOPE  H18X 3868   8.015   6.933   4.791 -0.9433 -2.0431  0.1575
   30DOPE  H18Y 3869   8.188   6.923   4.857  1.3660 -0.2293  1.6069
   30DOPE  H18Z 3870   8.081   6.781   4.842  0.4725  0.1882 -0.0601
   31DOPE     N 3871   2.624   3.797   2.796 -0.1371  0.7034 -0.4544
   31DOPE   HN1 3872   2.615   3.848   2.706 -2.5106 -0.5037 -0.9597
   31DOPE   HN2 3873   2.534   3.795   2.848  1.9191  0.2884  3.5227
   31DOPE   HN3 3874   2.686   3.843   2.867 -0.2117 -0.9669  0.7574
   31DOPE   C12 3875   2.669   3.658   2.778 -0.0005  0.9170  0.4720
   31DOPE  H12A 3876   2.617   3.620   2.687 -0.7048  0.9096  0.8691
   31DOPE  H12B 3877   2.627   3.595   2.859  1.2994 -1.3010 -0.4719
   31DOPE   C11 3878   2.817   3.642   2.760 -0.4071  0.3817  0.2424
   31DOPE  H11A 3879   2.851   3.708   2.676  0.9924 -2.1708 -1.3220
   31DOPE  H11B 3880   2.834   3.539   2.722  0.6414  0.5513  0.2085
   31DOPE     P 3881   2.911   3.559   2.980  0.4905 -0.0854  0.5125
   31DOPE   O13 3882   2.948   3.432   2.907  0.1622 -0.5301 -0.3225
   31DOPE   O14 3883   2.787   3.555   3.065 -0.1292 -0.6545 -0.6260
   31DOPE   O11 3884   3.033   3.612   3.067  0.0126 -0.3166 -0.4556
   31DOPE   O12 3885   2.896   3.679   2.882 -0.0844 -0.3292 -0.4021
   31DOPE    C1 3886   3.072   3.535   3.179 -0.3797  0.3433  0.0867
   31DOPE    HA 3887   3.175   3.568   3.204  0.0261 -2.3485  2.5337
   31DOPE    HB 3888   3.077   3.428   3.149  1.6249  0.4342 -0.0505
   31DOPE    C2 3889   2.999   3.556   3.315  0.6437  0.2017 -0.1469
   31DOPE    HS 3890   2.889   3.543   3.300  0.8640 -1.4007 -0.4879
   31DOPE   O21 3891   3.036   3.680   3.379 -0.0377 -0.1241  0.6890
   31DOPE   C21 3892   2.948   3.729   3.463 -0.5970  0.1833  0.6872
   31DOPE   O22 3893   2.831   3.689   3.477 -0.2495  0.1356  0.2942
   31DOPE   C22 3894   3.018   3.827   3.552  0.3567  0.4116 -0.3436
   31DOPE   H2R 3895   2.956   3.919   3.547 -0.6187 -0.2985 -2.2722
   31DOPE   H2S 3896   3.124   3.844   3.523  0.1677 -0.7138 -1.7784
   31DOPE    C3 3897   3.054   3.440   3.405  0.3998 -0.6017  1.1065
   31DOPE    HX 3898   3.163   3.426   3.389  0.2579 -0.7145  0.2144
   31DOPE    HY 3899   3.022   3.342   3.364  0.6649  0.3041 -1.4227
   31DOPE   O31 3900   3.011   3.439   3.542  0.2023  0.2652 -1.1621
   31DOPE   C31 3901   2.886   3.396   3.567 -0.2846  0.9073  0.2994
   31DOPE   O32 3902   2.813   3.346   3.484  0.1850 -0.4975 -0.0027
   31DOPE   C32 3903   2.844   3.427   3.707 -0.2590 -0.4153  0.2228
   31DOPE   H2X 3904   2.923   3.488   3.757  0.8653 -0.7040 -1.1316
   31DOPE   H2Y 3905   2.751   3.487   3.707 -0.1813 -0.2555 -1.2292
   31DOPE   C23 3906   3.031   3.764   3.695 -0.4606  0.0487  0.0501
   31DOPE   H3R 3907   3.091   3.672   3.682  1.0452  1.1409 -1.0053
   31DOPE   H3S 3908   2.932   3.734   3.737 -0.1604  1.0580  1.5436
   31DOPE   C24 3909   3.090   3.864   3.784 -0.4076  0.8415 -0.0548
   31DOPE   H4R 3910   3.186   3.907   3.748 -0.0299 -1.1340 -1.5488
   31DOPE   H4S 3911   3.113   3.821   3.884 -2.1591  1.1487  0.5234
   31DOPE   C25 3912   2.997   3.975   3.819  0.0644 -1.1867 -0.2127
   31DOPE   H5R 3913   2.903   3.934   3.862  0.8958 -2.1722  0.7041
   31DOPE   H5S 3914   2.969   4.038   3.731 -1.6775 -1.0992  0.3668
   31DOPE   C26 3915   3.053   4.078   3.926 -0.3864  0.6766  0.6857
   31DOPE   H6R 3916   3.146   4.125   3.889  0.1820 -0.5344  0.5488
   31DOPE   H6S 3917   3.085   4.018   4.014 -0.4063  1.8366  1.5106
   31DOPE   C27 3918   2.950   4.186   3.964 -0.3148  0.3792 -0.5980
   31DOPE   H7R 3919   2.879   4.134   4.033 -0.6363 -0.2002 -1.3564
   31DOPE   H7S 3920   2.901   4.235   3.877 -0.6607 -1.6533 -1.5981
   31DOPE   C28 3921   3.020   4.298   4.050  0.4204  0.6450  0.0819
   31DOPE   H8R 3922   3.104   4.349   3.997  0.0498 -0.3975 -1.5732
   31DOPE   H8S 3923   3.059   4.247   4.140 -0.4632  0.5330  0.4091
   31DOPE   C29 3924   2.918   4.404   4.085  0.2267 -0.0560 -0.1428
   31DOPE   H9R 3925   2.875   4.455   3.998 -1.4054  1.1800  1.3300
   31DOPE  C210 3926   2.852   4.429   4.199  0.0033 -0.8219 -0.3491
   31DOPE  H10R 3927   2.768   4.500   4.195 -0.2966 -1.2099 -1.1868
   31DOPE  C211 3928   2.878   4.380   4.342 -0.1620  0.5558 -0.1892
   31DOPE  H11R 3929   2.943   4.291   4.328 -1.0431 -0.3703  1.3083
   31DOPE  H11S 3930   2.780   4.352   4.386 -0.1922  0.5773 -0.2425
   31DOPE  C212 3931   2.952   4.474   4.434 -0.1056 -0.1195  0.6549
   31DOPE  H12R 3932   3.043   4.499   4.376 -1.5875  1.6034 -1.0642
   31DOPE  H12S 3933   2.987   4.418   4.523 -1.1180 -1.8690  0.0076
   31DOPE  C213 3934   2.876   4.598   4.489 -0.2037 -0.3123  0.0992
   31DOPE  H13R 3935   2.800   4.555   4.557 -0.0092 -0.1950  0.3896
   31DOPE  H13S 3936   2.836   4.651   4.399 -1.2283 -0.0402  0.6922
   31DOPE  C214 3937   2.962   4.694   4.574  0.6048  0.1116  0.4923
   31DOPE  H14R 3938   3.048   4.736   4.516  0.0426  2.0858  1.0187
   31DOPE  H14S 3939   3.002   4.635   4.659 -0.4582  0.2147  1.0685
   31DOPE  C215 3940   2.876   4.816   4.598  0.3142  0.7450 -0.1695
   31DOPE  H15R 3941   2.832   4.858   4.505  0.7386 -2.1442 -1.7796
   31DOPE  H15S 3942   2.946   4.896   4.631 -0.1508  1.1402 -0.1376
   31DOPE  C216 3943   2.778   4.800   4.711  0.3463 -0.3952 -0.4658
   31DOPE  H16R 3944   2.832   4.737   4.785 -0.8233 -2.0168 -0.9501
   31DOPE  H16S 3945   2.687   4.746   4.678 -0.3637 -1.6231  3.0802
   31DOPE  C217 3946   2.733   4.933   4.770 -0.0669  0.2220 -0.1138
   31DOPE  H17R 3947   2.686   4.993   4.689  1.5015  0.1983 -1.0889
   31DOPE  H17S 3948   2.823   4.983   4.814 -0.4587  1.1263 -0.3097
   31DOPE  C218 3949   2.637   4.912   4.889  0.0489  0.4774 -0.1484
   31DOPE  H18R 3950   2.686   4.842   4.960  0.5311  1.4924  0.5533
   31DOPE  H18S 3951   2.536   4.879   4.859 -0.1267 -0.3559  1.2795
   31DOPE  H18T 3952   2.625   5.009   4.942 -0.0764  0.3692  0.0209
   31DOPE   C33 3953   2.831   3.310   3.808  0.5743  0.6001  0.1949
   31DOPE   H3X 3954   2.727   3.281   3.781  0.9742 -0.3505 -0.3537
   31DOPE   H3Y 3955   2.831   3.357   3.908  0.9047  2.0325 -0.4523
   31DOPE   C34 3956   2.932   3.196   3.792  0.0486  0.0870 -0.3490
   31DOPE   H4X 3957   2.910   3.147   3.695  1.5033 -0.3349 -0.4903
   31DOPE   H4Y 3958   3.036   3.227   3.766 -0.8171  3.1854 -0.5925
   31DOPE   C35 3959   2.927   3.087   3.903 -0.4689  0.7323 -0.1739
   31DOPE   H5X 3960   2.822   3.051   3.908 -0.2281  0.2423  2.4566
   31DOPE   H5Y 3961   2.964   3.133   3.997 -1.1566  0.9282  0.0065
   31DOPE   C36 3962   3.014   2.970   3.862 -0.4095  0.3836 -0.5809
   31DOPE   H6X 3963   3.115   3.012   3.837 -0.2437  0.7444  0.6275
   31DOPE   H6Y 3964   2.972   2.929   3.768 -2.3405 -0.1742  0.4657
   31DOPE   C37 3965   3.025   2.853   3.964 -1.1489 -0.6376 -0.0858
   31DOPE   H7X 3966   2.930   2.853   4.021 -1.5845  3.0214 -0.5718
   31DOPE   H7Y 3967   3.029   2.754   3.914  0.5523  0.2756 -1.8845
   31DOPE   C38 3968   3.135   2.884   4.063 -0.5560  0.1844 -0.2087
   31DOPE   H8X 3969   3.128   2.993   4.084  2.6076  0.0998  1.8882
   31DOPE   H8Y 3970   3.238   2.867   4.026 -0.0660 -0.5441  1.3726
   31DOPE   C39 3971   3.130   2.794   4.193 -0.0639  0.0412 -0.0671
   31DOPE   H9X 3972   3.145   2.687   4.172  0.2250  0.4679 -2.3802
   31DOPE  C310 3973   3.114   2.821   4.328 -0.0297  0.2582  0.0611
   31DOPE  H10X 3974   3.112   2.727   4.386 -2.3336 -1.3981 -2.4372
   31DOPE  C311 3975   3.118   2.951   4.399  0.4252  0.2132  0.1413
   31DOPE  H11X 3976   3.159   3.025   4.326  0.4946 -0.9477 -1.0306
   31DOPE  H11Y 3977   3.017   2.984   4.431 -0.4885 -0.9944 -1.3457
   31DOPE  C312 3978   3.205   2.946   4.530 -0.3805  0.8806  0.1554
   31DOPE  H12X 3979   3.172   2.860   4.592 -1.1610  0.5102 -0.7393
   31DOPE  H12Y 3980   3.188   3.045   4.578  0.4378  2.4528 -2.5274
   31DOPE  C313 3981   3.359   2.924   4.500  0.3273 -0.3754 -0.2032
   31DOPE  H13X 3982   3.388   2.824   4.462  1.2271 -0.2454  0.1148
   31DOPE  H13Y 3983   3.380   2.997   4.418  1.7093 -0.1197  0.3495
   31DOPE  C314 3984   3.450   2.981   4.614 -0.4731  0.4138 -0.1685
   31DOPE  H14X 3985   3.443   2.904   4.694 -1.4393 -1.0286 -1.5677
   31DOPE  H14Y 3986   3.403   3.076   4.649 -1.6346 -0.0268 -0.4911
   31DOPE  C315 3987   3.595   3.007   4.574  0.2995 -0.1460  0.2443
   31DOPE  H15X 3988   3.596   3.092   4.502  2.4111  1.6207  2.2025
   31DOPE  H15Y 3989   3.631   2.917   4.519 -1.6488  0.0801 -1.5507
   31DOPE  C316 3990   3.689   3.053   4.685 -0.2948 -0.3040 -0.0466
   31DOPE  H16X 3991   3.653   3.154   4.713  0.0841  0.7976 -3.1446
   31DOPE  H16Y 3992   3.787   3.066   4.634 -0.5310  1.4355 -0.1031
   31DOPE  C317 3993   3.716   2.952   4.793  0.2358 -0.3727  0.2499
   31DOPE  H17X 3994   3.677   2.854   4.757  0.5247  0.4386 -2.4906
   31DOPE  H17Y 3995   3.826   2.959   4.806 -0.0476  4.4231  2.3227
   31DOPE  C318 3996   3.653   2.986   4.935 -0.3260  0.2365  0.3089
   31DOPE  H18X 3997   3.675   3.093   4.955  1.7134 -0.2597  1.0424
   31DOPE  H18Y 3998   3.545   2.962   4.939 -0.1054 -0.6519  1.8791
   31DOPE  H18Z 3999   3.706   2.921   5.008 -0.6777 -0.4105 -0.0033
   32DOPE     N 4000   5.307   3.931   2.938 -0.3651 -0.3446  0.0094
   32DOPE   HN1 4001   5.212   3.890   2.950  0.0644 -2.6091 -3.2725
   32DOPE   HN2 4002   5.305   4.031   2.911 -1.1899  0.3897  2.4622
   32DOPE   HN3 4003   5.347   3.869   2.865  0.9951  1.1971 -0.6111
   32DOPE   C12 4004   5.386   3.913   3.060 -0.6766 -0.4940  0.6343
   32DOPE  H12A 4005   5.325   3.966   3.136  0.9662 -0.1116  1.7674
   32DOPE  H12B 4006   5.489   3.953   3.048 -0.6837  0.1693  2.4165
   32DOPE   C11 4007   5.411   3.760   3.088 -0.2487 -0.0463 -0.4226
   32DOPE  H11A 4008   5.316   3.718   3.128 -0.9566 -0.5460 -2.4850
   32DOPE  H11B 4009   5.483   3.757   3.172  0.7853 -3.2424 -1.2987
   32DOPE     P 4010   5.495   3.530   2.995 -0.0194 -0.1656  0.3023
   32DOPE   O13 4011   5.562   3.482   2.873 -0.0186 -0.0019  0.2363
   32DOPE   O14 4012   5.375   3.454   3.041 -0.2834 -0.0450  0.1524
   32DOPE   O11 4013   5.604   3.524   3.110 -0.5083  0.4089  0.4392
   32DOPE   O12 4014   5.461   3.686   2.977  0.3692  0.4467  0.1854
   32DOPE    C1 4015   5.616   3.404   3.191  0.0628  0.0157  0.0442
   32DOPE    HA 4016   5.638   3.310   3.135  2.4933 -0.5321  1.7811
   32DOPE    HB 4017   5.523   3.386   3.249 -0.4786 -1.4329 -1.1843
   32DOPE    C2 4018   5.723   3.409   3.296  0.9111  0.1099  0.4722
   32DOPE    HS 4019   5.680   3.486   3.365 -1.1945  0.7421 -1.4373
   32DOPE   O21 4020   5.844   3.450   3.232 -0.5991 -0.2372  0.2691
   32DOPE   C21 4021   5.915   3.529   3.310 -0.1833 -0.1603  0.2534
   32DOPE   O22 4022   5.880   3.578   3.414 -0.4426 -0.4536 -0.1490
   32DOPE   C22 4023   6.050   3.551   3.239 -0.6420 -0.0084 -0.5235
   32DOPE   H2R 4024   6.106   3.621   3.305 -2.2240 -1.7958  3.0623
   32DOPE   H2S 4025   6.030   3.596   3.140  0.5839  0.5174 -0.5557
   32DOPE    C3 4026   5.735   3.271   3.368 -0.2216  0.6991 -0.5161
   32DOPE    HX 4027   5.799   3.206   3.304 -1.0609 -1.1190  0.4218
   32DOPE    HY 4028   5.634   3.225   3.370 -0.2029  0.6387 -0.8720
   32DOPE   O31 4029   5.788   3.288   3.500 -0.1156 -0.0691 -0.0510
   32DOPE   C31 4030   5.702   3.338   3.589  0.3676 -0.3672 -0.9071
   32DOPE   O32 4031   5.587   3.378   3.573  0.3215  0.5792 -0.2735
   32DOPE   C32 4032   5.778   3.354   3.726  0.2578 -0.3706 -0.2707
   32DOPE   H2X 4033   5.865   3.285   3.716 -0.0053 -0.8796  0.8028
   32DOPE   H2Y 4034   5.825   3.454   3.737 -0.5022 -0.0531  0.1897
   32DOPE   C23 4035   6.134   3.417   3.234 -0.0626  0.8560 -0.1082
   32DOPE   H3R 4036   6.229   3.437   3.180  0.7235  1.3792  1.4211
   32DOPE   H3S 4037   6.076   3.355   3.163  0.1114  1.7741 -1.0812
   32DOPE   C24 4038   6.167   3.346   3.370 -0.0687 -0.1496 -0.5080
   32DOPE   H4R 4039   6.223   3.251   3.354 -0.5135 -0.4833 -0.0864
   32DOPE   H4S 4040   6.068   3.308   3.402  0.7860 -2.1383 -0.0472
   32DOPE   C25 4041   6.229   3.433   3.486 -0.0869 -0.5862  0.7061
   32DOPE   H5R 4042   6.196   3.537   3.466 -1.9713 -0.7877  2.5194
   32DOPE   H5S 4043   6.340   3.427   3.489 -0.1611 -1.5167  2.5543
   32DOPE   C26 4044   6.182   3.388   3.618  0.1066  0.1095 -0.0887
   32DOPE   H6R 4045   6.243   3.304   3.659 -0.7378 -0.1476  0.6770
   32DOPE   H6S 4046   6.080   3.344   3.614 -0.3718  1.1869  0.0450
   32DOPE   C27 4047   6.182   3.505   3.720 -0.5727  0.7884  0.0835
   32DOPE   H7R 4048   6.097   3.571   3.691 -0.6146  0.2428 -1.0927
   32DOPE   H7S 4049   6.277   3.557   3.696  0.6874 -1.4901 -0.1061
   32DOPE   C28 4050   6.174   3.457   3.862  0.3635  0.2006 -0.2725
   32DOPE   H8R 4051   6.265   3.397   3.883  1.0670  1.1407 -0.5816
   32DOPE   H8S 4052   6.078   3.404   3.877 -0.5095  2.1926  2.0204
   32DOPE   C29 4053   6.190   3.572   3.955  0.4885  0.1475  0.4005
   32DOPE   H9R 4054   6.277   3.632   3.925  0.3236  0.2561  0.1358
   32DOPE  C210 4055   6.107   3.609   4.060 -0.4313  0.1135  0.0963
   32DOPE  H10R 4056   6.126   3.704   4.112 -0.5542  0.4827 -0.5195
   32DOPE  C211 4057   5.981   3.544   4.117 -0.3276 -0.2560  0.3057
   32DOPE  H11R 4058   5.947   3.460   4.053  0.7582 -0.6397  0.2196
   32DOPE  H11S 4059   5.902   3.623   4.118  0.5006  0.6298  2.2425
   32DOPE  C212 4060   6.005   3.491   4.258  0.1756  0.2600 -0.0370
   32DOPE  H12R 4061   6.092   3.423   4.261 -1.0867 -1.4518  3.0196
   32DOPE  H12S 4062   5.923   3.424   4.292  2.2039 -1.1251  2.4480
   32DOPE  C213 4063   6.034   3.605   4.363 -0.4769  0.1053  0.3485
   32DOPE  H13R 4064   6.122   3.666   4.333 -1.2591  1.3900  0.5886
   32DOPE  H13S 4065   6.059   3.557   4.460 -2.0088  0.1776  0.8114
   32DOPE  C214 4066   5.917   3.694   4.403 -0.1596  0.3255 -0.7592
   32DOPE  H14R 4067   5.826   3.634   4.386 -2.2876  2.0686  3.0345
   32DOPE  H14S 4068   5.915   3.786   4.341  1.4995  1.9496  1.4113
   32DOPE  C215 4069   5.918   3.750   4.553  0.4209  0.4355 -0.1429
   32DOPE  H15R 4070   5.939   3.668   4.626 -0.1079  0.8934  0.5429
   32DOPE  H15S 4071   5.818   3.785   4.586  0.5255  0.1975  0.4483
   32DOPE  C216 4072   6.013   3.871   4.576  0.2482 -0.2672 -0.3202
   32DOPE  H16R 4073   6.025   3.924   4.479  1.6436 -0.5748 -0.3368
   32DOPE  H16S 4074   6.114   3.824   4.577  1.5199  2.2874  0.0155
   32DOPE  C217 4075   5.989   3.960   4.699 -0.3360 -0.1338  0.0444
   32DOPE  H17R 4076   5.975   3.882   4.777 -2.0397 -0.6880 -0.7542
   32DOPE  H17S 4077   5.886   4.002   4.703 -0.0994  0.5826 -1.0462
   32DOPE  C218 4078   6.097   4.055   4.745 -0.1720  0.5943  0.0078
   32DOPE  H18R 4079   6.116   4.125   4.661  1.1006  4.6712  3.3745
   32DOPE  H18S 4080   6.192   4.000   4.763 -0.5062  0.5961  1.9987
   32DOPE  H18T 4081   6.071   4.115   4.835 -0.1265  0.0432  0.3909
   32DOPE   C33 4082   5.691   3.321   3.850  0.1348 -0.0574 -0.7075
   32DOPE   H3X 4083   5.752   3.274   3.930  2.3251  0.4002 -2.0284
   32DOPE   H3Y 4084   5.606   3.252   3.830 -0.4057  0.0631  1.0288
   32DOPE   C34 4085   5.624   3.451   3.905  0.6725  0.3964  0.1669
   32DOPE   H4X 4086   5.703   3.519   3.943 -0.8201  2.2084  0.1966
   32DOPE   H4Y 4087   5.556   3.490   3.826 -1.8236 -1.5191  1.2099
   32DOPE   C35 4088   5.528   3.429   4.027 -0.4407  0.3812 -0.3570
   32DOPE   H5X 4089   5.441   3.365   4.004 -0.0974 -0.5036  0.6853
   32DOPE   H5Y 4090   5.472   3.519   4.061 -1.5265 -1.5429  3.5317
   32DOPE   C36 4091   5.591   3.371   4.159 -0.1974 -0.3430 -0.1767
   32DOPE   H6X 4092   5.693   3.402   4.189 -0.5430 -2.0019  3.3223
   32DOPE   H6Y 4093   5.609   3.262   4.161  2.0352 -0.0161  1.0644
   32DOPE   C37 4094   5.500   3.396   4.281  0.2314 -0.0035  0.7233
   32DOPE   H7X 4095   5.544   3.339   4.366  3.3564  1.1393  0.0092
   32DOPE   H7Y 4096   5.513   3.502   4.312  0.5702 -0.1748  1.1692
   32DOPE   C38 4097   5.348   3.358   4.258 -0.4197 -0.4240 -0.4827
   32DOPE   H8X 4098   5.309   3.417   4.172 -1.8897 -1.6636 -0.7059
   32DOPE   H8Y 4099   5.302   3.399   4.351  0.5326 -0.9322  0.2234
   32DOPE   C39 4100   5.307   3.218   4.232 -0.1823  0.3160 -0.2284
   32DOPE   H9X 4101   5.285   3.198   4.127 -2.7426  0.8283  0.1491
   32DOPE  C310 4102   5.285   3.123   4.320 -0.3766  0.2267 -0.5932
   32DOPE  H10X 4103   5.242   3.025   4.294 -0.8977 -0.0354  1.0901
   32DOPE  C311 4104   5.303   3.138   4.473  0.2426  0.1258  0.2530
   32DOPE  H11X 4105   5.353   3.231   4.507  1.1485  0.1951 -1.2055
   32DOPE  H11Y 4106   5.205   3.137   4.526  0.7643  1.1969  1.2578
   32DOPE  C312 4107   5.379   3.017   4.530  0.9926 -0.4538 -0.0079
   32DOPE  H12X 4108   5.483   3.015   4.492  1.0496 -0.2065  0.1306
   32DOPE  H12Y 4109   5.335   2.920   4.500  1.0875 -0.5199  0.0658
   32DOPE  C313 4110   5.372   2.996   4.686  0.4794 -0.2569  0.1801
   32DOPE  H13X 4111   5.268   3.011   4.721  1.0006  0.9498  1.2728
   32DOPE  H13Y 4112   5.403   2.891   4.702  0.1199 -0.4970 -0.6394
   32DOPE  C314 4113   5.456   3.099   4.766  0.1116  0.6263 -0.3923
   32DOPE  H14X 4114   5.425   3.206   4.764 -0.3384  0.4923 -0.9704
   32DOPE  H14Y 4115   5.563   3.083   4.745 -0.1295 -2.9301  0.5702
   32DOPE  C315 4116   5.457   3.060   4.919 -0.0548  0.0434 -0.2465
   32DOPE  H15X 4117   5.533   2.983   4.942 -1.9594 -1.7737  0.1762
   32DOPE  H15Y 4118   5.353   3.024   4.935 -0.1689  1.0857  1.6110
   32DOPE  C316 4119   5.493   3.183   5.004  0.4512 -0.0538 -0.1303
   32DOPE  H16X 4120   5.422   3.265   4.983  0.8175  0.2070 -0.3625
   32DOPE  H16Y 4121   5.585   3.226   4.959 -1.5513  1.6675 -2.8497
   32DOPE  C317 4122   5.514   3.176   5.152  0.9945  0.0318 -0.4735
   32DOPE  H17X 4123   5.420   3.158   5.208  3.0663 -0.4684  3.2124
   32DOPE  H17Y 4124   5.576   3.092   5.189  0.7052 -0.1270 -0.3433
   32DOPE  C318 4125   5.566   3.309   5.211  0.5376  0.4517  1.4524
   32DOPE  H18X 4126   5.553   3.325   5.320  0.4583  2.6674  1.1811
   32DOPE  H18Y 4127   5.675   3.311   5.189  0.0028  1.1918 -1.6979
   32DOPE  H18Z 4128   5.522   3.394   5.153  0.4492  0.5474  1.6556
   33DOPE     N 4129   3.592   1.573   3.024 -0.5972 -0.3222 -0.1035
   33DOPE   HN1 4130   3.645   1.644   3.079 -0.0156 -0.3573 -0.6031
   33DOPE   HN2 4131   3.652   1.488   3.025  0.4782  0.4118  0.0279
   33DOPE   HN3 4132   3.586   1.608   2.927 -0.2787  1.0618  0.3537
   33DOPE   C12 4133   3.462   1.558   3.083  0.2771  0.1748 -0.3902
   33DOPE  H12A 4134   3.466   1.491   3.172 -0.9475  0.4831 -0.0752
   33DOPE  H12B 4135   3.412   1.497   3.005  0.1924  0.4630 -0.5645
   33DOPE   C11 4136   3.387   1.694   3.100 -0.4629  0.4818 -0.0634
   33DOPE  H11A 4137   3.448   1.757   3.168 -1.1494 -0.0770  1.0908
   33DOPE  H11B 4138   3.287   1.666   3.140  0.3050 -1.9732  0.2949
   33DOPE     P 4139   3.304   1.895   2.946  0.1947  0.1852 -0.0410
   33DOPE   O13 4140   3.225   1.880   2.826 -0.0821 -0.1703 -0.0666
   33DOPE   O14 4141   3.403   2.006   2.932  0.0772  0.3830  0.1060
   33DOPE   O11 4142   3.212   1.902   3.070 -0.3259 -0.2895  0.2385
   33DOPE   O12 4143   3.379   1.757   2.970  0.5136  0.3002 -0.0303
   33DOPE    C1 4144   3.127   2.015   3.101  0.0041  0.8617  0.1095
   33DOPE    HA 4145   3.031   1.992   3.153  2.1817 -3.1357  2.8569
   33DOPE    HB 4146   3.104   2.074   3.010  2.9912 -0.9177 -1.9412
   33DOPE    C2 4147   3.189   2.126   3.188  0.2629  0.6778  0.1163
   33DOPE    HS 4148   3.230   2.209   3.126 -1.1747  1.2025 -0.1767
   33DOPE   O21 4149   3.301   2.067   3.254 -0.0222  0.3578 -0.2232
   33DOPE   C21 4150   3.384   2.155   3.317  0.1411  0.7501  0.3217
   33DOPE   O22 4151   3.374   2.277   3.311  0.4496 -0.2394  0.1206
   33DOPE   C22 4152   3.489   2.079   3.403  0.2482  0.4543  0.0332
   33DOPE   H2R 4153   3.584   2.084   3.346  1.0501 -0.4193  1.2665
   33DOPE   H2S 4154   3.459   1.973   3.418 -1.0035  0.9554  1.2840
   33DOPE    C3 4155   3.091   2.191   3.288 -0.0703  0.3849 -0.2980
   33DOPE    HX 4156   3.011   2.243   3.231  1.3215 -0.4719 -3.2766
   33DOPE    HY 4157   3.146   2.267   3.348 -1.4823  1.4111 -0.2699
   33DOPE   O31 4158   3.039   2.090   3.378  0.7059  0.7301  0.1192
   33DOPE   C31 4159   2.927   2.115   3.441 -0.2739 -0.1756 -0.4678
   33DOPE   O32 4160   2.876   2.225   3.441 -0.0977  0.0516 -0.1184
   33DOPE   C32 4161   2.881   1.998   3.521  0.3592  0.2592 -0.5803
   33DOPE   H2X 4162   2.776   2.017   3.553  0.6873 -1.1931  1.5484
   33DOPE   H2Y 4163   2.881   1.913   3.449  2.4210 -0.9143  0.7018
   33DOPE   C23 4164   3.507   2.142   3.542  0.3654 -0.0866 -0.1984
   33DOPE   H3R 4165   3.406   2.152   3.587  0.3828  1.2318 -0.4180
   33DOPE   H3S 4166   3.544   2.247   3.537 -3.2340  1.2973 -0.8053
   33DOPE   C24 4167   3.590   2.067   3.650  0.5849  0.3320 -0.1986
   33DOPE   H4R 4168   3.597   2.138   3.736 -1.4433 -0.2180  0.4696
   33DOPE   H4S 4169   3.692   2.046   3.613  0.3641 -0.5082 -0.3455
   33DOPE   C25 4170   3.510   1.941   3.704 -0.0418 -0.5203  0.4927
   33DOPE   H5R 4171   3.508   1.857   3.632  0.8656  2.8076 -3.7936
   33DOPE   H5S 4172   3.404   1.969   3.725  0.4975  1.2042  1.0884
   33DOPE   C26 4173   3.575   1.886   3.835  0.0208  0.0456  0.6599
   33DOPE   H6R 4174   3.600   1.973   3.899 -1.8063  0.6179  0.6491
   33DOPE   H6S 4175   3.673   1.836   3.820  1.5377  1.6973  3.8770
   33DOPE   C27 4176   3.480   1.791   3.906 -0.5342  0.0330 -0.1377
   33DOPE   H7R 4177   3.467   1.694   3.854 -2.7942  0.3489 -0.2471
   33DOPE   H7S 4178   3.381   1.841   3.900 -0.1197  0.7102 -2.0738
   33DOPE   C28 4179   3.521   1.756   4.050 -0.8174  0.2519  0.1743
   33DOPE   H8R 4180   3.434   1.736   4.117  0.2490 -0.0410  1.5118
   33DOPE   H8S 4181   3.565   1.849   4.092  0.2615  0.2143 -0.8285
   33DOPE   C29 4182   3.623   1.652   4.063 -0.2382 -0.3056  0.0034
   33DOPE   H9R 4183   3.718   1.684   4.018 -1.8119  1.3595 -2.3900
   33DOPE  C210 4184   3.613   1.539   4.140 -0.4884 -1.2673  0.0608
   33DOPE  H10R 4185   3.699   1.472   4.151  1.3736  1.0279  0.4068
   33DOPE  C211 4186   3.491   1.496   4.212  0.1405 -0.3837 -0.5522
   33DOPE  H11R 4187   3.489   1.386   4.200 -0.4368 -0.2504 -1.8459
   33DOPE  H11S 4188   3.400   1.536   4.162 -0.1822 -0.5072 -0.0700
   33DOPE  C212 4189   3.497   1.533   4.365 -0.2747 -0.1741  1.0286
   33DOPE  H12R 4190   3.460   1.633   4.396  0.1768 -0.3409  2.1800
   33DOPE  H12S 4191   3.593   1.505   4.414 -1.2952  0.6064  3.6910
   33DOPE  C213 4192   3.391   1.445   4.443  0.4566 -0.3334  0.5587
   33DOPE  H13R 4193   3.410   1.338   4.420 -0.2630 -0.4339  0.3999
   33DOPE  H13S 4194   3.298   1.471   4.388  1.8349  3.0267 -0.4554
   33DOPE  C214 4195   3.377   1.465   4.596  0.0192 -0.0633 -0.6793
   33DOPE  H14R 4196   3.350   1.571   4.611  0.9337  0.0488  0.2870
   33DOPE  H14S 4197   3.478   1.450   4.639 -0.0969 -2.0911 -1.0164
   33DOPE  C215 4198   3.272   1.376   4.665  0.3790  0.1767  0.4410
   33DOPE  H15R 4199   3.302   1.269   4.661  0.5401  0.2449 -0.7972
   33DOPE  H15S 4200   3.178   1.374   4.605 -0.4399 -0.5487  1.7120
   33DOPE  C216 4201   3.232   1.419   4.807  0.3631 -0.8052 -0.0521
   33DOPE  H16R 4202   3.203   1.526   4.808  3.0864  0.0354 -1.0753
   33DOPE  H16S 4203   3.331   1.420   4.857  0.0393 -0.5354  0.5856
   33DOPE  C217 4204   3.139   1.317   4.873  0.2771 -0.1351 -0.1808
   33DOPE  H17R 4205   3.195   1.222   4.860  1.4227  0.1529  2.0728
   33DOPE  H17S 4206   3.040   1.315   4.822  0.2104  0.7981 -0.1164
   33DOPE  C218 4207   3.118   1.346   5.017  0.7622  0.2366 -0.2635
   33DOPE  H18R 4208   3.211   1.347   5.077  0.6949  1.3596 -0.1690
   33DOPE  H18S 4209   3.042   1.282   5.067 -0.5459  1.4875 -0.5704
   33DOPE  H18T 4210   3.069   1.445   5.021 -1.2079 -0.6962 -0.0782
   33DOPE   C33 4211   2.963   1.971   3.648 -0.2290 -0.0779 -0.3693
   33DOPE   H3X 4212   2.982   2.066   3.702 -2.0407  0.2226 -0.1969
   33DOPE   H3Y 4213   3.061   1.932   3.614 -1.5392 -2.5260 -1.6435
   33DOPE   C34 4214   2.903   1.860   3.741  0.4607  0.6782  0.1228
   33DOPE   H4X 4215   2.802   1.882   3.781 -0.3078 -0.6103 -0.9971
   33DOPE   H4Y 4216   2.905   1.766   3.682  1.5199  0.0751  1.0838
   33DOPE   C35 4217   2.993   1.835   3.865  0.7778 -0.6437  0.9269
   33DOPE   H5X 4218   2.982   1.928   3.924  1.8602  0.2140 -0.1602
   33DOPE   H5Y 4219   3.096   1.807   3.833  0.4081 -0.3055 -0.6509
   33DOPE   C36 4220   2.938   1.715   3.949 -0.2000 -0.3917 -0.6506
   33DOPE   H6X 4221   2.924   1.630   3.878 -0.2385  0.6343 -1.9030
   33DOPE   H6Y 4222   2.839   1.749   3.988 -0.0623 -0.6297 -0.0762
   33DOPE   C37 4223   3.031   1.685   4.068 -0.2885  0.2641 -0.0233
   33DOPE   H7X 4224   3.061   1.582   4.039  1.0589  0.5793  0.1476
   33DOPE   H7Y 4225   3.130   1.737   4.066  0.8990 -1.8623 -2.2041
   33DOPE   C38 4226   2.968   1.698   4.211 -0.4408  0.1208  0.4000
   33DOPE   H8X 4227   2.884   1.626   4.218  0.0167 -0.5840 -1.0987
   33DOPE   H8Y 4228   2.921   1.799   4.208  1.6445  1.1235 -0.7981
   33DOPE   C39 4229   3.067   1.678   4.321  0.1927  0.3540  0.6723
   33DOPE   H9X 4230   3.171   1.651   4.297  1.0141  0.0847  3.9587
   33DOPE  C310 4231   3.053   1.685   4.450  0.6279 -0.0239 -0.5445
   33DOPE  H10X 4232   3.131   1.638   4.510  0.0449 -1.5985 -0.9801
   33DOPE  C311 4233   2.927   1.713   4.525 -0.1784 -0.1969 -0.1669
   33DOPE  H11X 4234   2.922   1.823   4.540 -0.5787  0.1794 -2.6473
   33DOPE  H11Y 4235   2.844   1.690   4.455 -0.1769 -1.9126  0.3431
   33DOPE  C312 4236   2.905   1.627   4.656 -0.5610 -0.3796  0.0096
   33DOPE  H12X 4237   2.998   1.643   4.715  1.3581 -0.6041 -2.7604
   33DOPE  H12Y 4238   2.889   1.520   4.628 -2.5770 -0.5695  1.6532
   33DOPE  C313 4239   2.793   1.685   4.744  0.6186  0.1635  1.0194
   33DOPE  H13X 4240   2.829   1.782   4.784  1.2791  0.9429 -1.2958
   33DOPE  H13Y 4241   2.704   1.708   4.681  0.6089  2.4742  1.7548
   33DOPE  C314 4242   2.751   1.597   4.865 -0.7518  0.2178  0.5211
   33DOPE  H14X 4243   2.657   1.629   4.914 -1.0956 -1.0423  0.7162
   33DOPE  H14Y 4244   2.822   1.612   4.948 -1.6399  0.3128  1.2819
   33DOPE  C315 4245   2.734   1.449   4.838 -0.0808  0.0274  0.2735
   33DOPE  H15X 4246   2.820   1.413   4.778 -2.0824 -1.4514 -1.8679
   33DOPE  H15Y 4247   2.646   1.420   4.776 -1.7482  1.3030  1.9108
   33DOPE  C316 4248   2.737   1.362   4.961 -0.1718 -0.1082  0.6903
   33DOPE  H16X 4249   2.637   1.365   5.010  0.0108 -0.7543  1.1161
   33DOPE  H16Y 4250   2.822   1.402   5.021  2.7627 -1.7807 -2.0352
   33DOPE  C317 4251   2.775   1.213   4.940 -0.5447  0.3432  0.0881
   33DOPE  H17X 4252   2.874   1.203   4.891 -0.5674  0.3473  0.0413
   33DOPE  H17Y 4253   2.802   1.153   5.030 -2.1790 -1.8699 -0.7903
   33DOPE  C318 4254   2.675   1.124   4.868  0.6954  0.3012  0.1717
   33DOPE  H18X 4255   2.647   1.169   4.771  1.0200  1.9165  0.7963
   33DOPE  H18Y 4256   2.697   1.016   4.853 -1.6880 -0.2471  0.2013
   33DOPE  H18Z 4257   2.578   1.125   4.922  1.4337 -0.0267  1.5611
   34DOPE     N 4258   3.405   4.419   2.960 -0.3614  0.1780 -0.5109
   34DOPE   HN1 4259   3.412   4.498   3.027 -2.2290 -0.8078  0.9274
   34DOPE   HN2 4260   3.499   4.374   2.954 -0.6408 -0.4680 -0.2107
   34DOPE   HN3 4261   3.375   4.451   2.866  0.9246 -0.5646 -1.2042
   34DOPE   C12 4262   3.313   4.323   3.020  0.0267  0.3116 -0.5505
   34DOPE  H12A 4263   3.217   4.378   3.036 -0.5322 -0.7089 -0.3167
   34DOPE  H12B 4264   3.339   4.298   3.126 -1.0378 -1.0642 -0.5856
   34DOPE   C11 4265   3.261   4.212   2.934  0.2073 -0.0584  0.4397
   34DOPE  H11A 4266   3.158   4.184   2.966  0.8331 -0.7841  1.9175
   34DOPE  H11B 4267   3.328   4.125   2.951 -0.1801 -0.8926 -1.9449
   34DOPE     P 4268   3.187   4.365   2.719  0.3149  0.2496 -0.3629
   34DOPE   O13 4269   3.126   4.319   2.592 -0.1947  0.0208  0.0113
   34DOPE   O14 4270   3.284   4.473   2.715  0.2306  0.5246 -0.0873
   34DOPE   O11 4271   3.073   4.402   2.826 -0.1431 -0.1934 -0.0266
   34DOPE   O12 4272   3.252   4.234   2.787 -0.1625  0.0456 -0.0936
   34DOPE    C1 4273   3.014   4.536   2.824  0.4977  0.4219 -0.2782
   34DOPE    HA 4274   2.952   4.542   2.731 -2.5180 -0.2612  1.5512
   34DOPE    HB 4275   3.093   4.614   2.816  1.4819 -0.4774  0.4425
   34DOPE    C2 4276   2.933   4.570   2.961  0.6093  0.1756  0.1749
   34DOPE    HS 4277   2.880   4.668   2.953 -1.1151 -0.8014 -1.1215
   34DOPE   O21 4278   3.020   4.567   3.078 -0.3537 -0.1230  0.4882
   34DOPE   C21 4279   3.061   4.678   3.123 -0.5926 -0.6386 -0.0067
   34DOPE   O22 4280   3.042   4.791   3.076 -0.1955 -0.3483 -0.1541
   34DOPE   C22 4281   3.165   4.629   3.224  0.5371  0.1611 -0.1072
   34DOPE   H2R 4282   3.239   4.575   3.161  2.0079  1.3206  0.5820
   34DOPE   H2S 4283   3.114   4.561   3.296  1.6724 -0.2862  0.2915
   34DOPE    C3 4284   2.824   4.467   2.992 -0.2288  0.5077  0.4444
   34DOPE    HX 4285   2.874   4.368   2.993 -2.1767 -0.8478 -4.5153
   34DOPE    HY 4286   2.746   4.471   2.913  1.0572  1.4910 -0.8509
   34DOPE   O31 4287   2.762   4.480   3.124 -0.1017  0.2923 -0.0585
   34DOPE   C31 4288   2.675   4.575   3.138 -0.5770 -0.2046  0.5818
   34DOPE   O32 4289   2.650   4.659   3.050  0.4112  0.6616 -0.1259
   34DOPE   C32 4290   2.628   4.577   3.281 -0.3726 -0.3142 -0.3320
   34DOPE   H2X 4291   2.527   4.623   3.292 -0.0866  0.3612 -0.4761
   34DOPE   H2Y 4292   2.626   4.473   3.319 -1.5029 -0.2555 -0.1908
   34DOPE   C23 4293   3.230   4.749   3.296 -0.5278 -0.0246  0.4706
   34DOPE   H3R 4294   3.286   4.800   3.215  0.1742 -0.3180  0.7603
   34DOPE   H3S 4295   3.310   4.715   3.365  0.9840 -0.6754 -1.4762
   34DOPE   C24 4296   3.131   4.843   3.369  0.1844 -0.1853  0.3460
   34DOPE   H4R 4297   3.093   4.785   3.456  3.5469  1.2896  3.0484
   34DOPE   H4S 4298   3.048   4.868   3.301  1.5229  2.7564 -0.3552
   34DOPE   C25 4299   3.204   4.976   3.412 -0.1010  0.6424 -0.7810
   34DOPE   H5R 4300   3.250   5.014   3.319 -2.1355  0.1986 -2.0220
   34DOPE   H5S 4301   3.289   4.953   3.481 -1.6376 -1.8271  0.4260
   34DOPE   C26 4302   3.119   5.089   3.472  0.3894 -0.4410  0.4041
   34DOPE   H6R 4303   3.034   5.110   3.404  1.7810  0.7114 -1.0748
   34DOPE   H6S 4304   3.169   5.189   3.480 -2.4108  1.1044 -0.1556
   34DOPE   C27 4305   3.060   5.046   3.607 -0.0555 -0.3369 -1.2342
   34DOPE   H7R 4306   3.138   5.040   3.685 -0.3844 -0.3380 -0.9048
   34DOPE   H7S 4307   3.033   4.938   3.610  0.9113 -0.5835  1.5332
   34DOPE   C28 4308   2.936   5.131   3.652 -0.2456 -0.5298  0.0491
   34DOPE   H8R 4309   2.957   5.237   3.624  1.1505  0.3956  3.9825
   34DOPE   H8S 4310   2.941   5.140   3.763 -1.0564  1.0727 -0.0091
   34DOPE   C29 4311   2.806   5.072   3.600  0.0183  0.2323  0.5611
   34DOPE   H9R 4312   2.805   5.051   3.492 -0.4200 -2.1501  0.9655
   34DOPE  C210 4313   2.698   5.057   3.678 -0.0866  0.6841  0.0238
   34DOPE  H10R 4314   2.606   5.013   3.636 -1.6163  0.3424  3.3824
   34DOPE  C211 4315   2.677   5.079   3.820 -0.2663  0.0609  1.0031
   34DOPE  H11R 4316   2.752   5.152   3.855 -0.2644  0.3647  0.3925
   34DOPE  H11S 4317   2.673   4.981   3.873 -0.2661  0.2322  1.3200
   34DOPE  C212 4318   2.546   5.159   3.843 -0.6095  0.2625  0.2426
   34DOPE  H12R 4319   2.540   5.186   3.950 -1.0471 -1.8777  0.8114
   34DOPE  H12S 4320   2.449   5.110   3.820 -1.7790  2.2860  0.6448
   34DOPE  C213 4321   2.540   5.294   3.772 -0.0497 -0.2551 -0.9905
   34DOPE  H13R 4322   2.503   5.261   3.672  2.1982  0.2054 -2.0333
   34DOPE  H13S 4323   2.644   5.332   3.777  0.7633 -2.4324  3.8606
   34DOPE  C214 4324   2.445   5.397   3.824 -0.1828  0.4077 -0.6611
   34DOPE  H14R 4325   2.487   5.440   3.918 -1.7804  0.6619 -0.0455
   34DOPE  H14S 4326   2.360   5.338   3.865  1.2559 -1.9491 -0.8403
   34DOPE  C215 4327   2.403   5.506   3.724  0.4458  0.9609  0.3336
   34DOPE  H15R 4328   2.350   5.460   3.638  0.2812  0.4251  0.7142
   34DOPE  H15S 4329   2.491   5.554   3.676  0.3424  0.2175 -0.6377
   34DOPE  C216 4330   2.297   5.603   3.777 -0.8891 -0.3931 -0.0999
   34DOPE  H16R 4331   2.202   5.550   3.799 -2.0470  0.9989 -1.5466
   34DOPE  H16S 4332   2.266   5.677   3.700 -0.9028 -1.0923 -0.7754
   34DOPE  C217 4333   2.333   5.687   3.895  0.0073 -0.2735  0.1406
   34DOPE  H17R 4334   2.435   5.731   3.887 -1.3674  2.8006 -4.6482
   34DOPE  H17S 4335   2.319   5.631   3.990  0.9037 -3.0211 -1.2316
   34DOPE  C218 4336   2.232   5.801   3.906 -0.3522  0.0021  0.2346
   34DOPE  H18R 4337   2.238   5.867   3.817 -3.2912  1.4050  0.9450
   34DOPE  H18S 4338   2.266   5.854   3.998 -0.5251 -0.1514  0.3882
   34DOPE  H18T 4339   2.138   5.744   3.916 -1.9620  2.3092 -0.7313
   34DOPE   C33 4340   2.724   4.656   3.367 -0.1252 -0.5891  0.2033
   34DOPE   H3X 4341   2.711   4.763   3.339  0.0611 -0.4517  0.6273
   34DOPE   H3Y 4342   2.833   4.636   3.353 -0.2379 -0.8454 -0.3299
   34DOPE   C34 4343   2.691   4.659   3.519  0.7124 -0.3083 -0.0188
   34DOPE   H4X 4344   2.756   4.725   3.582 -2.3763  1.3419  1.6562
   34DOPE   H4Y 4345   2.591   4.706   3.517  0.7031 -0.2560  1.0764
   34DOPE   C35 4346   2.670   4.522   3.585 -0.4640  0.1140 -0.4369
   34DOPE   H5X 4347   2.756   4.455   3.564  1.1870  1.9368  0.1474
   34DOPE   H5Y 4348   2.576   4.472   3.553 -1.0213 -0.1001  1.4381
   34DOPE   C36 4349   2.657   4.539   3.740  1.1347 -0.3060 -0.0459
   34DOPE   H6X 4350   2.748   4.590   3.775  0.1603  0.4715  1.4613
   34DOPE   H6Y 4351   2.651   4.442   3.795 -0.1838  1.2740  2.7772
   34DOPE   C37 4352   2.528   4.612   3.781  0.7851  0.5011  0.0893
   34DOPE   H7X 4353   2.527   4.710   3.729  1.8728  0.3526 -0.2472
   34DOPE   H7Y 4354   2.444   4.546   3.752  1.8224 -1.2197  0.7919
   34DOPE   C38 4355   2.512   4.658   3.926  0.2908  0.2605 -0.1337
   34DOPE   H8X 4356   2.412   4.706   3.929 -0.3869 -1.1299  0.9818
   34DOPE   H8Y 4357   2.575   4.746   3.949 -0.1053  0.1281  1.5798
   34DOPE   C39 4358   2.520   4.558   4.043 -0.1163 -0.0881 -0.5957
   34DOPE   H9X 4359   2.529   4.449   4.027 -0.2210 -0.0397 -1.0033
   34DOPE  C310 4360   2.520   4.596   4.172  0.0779 -0.3167 -0.5512
   34DOPE  H10X 4361   2.541   4.528   4.256  0.5683  0.5557  0.0504
   34DOPE  C311 4362   2.519   4.744   4.220  0.2491 -0.8293 -0.4399
   34DOPE  H11X 4363   2.604   4.805   4.183  0.9307 -0.3312  1.7727
   34DOPE  H11Y 4364   2.423   4.793   4.195  0.9570 -0.4843 -2.6749
   34DOPE  C312 4365   2.530   4.744   4.375 -0.6116  0.3496  0.1490
   34DOPE  H12X 4366   2.562   4.843   4.412 -3.3939  1.7003 -0.7595
   34DOPE  H12Y 4367   2.599   4.668   4.417  1.6862  2.6255  0.7001
   34DOPE  C313 4368   2.390   4.727   4.433  0.2876 -0.9628 -0.1325
   34DOPE  H13X 4369   2.345   4.823   4.398  1.3638 -0.0901  0.7977
   34DOPE  H13Y 4370   2.335   4.648   4.378  0.2218  0.6321 -2.5684
   34DOPE  C314 4371   2.383   4.709   4.585 -1.2507  0.5865  0.6329
   34DOPE  H14X 4372   2.393   4.804   4.642 -0.5859  0.1533  1.2626
   34DOPE  H14Y 4373   2.466   4.641   4.615 -1.5796  0.0285  0.2855
   34DOPE  C315 4374   2.268   4.629   4.632  0.0943  0.3255  0.3178
   34DOPE  H15X 4375   2.296   4.592   4.733  1.1476  1.3647  0.4309
   34DOPE  H15Y 4376   2.239   4.549   4.560 -0.6749  1.1787 -0.3387
   34DOPE  C316 4377   2.139   4.712   4.653 -0.2382 -0.1478  0.5890
   34DOPE  H16X 4378   2.058   4.639   4.677 -1.2305  0.4984 -0.6884
   34DOPE  H16Y 4379   2.096   4.768   4.567 -0.1231  1.1895  1.3771
   34DOPE  C317 4380   2.139   4.802   4.777 -0.0890 -0.0159  0.0304
   34DOPE  H17X 4381   2.160   4.742   4.867  0.5377  1.7345  1.1130
   34DOPE  H17Y 4382   2.224   4.875   4.772  1.6396 -1.9214  0.1905
   34DOPE  C318 4383   2.006   4.875   4.795 -0.8951  0.0563  0.2972
   34DOPE  H18X 4384   2.002   4.960   4.723  3.2592  0.6784  0.5007
   34DOPE  H18Y 4385   1.922   4.804   4.782 -0.5356 -0.2139 -0.6304
   34DOPE  H18Z 4386   1.996   4.928   4.892 -0.7178  2.7266 -1.0334
   35DOPE     N 4387   6.103   2.772   2.692 -0.1678 -0.2118  0.1366
   35DOPE   HN1 4388   6.019   2.720   2.657 -0.3835  1.8314 -2.7183
   35DOPE   HN2 4389   6.097   2.866   2.649 -1.2929  1.2381  3.2106
   35DOPE   HN3 4390   6.192   2.731   2.657  0.5505  2.3009 -1.1447
   35DOPE   C12 4391   6.098   2.782   2.844  0.0246 -0.2878  0.2354
   35DOPE  H12A 4392   6.073   2.685   2.892  0.3729 -0.0966  0.8192
   35DOPE  H12B 4393   6.017   2.852   2.873 -0.3464 -1.4417  2.1720
   35DOPE   C11 4394   6.233   2.823   2.908 -0.9388 -0.4717  0.2773
   35DOPE  H11A 4395   6.223   2.803   3.017 -0.7550  1.4023  0.6752
   35DOPE  H11B 4396   6.264   2.928   2.890  2.1729 -1.6230 -1.9900
   35DOPE     P 4397   6.394   2.604   2.889  0.6072 -0.2973 -0.3314
   35DOPE   O13 4398   6.532   2.584   2.838  0.3865 -0.2793 -0.7190
   35DOPE   O14 4399   6.288   2.502   2.858  0.5808 -0.1021  0.1295
   35DOPE   O11 4400   6.398   2.623   3.051 -0.4539 -0.4673  0.3242
   35DOPE   O12 4401   6.337   2.749   2.840  0.0650 -0.1042  0.8368
   35DOPE    C1 4402   6.498   2.719   3.093  0.5113  0.3424  0.5285
   35DOPE    HA 4403   6.451   2.819   3.090  1.7486  0.9294 -1.7599
   35DOPE    HB 4404   6.592   2.714   3.033  0.6048 -1.2343  0.7794
   35DOPE    C2 4405   6.548   2.700   3.238 -0.0289  0.0897  0.3173
   35DOPE    HS 4406   6.632   2.772   3.253 -0.1653  0.3382 -0.0908
   35DOPE   O21 4407   6.603   2.563   3.257  0.0284  0.0716  0.4239
   35DOPE   C21 4408   6.679   2.545   3.359  0.5722 -0.0341  0.2862
   35DOPE   O22 4409   6.703   2.624   3.450 -0.2079 -0.4156  0.1822
   35DOPE   C22 4410   6.730   2.400   3.351 -0.4332 -0.0383  0.4140
   35DOPE   H2R 4411   6.781   2.373   3.256 -0.4259 -3.0277  1.1637
   35DOPE   H2S 4412   6.644   2.331   3.361  0.7580 -1.3486  2.5161
   35DOPE    C3 4413   6.426   2.735   3.330  0.0731  0.0947 -0.2719
   35DOPE    HX 4414   6.356   2.651   3.313  2.2818 -1.8628 -0.2999
   35DOPE    HY 4415   6.374   2.829   3.303 -1.1516  0.0241  1.6249
   35DOPE   O31 4416   6.464   2.733   3.468 -0.2121  0.1472 -0.1744
   35DOPE   C31 4417   6.521   2.844   3.526  0.6185 -0.7494  0.3542
   35DOPE   O32 4418   6.562   2.943   3.465  0.3172  0.7760 -0.0633
   35DOPE   C32 4419   6.537   2.821   3.680 -0.4160  0.0861 -0.2770
   35DOPE   H2X 4420   6.451   2.756   3.709 -1.5415  1.9278  0.6791
   35DOPE   H2Y 4421   6.634   2.771   3.701  0.0804  0.4006 -1.7112
   35DOPE   C23 4422   6.813   2.355   3.471 -0.2724 -0.0814 -0.1794
   35DOPE   H3R 4423   6.741   2.345   3.555 -1.4793  0.1802 -1.1579
   35DOPE   H3S 4424   6.894   2.427   3.496 -1.0952  0.4385  1.1122
   35DOPE   C24 4425   6.883   2.222   3.431  0.0224  0.2146  0.0479
   35DOPE   H4R 4426   6.934   2.232   3.333  0.2878 -1.5133 -0.0308
   35DOPE   H4S 4427   6.801   2.148   3.418 -0.5765  1.0072 -0.7692
   35DOPE   C25 4428   6.984   2.171   3.534  0.2356  0.0961 -0.3842
   35DOPE   H5R 4429   7.059   2.252   3.551  0.4672 -0.3071  0.5431
   35DOPE   H5S 4430   7.032   2.080   3.494 -1.9663 -0.9678 -0.7575
   35DOPE   C26 4431   6.925   2.144   3.673  0.2857  0.0667 -0.3774
   35DOPE   H6R 4432   6.838   2.208   3.700  0.6795  0.8796 -0.9819
   35DOPE   H6S 4433   6.994   2.190   3.746  1.1594  0.3629 -1.3561
   35DOPE   C27 4434   6.902   1.993   3.696  0.2603 -0.2189  0.2081
   35DOPE   H7R 4435   6.998   1.944   3.667  0.2743 -0.2633  0.3295
   35DOPE   H7S 4436   6.820   1.962   3.628  2.7475 -1.0467 -2.6522
   35DOPE   C28 4437   6.862   1.961   3.843 -0.0432 -0.1202 -0.0339
   35DOPE   H8R 4438   6.821   1.858   3.830  1.5277 -0.4405 -3.8978
   35DOPE   H8S 4439   6.781   2.028   3.878 -0.7916 -0.9920 -0.0382
   35DOPE   C29 4440   6.983   1.952   3.931  0.6775 -0.5326 -0.1548
   35DOPE   H9R 4441   7.059   2.032   3.923 -0.5877  0.6607 -0.6839
   35DOPE  C210 4442   7.009   1.850   4.015 -0.6176  0.8720  0.2312
   35DOPE  H10R 4443   7.112   1.839   4.051 -0.4725 -2.9809 -0.9722
   35DOPE  C211 4444   6.916   1.739   4.062  0.1610 -0.7495  0.4996
   35DOPE  H11R 4445   6.959   1.640   4.038 -2.1836 -1.1567 -2.7506
   35DOPE  H11S 4446   6.828   1.734   3.993 -0.0976 -1.7301  0.8890
   35DOPE  C212 4447   6.868   1.748   4.204  0.4001 -0.2100 -0.0177
   35DOPE  H12R 4448   6.783   1.677   4.216  0.4327 -0.6063 -1.7861
   35DOPE  H12S 4449   6.837   1.854   4.208  3.5601  0.9739 -2.7043
   35DOPE  C213 4450   6.974   1.716   4.306 -0.3600  0.0130 -0.6360
   35DOPE  H13R 4451   7.062   1.784   4.299 -0.9359  0.5790 -3.7814
   35DOPE  H13S 4452   7.024   1.617   4.298  1.8866  0.9643  0.6590
   35DOPE  C214 4453   6.910   1.746   4.443  0.0958  0.4559  0.1169
   35DOPE  H14R 4454   6.828   1.672   4.445  1.2564 -0.8702 -0.2669
   35DOPE  H14S 4455   6.875   1.852   4.440  1.8323  1.1845  2.6436
   35DOPE  C215 4456   6.995   1.735   4.572  0.4001  0.6628 -0.2638
   35DOPE  H15R 4457   7.061   1.824   4.562 -1.2983  1.7574 -2.3613
   35DOPE  H15S 4458   7.061   1.645   4.563  0.0207  0.1054  1.9536
   35DOPE  C216 4459   6.911   1.731   4.699 -0.3445 -0.0882  0.2329
   35DOPE  H16R 4460   6.834   1.651   4.696  0.4652 -1.0187  2.5207
   35DOPE  H16S 4461   6.859   1.827   4.719 -0.6299 -0.2579  0.3092
   35DOPE  C217 4462   6.996   1.712   4.834  0.2952 -0.7943  1.1978
   35DOPE  H17R 4463   7.034   1.813   4.861  0.7521 -0.6393  0.0276
   35DOPE  H17S 4464   7.085   1.649   4.808  1.8791  1.5936  0.5278
   35DOPE  C218 4465   6.906   1.667   4.940  0.5978 -0.1982  0.0037
   35DOPE  H18R 4466   6.860   1.573   4.902 -0.8997  1.0665 -1.5069
   35DOPE  H18S 4467   6.814   1.728   4.941 -0.1231 -1.2143 -0.8111
   35DOPE  H18T 4468   6.957   1.654   5.037  2.8407  0.2315 -1.0389
   35DOPE   C33 4469   6.534   2.958   3.759 -0.2969 -0.1819 -0.4354
   35DOPE   H3X 4470   6.481   3.039   3.704 -1.6660 -0.1651  0.8535
   35DOPE   H3Y 4471   6.639   2.987   3.782 -0.3693  0.1628 -0.5236
   35DOPE   C34 4472   6.457   2.954   3.890  0.0799  0.4941 -0.0774
   35DOPE   H4X 4473   6.357   2.926   3.852  0.9779 -2.5191 -0.4985
   35DOPE   H4Y 4474   6.495   2.864   3.944 -2.1613 -0.1057  0.6000
   35DOPE   C35 4475   6.478   3.079   3.980  0.4011  0.1175  0.4721
   35DOPE   H5X 4476   6.466   3.178   3.931 -0.9687 -0.3807 -0.2776
   35DOPE   H5Y 4477   6.584   3.069   4.013  0.1595 -0.8992  0.9791
   35DOPE   C36 4478   6.387   3.081   4.100 -0.1610 -0.6584  0.2078
   35DOPE   H6X 4479   6.418   3.164   4.167 -0.2663 -1.1397  0.8571
   35DOPE   H6Y 4480   6.405   2.987   4.157  0.4963 -0.4495  0.3592
   35DOPE   C37 4481   6.246   3.078   4.067 -0.5459  0.3606  0.3239
   35DOPE   H7X 4482   6.244   3.099   3.958 -0.1731  4.2690  0.9019
   35DOPE   H7Y 4483   6.199   2.978   4.076 -1.6673  0.8180 -0.1689
   35DOPE   C38 4484   6.152   3.169   4.146 -0.2227  0.7873  0.0436
   35DOPE   H8X 4485   6.196   3.269   4.126  1.6958 -0.2605 -1.2748
   35DOPE   H8Y 4486   6.159   3.136   4.252 -0.5856 -0.0529 -0.1919
   35DOPE   C39 4487   6.018   3.172   4.088 -0.2646 -0.2127  0.4534
   35DOPE   H9X 4488   6.006   3.232   3.997  1.5357 -2.3352 -1.2946
   35DOPE  C310 4489   5.909   3.117   4.139 -0.5487 -0.3773 -0.0710
   35DOPE  H10X 4490   5.816   3.129   4.081 -0.0562  2.4105 -0.4282
   35DOPE  C311 4491   5.903   3.048   4.281 -0.2107 -0.4176 -0.2976
   35DOPE  H11X 4492   5.878   2.940   4.269 -2.4209  0.0290 -0.2374
   35DOPE  H11Y 4493   5.999   3.056   4.336  0.0908  0.2368 -0.9153
   35DOPE  C312 4494   5.799   3.125   4.366 -0.4508  0.3710  0.6991
   35DOPE  H12X 4495   5.703   3.107   4.312  0.0035  1.8820 -0.6958
   35DOPE  H12Y 4496   5.822   3.233   4.363 -1.2907  0.5628  1.1004
   35DOPE  C313 4497   5.779   3.062   4.504 -0.8632 -0.6544 -0.3869
   35DOPE  H13X 4498   5.681   3.089   4.548 -0.7363 -0.5112 -0.1894
   35DOPE  H13Y 4499   5.784   2.953   4.480  3.1848 -0.5203 -0.8904
   35DOPE  C314 4500   5.894   3.089   4.601 -0.0425 -0.9687 -0.0552
   35DOPE  H14X 4501   5.993   3.059   4.561  0.4628  1.3430 -0.6276
   35DOPE  H14Y 4502   5.885   3.021   4.689 -0.1046  0.5486  1.1493
   35DOPE  C315 4503   5.897   3.238   4.638 -0.4489  1.4161  0.0610
   35DOPE  H15X 4504   5.894   3.302   4.547  2.0065 -0.1813 -1.2656
   35DOPE  H15Y 4505   6.002   3.257   4.671 -0.4937  0.5260  0.7699
   35DOPE  C316 4506   5.802   3.258   4.757 -0.4088  0.2274  0.5642
   35DOPE  H16X 4507   5.820   3.173   4.826 -0.2877 -1.8664 -1.9286
   35DOPE  H16Y 4508   5.695   3.248   4.730 -0.3199 -1.3986  0.7310
   35DOPE  C317 4509   5.816   3.391   4.835 -0.0223  0.7912  0.3038
   35DOPE  H17X 4510   5.817   3.486   4.777 -1.1793 -0.1502 -1.3126
   35DOPE  H17Y 4511   5.731   3.391   4.907 -1.2682  0.9492 -1.1362
   35DOPE  C318 4512   5.944   3.397   4.917 -0.1479  0.2930 -0.0927
   35DOPE  H18X 4513   5.947   3.307   4.981 -0.7825  0.1632 -0.2363
   35DOPE  H18Y 4514   6.032   3.403   4.850  0.3305  2.2636  0.6405
   35DOPE  H18Z 4515   5.946   3.492   4.976  1.4479 -0.7239  1.5830
   36DOPE     N 4516   5.591   4.752   2.705 -0.3061  0.1883 -0.5635
   36DOPE   HN1 4517   5.575   4.743   2.602  1.3691  1.6146 -1.0060
   36DOPE   HN2 4518   5.500   4.763   2.754 -1.0652 -0.2979 -1.8238
   36DOPE   HN3 4519   5.636   4.844   2.722  2.7776 -1.6954  2.6660
   36DOPE   C12 4520   5.673   4.639   2.752 -0.3220 -0.0914  0.0128
   36DOPE  H12A 4521   5.669   4.560   2.673 -0.6956  0.4151 -0.4781
   36DOPE  H12B 4522   5.629   4.603   2.848 -1.1152  0.7705 -0.0203
   36DOPE   C11 4523   5.817   4.685   2.782 -0.4261  0.0772 -0.1699
   36DOPE  H11A 4524   5.860   4.754   2.706  1.6524  0.8236  1.5751
   36DOPE  H11B 4525   5.887   4.598   2.787 -0.3684  0.1244 -0.1520
   36DOPE     P 4526   5.941   4.769   2.985  0.1621  0.0842 -0.1008
   36DOPE   O13 4527   5.988   4.910   2.980 -0.2729  0.7373 -0.0329
   36DOPE   O14 4528   6.044   4.672   2.947  0.1584  0.4377  1.0674
   36DOPE   O11 4529   5.900   4.738   3.139 -0.2028 -0.5501  0.2500
   36DOPE   O12 4530   5.807   4.758   2.904 -0.0982  0.5265  0.0379
   36DOPE    C1 4531   5.764   4.731   3.170  1.0701 -0.1772  0.2469
   36DOPE    HA 4532   5.705   4.678   3.092 -2.2647  1.7455  1.2332
   36DOPE    HB 4533   5.723   4.831   3.197 -1.8479 -0.8988 -1.1501
   36DOPE    C2 4534   5.749   4.635   3.293 -0.1702 -0.1653 -0.1793
   36DOPE    HS 4535   5.648   4.589   3.303  1.4177 -3.5282  2.8632
   36DOPE   O21 4536   5.789   4.701   3.407  0.5037 -0.6325 -0.1670
   36DOPE   C21 4537   5.703   4.775   3.455  0.8790 -0.0510 -0.5737
   36DOPE   O22 4538   5.588   4.794   3.416 -0.9270 -0.1672 -0.3259
   36DOPE   C22 4539   5.762   4.840   3.583 -0.5312  0.2474  0.0559
   36DOPE   H2R 4540   5.871   4.824   3.578 -0.4983  0.8490 -2.2020
   36DOPE   H2S 4541   5.720   4.801   3.678 -0.6552  0.0866 -0.0633
   36DOPE    C3 4542   5.837   4.505   3.284  0.4227  0.2579  0.1667
   36DOPE    HX 4543   5.932   4.536   3.235 -0.0136 -1.9595 -2.3342
   36DOPE    HY 4544   5.779   4.448   3.209 -1.8142 -0.1400  2.0901
   36DOPE   O31 4545   5.858   4.427   3.402 -0.2519 -0.1943  0.2327
   36DOPE   C31 4546   5.953   4.479   3.487  0.1937  0.3995  0.1324
   36DOPE   O32 4547   6.014   4.579   3.469 -0.1143  0.0437  0.0963
   36DOPE   C32 4548   5.956   4.378   3.604  0.1821  0.6743 -0.0799
   36DOPE   H2X 4549   5.897   4.287   3.580  0.9954  0.2122 -0.3846
   36DOPE   H2Y 4550   6.063   4.352   3.620 -0.2394 -0.0453  1.9710
   36DOPE   C23 4551   5.734   4.994   3.592  0.2056 -0.5061 -0.5730
   36DOPE   H3R 4552   5.628   5.027   3.602  1.3437  3.0959  1.1187
   36DOPE   H3S 4553   5.773   5.043   3.501 -1.0213 -2.4274 -2.2198
   36DOPE   C24 4554   5.796   5.065   3.721  0.4064 -0.3614  0.0916
   36DOPE   H4R 4555   5.893   5.015   3.744 -0.9546 -1.7361  3.4299
   36DOPE   H4S 4556   5.727   5.054   3.807  0.6656 -1.3897  0.1861
   36DOPE   C25 4557   5.830   5.217   3.692 -0.7339 -0.5926 -0.9496
   36DOPE   H5R 4558   5.740   5.279   3.671 -0.5408  0.5420  1.2275
   36DOPE   H5S 4559   5.896   5.245   3.607 -1.4310 -0.3944 -1.4322
   36DOPE   C26 4560   5.904   5.285   3.818 -0.6762  0.7148 -0.2415
   36DOPE   H6R 4561   6.014   5.272   3.812 -0.6980  0.1260  0.4527
   36DOPE   H6S 4562   5.874   5.238   3.914  1.3163 -1.1019 -0.4438
   36DOPE   C27 4563   5.879   5.433   3.826  0.4252 -0.0328  0.5091
   36DOPE   H7R 4564   5.773   5.466   3.831  0.5651  0.8310 -1.2198
   36DOPE   H7S 4565   5.916   5.487   3.735 -0.0217  1.3121  1.0975
   36DOPE   C28 4566   5.943   5.508   3.948 -0.1962  0.4786  0.6534
   36DOPE   H8R 4567   5.903   5.612   3.950 -1.7461 -0.0655 -0.4313
   36DOPE   H8S 4568   6.052   5.512   3.925 -0.5521  0.7996 -1.1001
   36DOPE   C29 4569   5.910   5.439   4.081 -0.6760 -0.5237  0.8037
   36DOPE   H9R 4570   5.813   5.387   4.078 -0.8216 -0.3076  1.5868
   36DOPE  C210 4571   5.989   5.419   4.189  0.0193 -0.1573 -0.3485
   36DOPE  H10R 4572   5.935   5.380   4.277  1.9610 -0.2979  0.8297
   36DOPE  C211 4573   6.130   5.462   4.198  0.3248  0.2752  0.5562
   36DOPE  H11R 4574   6.167   5.460   4.303 -0.2208 -2.6395  0.7729
   36DOPE  H11S 4575   6.139   5.563   4.153  1.4342  0.9316  2.1520
   36DOPE  C212 4576   6.213   5.360   4.123 -0.5214 -0.2907  0.4073
   36DOPE  H12R 4577   6.318   5.398   4.122 -1.5737  3.2511  2.8950
   36DOPE  H12S 4578   6.179   5.360   4.018 -1.1333  0.6531  0.5882
   36DOPE  C213 4579   6.210   5.222   4.181  0.2656 -0.0945  0.7779
   36DOPE  H13R 4580   6.113   5.175   4.205  0.5733 -1.2169 -0.1316
   36DOPE  H13S 4581   6.266   5.225   4.277  1.2052 -1.9315  0.3304
   36DOPE  C214 4582   6.286   5.130   4.088 -0.3159  0.4369 -0.3826
   36DOPE  H14R 4583   6.310   5.035   4.139 -1.0003 -0.5738 -1.8801
   36DOPE  H14S 4584   6.385   5.164   4.052 -0.3492  0.1899 -0.7072
   36DOPE  C215 4585   6.198   5.078   3.978 -0.0023 -0.2017 -0.2084
   36DOPE  H15R 4586   6.169   5.166   3.916 -0.0806  0.3125  0.5400
   36DOPE  H15S 4587   6.106   5.038   4.026  1.7448 -2.9714  1.0318
   36DOPE  C216 4588   6.272   4.972   3.896  0.2407 -1.0830  0.5663
   36DOPE  H16R 4589   6.328   4.904   3.963  2.9963  0.9362  0.5034
   36DOPE  H16S 4590   6.346   5.037   3.845  0.8957 -1.8271  0.5643
   36DOPE  C217 4591   6.177   4.917   3.787 -1.1574 -0.2337  0.5436
   36DOPE  H17R 4592   6.102   4.996   3.766 -0.7973  0.1213  0.6006
   36DOPE  H17S 4593   6.119   4.828   3.823 -0.8077 -1.4316 -1.6543
   36DOPE  C218 4594   6.249   4.884   3.654 -0.5394  0.5250 -0.1892
   36DOPE  H18R 4595   6.336   4.825   3.689  0.0202  2.0647  1.1426
   36DOPE  H18S 4596   6.278   4.978   3.604  0.6564  0.7312  0.8529
   36DOPE  H18T 4597   6.190   4.813   3.592 -0.8255 -0.3597  1.0432
   36DOPE   C33 4598   5.901   4.442   3.737 -0.2468 -0.5183 -0.5596
   36DOPE   H3X 4599   5.862   4.363   3.804 -0.7791 -0.2956 -0.6005
   36DOPE   H3Y 4600   5.813   4.506   3.716 -0.4964  0.0445  1.9604
   36DOPE   C34 4601   6.011   4.527   3.809 -0.4697  0.3077 -0.0646
   36DOPE   H4X 4602   6.097   4.460   3.828 -1.1964 -0.4805  0.5581
   36DOPE   H4Y 4603   6.041   4.601   3.732 -0.8618  0.5014 -0.0356
   36DOPE   C35 4604   5.966   4.588   3.940  0.1022  0.7250  0.2303
   36DOPE   H5X 4605   6.057   4.630   3.987  1.2464  0.4992 -1.6519
   36DOPE   H5Y 4606   5.910   4.509   3.994  0.5752 -0.3133 -0.7481
   36DOPE   C36 4607   5.870   4.710   3.924  0.2092 -0.4788 -0.8050
   36DOPE   H6X 4608   5.790   4.688   3.850 -0.5697 -0.5896  0.0510
   36DOPE   H6Y 4609   5.925   4.794   3.878 -0.0484  0.9628  1.3454
   36DOPE   C37 4610   5.815   4.755   4.066  0.8112  0.0065 -0.2507
   36DOPE   H7X 4611   5.799   4.661   4.122  0.5716  0.9192  1.2557
   36DOPE   H7Y 4612   5.886   4.818   4.123 -0.2709  2.0152 -1.0189
   36DOPE   C38 4613   5.676   4.824   4.046 -0.5293  0.5730  0.2456
   36DOPE   H8X 4614   5.607   4.751   3.999 -1.0569  0.9875  0.3567
   36DOPE   H8Y 4615   5.694   4.898   3.966 -0.8370  0.8285  0.4069
   36DOPE   C39 4616   5.618   4.872   4.176  0.0339  0.3621 -0.3395
   36DOPE   H9X 4617   5.569   4.798   4.241  2.2767 -0.3417  0.6643
   36DOPE  C310 4618   5.594   5.004   4.206  0.1625 -0.2295 -0.2430
   36DOPE  H10X 4619   5.566   5.032   4.308  2.8873  2.3408 -0.0519
   36DOPE  C311 4620   5.644   5.125   4.129  0.2725  0.4322  0.8310
   36DOPE  H11X 4621   5.694   5.193   4.202  0.7511  0.3105  0.6200
   36DOPE  H11Y 4622   5.727   5.095   4.062 -0.5480  2.2260 -1.0718
   36DOPE  C312 4623   5.528   5.194   4.056  0.3223 -0.0076 -0.1765
   36DOPE  H12X 4624   5.459   5.240   4.130  0.5095  0.8160 -0.5010
   36DOPE  H12Y 4625   5.468   5.112   4.011  2.1308 -1.0182 -0.8122
   36DOPE  C313 4626   5.567   5.306   3.958  0.3656  0.2261 -0.5805
   36DOPE  H13X 4627   5.621   5.384   4.017 -0.1006  0.3517 -0.3157
   36DOPE  H13Y 4628   5.638   5.257   3.887 -1.4949 -2.8909 -0.4901
   36DOPE  C314 4629   5.463   5.368   3.862  0.1875  0.3190 -0.1249
   36DOPE  H14X 4630   5.401   5.285   3.821  1.2388 -1.8919  2.4067
   36DOPE  H14Y 4631   5.512   5.428   3.783  0.4482  2.1223  1.3416
   36DOPE  C315 4632   5.359   5.454   3.923  0.3242 -0.0958 -0.1529
   36DOPE  H15X 4633   5.404   5.553   3.946  0.6917 -0.5935  1.3727
   36DOPE  H15Y 4634   5.326   5.410   4.019  1.6608  0.7898  0.7467
   36DOPE  C316 4635   5.237   5.488   3.832 -0.1769  0.0991 -0.2505
   36DOPE  H16X 4636   5.174   5.567   3.878  0.3324  0.9875 -1.0446
   36DOPE  H16Y 4637   5.189   5.389   3.814 -1.7438  0.5418  1.1919
   36DOPE  C317 4638   5.281   5.535   3.688  0.1932  0.3925 -0.0842
   36DOPE  H17X 4639   5.331   5.634   3.687 -3.0851  2.2101  0.2053
   36DOPE  H17Y 4640   5.354   5.457   3.659 -1.3952 -1.7821  1.4002
   36DOPE  C318 4641   5.165   5.556   3.589 -0.5624 -0.0088  0.0294
   36DOPE  H18X 4642   5.097   5.628   3.638 -1.5921 -1.1702  0.3756
   36DOPE  H18Y 4643   5.200   5.589   3.489  1.4126 -1.2623  0.2438
   36DOPE  H18Z 4644   5.103   5.463   3.588 -1.4208  0.5570 -0.5270
   37DOPE     N 4645   2.576   3.686   3.187 -0.6836 -0.1243 -0.4982
   37DOPE   HN1 4646   2.677   3.664   3.173 -0.3734  0.2130  1.0742
   37DOPE   HN2 4647   2.524   3.600   3.159  2.2963 -1.7466 -1.4985
   37DOPE   HN3 4648   2.553   3.759   3.117 -0.1110 -0.2054 -0.7727
   37DOPE   C12 4649   2.537   3.740   3.317 -0.3224 -0.1779 -0.2568
   37DOPE  H12A 4650   2.448   3.804   3.299 -1.0036 -0.9167  0.3959
   37DOPE  H12B 4651   2.608   3.817   3.352  0.9685  0.1097 -3.1980
   37DOPE   C11 4652   2.526   3.626   3.422  0.2458 -0.4032  0.6314
   37DOPE  H11A 4653   2.540   3.667   3.524  0.3819  2.1916 -0.3389
   37DOPE  H11B 4654   2.610   3.556   3.407 -1.6708 -2.8321  0.5343
   37DOPE     P 4655   2.372   3.410   3.414  0.1180  0.0776 -0.0275
   37DOPE   O13 4656   2.468   3.345   3.325  0.3942 -0.7772  0.7688
   37DOPE   O14 4657   2.228   3.384   3.385  0.4585  0.0153  0.2060
   37DOPE   O11 4658   2.407   3.375   3.560  0.6637  0.6103  0.1769
   37DOPE   O12 4659   2.400   3.561   3.401  0.4139  0.8507 -0.2441
   37DOPE    C1 4660   2.317   3.402   3.671  0.5561  0.3781  0.6021
   37DOPE    HA 4661   2.225   3.341   3.673  1.0553 -0.4821 -1.2504
   37DOPE    HB 4662   2.290   3.510   3.676  0.0257  0.4287 -2.0296
   37DOPE    C2 4663   2.392   3.377   3.803 -0.3696  1.0172 -0.2463
   37DOPE    HS 4664   2.485   3.437   3.809 -0.0018  0.4090  0.3897
   37DOPE   O21 4665   2.417   3.234   3.796  0.5368 -0.1900  0.2331
   37DOPE   C21 4666   2.498   3.189   3.887 -0.0774 -0.1717 -0.2110
   37DOPE   O22 4667   2.549   3.254   3.974 -0.6187  0.4287  0.0543
   37DOPE   C22 4668   2.508   3.040   3.869  0.2683 -0.5315  0.4618
   37DOPE   H2R 4669   2.597   3.009   3.810 -0.2954  0.7781 -1.1506
   37DOPE   H2S 4670   2.424   3.009   3.804  0.0151  0.5688  0.2358
   37DOPE    C3 4671   2.307   3.409   3.931 -0.1358 -0.3012 -0.1619
   37DOPE    HX 4672   2.368   3.392   4.023 -1.7501  0.0918  1.0328
   37DOPE    HY 4673   2.225   3.334   3.934 -0.3680 -0.0512 -0.2786
   37DOPE   O31 4674   2.273   3.548   3.928  0.0246 -0.4719 -0.2124
   37DOPE   C31 4675   2.175   3.591   3.996 -0.0082  0.5830 -0.5638
   37DOPE   O32 4676   2.120   3.533   4.089 -0.2642  0.6282  1.1719
   37DOPE   C32 4677   2.134   3.725   3.938  0.3163  0.5232  0.0949
   37DOPE   H2X 4678   2.226   3.766   3.891  2.7530 -2.2293  2.0522
   37DOPE   H2Y 4679   2.067   3.709   3.851  0.0481 -2.3407  0.7279
   37DOPE   C23 4680   2.522   2.963   4.003  0.6947 -0.0554 -0.4322
   37DOPE   H3R 4681   2.430   2.984   4.062 -0.6785  0.0559 -2.5108
   37DOPE   H3S 4682   2.610   3.006   4.056  2.9821 -1.7482 -2.5840
   37DOPE   C24 4683   2.548   2.818   3.974 -0.7452  0.6054  0.4047
   37DOPE   H4R 4684   2.633   2.814   3.902  0.1905  1.4247  1.4256
   37DOPE   H4S 4685   2.455   2.778   3.928 -0.9984  0.4728  1.0342
   37DOPE   C25 4686   2.590   2.742   4.092 -0.1748  0.3505  0.3968
   37DOPE   H5R 4687   2.515   2.756   4.174 -1.2437  1.3803 -0.7093
   37DOPE   H5S 4688   2.683   2.783   4.136  0.5146  0.1832 -0.8511
   37DOPE   C26 4689   2.612   2.599   4.047  0.0296 -0.6854  1.2060
   37DOPE   H6R 4690   2.688   2.596   3.966  0.5136 -1.8568  1.6759
   37DOPE   H6S 4691   2.515   2.565   4.005  1.1533 -1.4886 -0.8628
   37DOPE   C27 4692   2.653   2.497   4.153 -0.5678  0.0165 -0.0438
   37DOPE   H7R 4693   2.660   2.400   4.099  0.0896 -0.1150  0.2607
   37DOPE   H7S 4694   2.576   2.499   4.233  0.2689  0.5639  0.7649
   37DOPE   C28 4695   2.786   2.528   4.218  0.0232  0.4559  0.4934
   37DOPE   H8R 4696   2.788   2.637   4.239 -1.1994  0.6154 -0.1100
   37DOPE   H8S 4697   2.856   2.520   4.132 -0.5415 -0.3514  0.1021
   37DOPE   C29 4698   2.835   2.438   4.334  0.2107  0.0161  0.2124
   37DOPE   H9R 4699   2.859   2.335   4.306 -0.7830 -0.2361  0.2393
   37DOPE  C210 4700   2.839   2.481   4.461  0.6804  0.5558 -0.0098
   37DOPE  H10R 4701   2.882   2.410   4.533  0.5754 -1.1619 -1.5830
   37DOPE  C211 4702   2.811   2.622   4.516 -0.3955  0.4872  0.2125
   37DOPE  H11R 4703   2.862   2.697   4.452  1.9219  0.6624  2.1384
   37DOPE  H11S 4704   2.858   2.635   4.616 -2.9182 -1.3598  1.7477
   37DOPE  C212 4705   2.665   2.669   4.506  0.4727 -0.2850 -0.0090
   37DOPE  H12R 4706   2.594   2.599   4.556  0.0090  0.9252  1.0727
   37DOPE  H12S 4707   2.633   2.693   4.402 -1.3149 -1.2013  0.2776
   37DOPE  C213 4708   2.628   2.805   4.578 -0.4280 -0.3359  0.3837
   37DOPE  H13R 4709   2.658   2.809   4.685  0.6554 -0.2038  0.0910
   37DOPE  H13S 4710   2.518   2.808   4.585 -0.3641 -0.2358  1.6767
   37DOPE  C214 4711   2.678   2.931   4.509 -1.3342 -0.4911 -0.3210
   37DOPE  H14R 4712   2.720   2.906   4.409 -1.3035 -2.5757  0.1512
   37DOPE  H14S 4713   2.758   2.972   4.574 -2.4667  1.2204  0.0594
   37DOPE  C215 4714   2.568   3.046   4.496 -0.3694 -1.1840 -0.0483
   37DOPE  H15R 4715   2.626   3.128   4.450  1.2027 -2.2653 -0.0762
   37DOPE  H15S 4716   2.526   3.089   4.589  0.6800 -0.8763  0.2954
   37DOPE  C216 4717   2.450   3.007   4.403  0.1282 -0.2878  0.2908
   37DOPE  H16R 4718   2.390   2.927   4.452  0.5631 -0.2004  0.9775
   37DOPE  H16S 4719   2.493   2.957   4.313  1.9498  0.5053  0.6652
   37DOPE  C217 4720   2.363   3.126   4.357 -0.0359  0.3786 -0.3257
   37DOPE  H17R 4721   2.311   3.175   4.442 -0.4691 -1.9581  0.8526
   37DOPE  H17S 4722   2.290   3.077   4.289 -0.3703 -0.7834  0.8251
   37DOPE  C218 4723   2.444   3.220   4.281 -0.4635 -0.5337 -0.4933
   37DOPE  H18R 4724   2.523   3.274   4.336 -0.4313  0.1795 -1.2258
   37DOPE  H18S 4725   2.376   3.296   4.237  0.1217  0.2754 -0.0112
   37DOPE  H18T 4726   2.492   3.174   4.192 -0.1716  2.1766 -1.8185
   37DOPE   C33 4727   2.062   3.813   4.045 -0.1706  0.2327 -0.0792
   37DOPE   H3X 4728   1.983   3.752   4.094  0.0311 -1.1196 -1.3520
   37DOPE   H3Y 4729   2.004   3.901   4.010  1.3929  1.8526  1.2827
   37DOPE   C34 4730   2.159   3.864   4.147 -0.0878  0.9442 -0.5592
   37DOPE   H4X 4731   2.100   3.866   4.241 -1.0017  2.4937 -1.1392
   37DOPE   H4Y 4732   2.241   3.791   4.166 -0.9044 -0.3796 -1.8675
   37DOPE   C35 4733   2.217   4.007   4.119  0.3204  0.1601  0.4778
   37DOPE   H5X 4734   2.136   4.082   4.106  0.0565 -0.3632 -1.0874
   37DOPE   H5Y 4735   2.276   3.995   4.026  1.7319  1.7443  1.1397
   37DOPE   C36 4736   2.306   4.063   4.237 -0.5038  0.4485  0.2315
   37DOPE   H6X 4737   2.373   3.982   4.274  0.2281  1.3864  1.0102
   37DOPE   H6Y 4738   2.249   4.082   4.331  1.2603  1.4520  1.1473
   37DOPE   C37 4739   2.383   4.193   4.204  0.3841  0.1424 -0.0930
   37DOPE   H7X 4740   2.417   4.184   4.098 -2.3348 -0.8081 -0.9636
   37DOPE   H7Y 4741   2.309   4.275   4.212 -0.5331 -0.4998 -1.5549
   37DOPE   C38 4742   2.514   4.198   4.285  0.5264 -0.2432 -0.1706
   37DOPE   H8X 4743   2.574   4.278   4.237  1.2265 -1.3794 -1.2556
   37DOPE   H8Y 4744   2.584   4.112   4.288 -0.9432 -1.4519  1.1462
   37DOPE   C39 4745   2.477   4.235   4.425 -0.6110 -0.6669  0.2266
   37DOPE   H9X 4746   2.390   4.301   4.433 -1.1980 -1.2023 -1.2751
   37DOPE  C310 4747   2.548   4.211   4.537 -0.2086  0.7629 -0.3838
   37DOPE  H10X 4748   2.502   4.236   4.633 -0.2362 -1.7519  0.3389
   37DOPE  C311 4749   2.674   4.138   4.564  0.1915  0.2014 -0.4776
   37DOPE  H11X 4750   2.722   4.114   4.467  0.8903  2.0060 -0.6049
   37DOPE  H11Y 4751   2.749   4.200   4.617 -1.2593  0.7538  1.0372
   37DOPE  C312 4752   2.635   4.001   4.630  0.0790  0.0917  0.1182
   37DOPE  H12X 4753   2.569   4.026   4.716  0.5656  1.2794  0.1584
   37DOPE  H12Y 4754   2.721   3.949   4.678  0.8035  1.0494 -0.1111
   37DOPE  C313 4755   2.557   3.904   4.549 -0.4231  0.5464 -0.5427
   37DOPE  H13X 4756   2.470   3.946   4.495 -1.9676 -1.8514 -0.0873
   37DOPE  H13Y 4757   2.617   3.872   4.461  0.3077 -2.2931  0.8659
   37DOPE  C314 4758   2.488   3.785   4.631  0.5554  0.3599 -0.1029
   37DOPE  H14X 4759   2.405   3.828   4.691  0.4999  0.2231 -0.0798
   37DOPE  H14Y 4760   2.564   3.737   4.696  0.5651 -1.5178 -1.4301
   37DOPE  C315 4761   2.426   3.685   4.542 -1.1111  0.2903 -0.1596
   37DOPE  H15X 4762   2.513   3.637   4.492 -0.5436  4.3576 -3.6185
   37DOPE  H15Y 4763   2.367   3.738   4.464 -1.7339 -0.5646 -0.2720
   37DOPE  C316 4764   2.336   3.584   4.601 -0.5039 -0.1632 -0.1452
   37DOPE  H16X 4765   2.251   3.640   4.646  0.7144  0.9572  0.8293
   37DOPE  H16Y 4766   2.386   3.543   4.691  1.8656  2.7417  0.0178
   37DOPE  C317 4767   2.288   3.479   4.506  0.1699 -0.2581  0.0674
   37DOPE  H17X 4768   2.366   3.411   4.464  1.7189  2.6167 -2.0331
   37DOPE  H17Y 4769   2.214   3.414   4.558  1.6511 -0.6229  1.8818
   37DOPE  C318 4770   2.215   3.539   4.386  0.2667 -0.8678 -0.7656
   37DOPE  H18X 4771   2.158   3.629   4.418  2.4311 -0.0106  0.8712
   37DOPE  H18Y 4772   2.274   3.562   4.295  1.1109 -0.7950 -0.2114
   37DOPE  H18Z 4773   2.141   3.464   4.351 -0.4883  0.4617 -2.1544
   38DOPE     N 4774   5.170   5.228   2.473 -0.1387 -0.5426 -0.0624
   38DOPE   HN1 4775   5.131   5.194   2.382  1.1044 -2.3598  0.0289
   38DOPE   HN2 4776   5.114   5.308   2.509 -1.0168 -0.0740 -2.3053
   38DOPE   HN3 4777   5.267   5.263   2.460 -1.1574  1.9005 -1.7029
   38DOPE   C12 4778   5.161   5.121   2.578 -0.0717  0.4535 -0.8607
   38DOPE  H12A 4779   5.237   5.045   2.552 -1.5248 -0.7271 -1.8820
   38DOPE  H12B 4780   5.066   5.064   2.567  0.3480 -0.4209 -0.1267
   38DOPE   C11 4781   5.167   5.190   2.716  0.0110 -0.2105  0.2389
   38DOPE  H11A 4782   5.276   5.213   2.716 -0.1047  0.3340  0.4815
   38DOPE  H11B 4783   5.140   5.123   2.800 -0.5244  0.9851  1.0456
   38DOPE     P 4784   5.024   5.385   2.837  0.3257  0.2069 -0.1588
   38DOPE   O13 4785   4.887   5.332   2.849 -0.0208 -0.4879  0.3642
   38DOPE   O14 4786   5.040   5.530   2.824 -0.0707 -0.1930 -0.2307
   38DOPE   O11 4787   5.100   5.337   2.967 -0.5147  0.8193  0.0582
   38DOPE   O12 4788   5.095   5.309   2.723 -0.1782 -0.2679  0.0786
   38DOPE    C1 4789   5.246   5.362   2.981 -0.7155  0.5089 -0.5523
   38DOPE    HA 4790   5.295   5.422   2.901  0.1511  1.7112  0.8232
   38DOPE    HB 4791   5.297   5.264   2.988  2.2350  1.9837  0.4233
   38DOPE    C2 4792   5.278   5.432   3.112 -0.0174  0.5529 -0.0938
   38DOPE    HS 4793   5.380   5.396   3.139  0.8333  2.1990 -0.9397
   38DOPE   O21 4794   5.179   5.396   3.219  0.1094  0.4586  0.1903
   38DOPE   C21 4795   5.215   5.314   3.311  0.1318  0.0412 -0.1699
   38DOPE   O22 4796   5.333   5.278   3.334 -0.0006 -0.5932  0.7758
   38DOPE   C22 4797   5.086   5.262   3.391 -0.0505 -0.0235  0.0235
   38DOPE   H2R 4798   5.045   5.195   3.313 -0.6888 -0.3893  0.6622
   38DOPE   H2S 4799   5.031   5.352   3.424  0.2019 -0.0135  0.4289
   38DOPE    C3 4800   5.285   5.586   3.120 -0.3172 -0.2719  0.9204
   38DOPE    HX 4801   5.180   5.622   3.118  0.4764  2.1604  0.5653
   38DOPE    HY 4802   5.340   5.628   3.034 -0.9202  3.3063  2.1113
   38DOPE   O31 4803   5.336   5.625   3.248 -0.2068  0.1944  0.1839
   38DOPE   C31 4804   5.466   5.645   3.257  0.1903 -0.6201 -0.4466
   38DOPE   O32 4805   5.542   5.646   3.160 -0.5482  0.6902 -0.6122
   38DOPE   C32 4806   5.512   5.659   3.408 -0.2567 -0.0721  0.3966
   38DOPE   H2X 4807   5.450   5.732   3.464 -0.1098  0.1055  0.3320
   38DOPE   H2Y 4808   5.502   5.554   3.440  1.5486 -0.7699 -1.0866
   38DOPE   C23 4809   5.135   5.190   3.516  0.3223  0.3911 -0.5989
   38DOPE   H3R 4810   5.220   5.243   3.564  1.3047 -0.2647 -1.5592
   38DOPE   H3S 4811   5.175   5.090   3.490 -1.0182  0.1681 -2.0039
   38DOPE   C24 4812   5.022   5.164   3.616 -0.3887  0.0309 -0.7401
   38DOPE   H4R 4813   4.964   5.081   3.570 -1.1463  1.2704 -2.1204
   38DOPE   H4S 4814   4.958   5.254   3.618  0.9899  1.0644 -1.4261
   38DOPE   C25 4815   5.052   5.123   3.760 -0.7650  0.2478  0.1593
   38DOPE   H5R 4816   5.138   5.185   3.796  0.0796 -0.4709 -0.5746
   38DOPE   H5S 4817   5.097   5.022   3.770 -1.9471 -0.5126 -1.8974
   38DOPE   C26 4818   4.941   5.130   3.859 -0.0930 -0.0934  0.7975
   38DOPE   H6R 4819   4.860   5.055   3.845  0.8713 -1.1570  0.7637
   38DOPE   H6S 4820   4.894   5.230   3.847 -2.9747 -1.3404  0.9448
   38DOPE   C27 4821   4.994   5.101   3.998  0.1287  0.2482 -0.0839
   38DOPE   H7R 4822   5.067   5.182   4.018 -0.3986  1.1355 -1.6362
   38DOPE   H7S 4823   5.045   5.002   4.002  0.1393  0.2390 -0.4415
   38DOPE   C28 4824   4.887   5.091   4.107  0.0423 -0.1788 -0.0301
   38DOPE   H8R 4825   4.934   5.049   4.199 -1.8232 -2.4340 -0.0258
   38DOPE   H8S 4826   4.807   5.021   4.075 -1.1497 -0.0889  2.4776
   38DOPE   C29 4827   4.832   5.230   4.141  0.3941  0.2175 -0.5003
   38DOPE   H9R 4828   4.759   5.275   4.072  0.7501  1.9890  0.2266
   38DOPE  C210 4829   4.857   5.289   4.256  0.3007  0.3379  0.6044
   38DOPE  H10R 4830   4.793   5.373   4.287 -1.6289 -1.5943  2.2325
   38DOPE  C211 4831   4.968   5.260   4.358  0.2624 -0.4747  0.1100
   38DOPE  H11R 4832   5.051   5.201   4.313  1.3028  0.4456  0.7826
   38DOPE  H11S 4833   4.935   5.201   4.446 -0.1996 -0.7463 -0.2429
   38DOPE  C212 4834   5.028   5.386   4.415 -0.6756 -0.6094 -0.1197
   38DOPE  H12R 4835   5.093   5.357   4.500 -0.7718  0.8967  0.4947
   38DOPE  H12S 4836   4.957   5.464   4.451 -0.6358 -0.1966 -0.8966
   38DOPE  C213 4837   5.114   5.454   4.313 -0.0147 -0.6540  0.5619
   38DOPE  H13R 4838   5.045   5.499   4.238  1.7689  1.1705 -0.1038
   38DOPE  H13S 4839   5.173   5.379   4.256 -1.2356 -1.2131  0.0139
   38DOPE  C214 4840   5.211   5.556   4.371  1.2520 -0.6554 -0.0945
   38DOPE  H14R 4841   5.312   5.538   4.328  0.9403  0.2106 -1.2712
   38DOPE  H14S 4842   5.219   5.539   4.480 -0.0291 -0.3924  0.0600
   38DOPE  C215 4843   5.166   5.700   4.347 -0.3060 -0.2588  0.2462
   38DOPE  H15R 4844   5.144   5.697   4.238 -0.9434 -0.6401  0.3777
   38DOPE  H15S 4845   5.259   5.758   4.362  1.1225 -2.4003  0.1030
   38DOPE  C216 4846   5.048   5.757   4.414  0.3766 -0.2112 -0.1853
   38DOPE  H16R 4847   4.956   5.697   4.398 -0.8779  2.1694 -2.8650
   38DOPE  H16S 4848   5.032   5.858   4.370 -2.1303 -0.5075 -0.0859
   38DOPE  C217 4849   5.063   5.789   4.569 -0.5110 -0.8865  0.3474
   38DOPE  H17R 4850   5.082   5.691   4.618  0.6847 -1.6454 -1.5089
   38DOPE  H17S 4851   4.967   5.831   4.606  1.0639  1.5382  1.9268
   38DOPE  C218 4852   5.180   5.887   4.601  0.0754 -0.2226 -0.6500
   38DOPE  H18R 4853   5.154   5.986   4.556 -3.3719 -1.9382 -2.8583
   38DOPE  H18S 4854   5.276   5.848   4.562  0.4497  1.4657 -1.5385
   38DOPE  H18T 4855   5.191   5.915   4.708 -2.9733  0.0714 -0.3247
   38DOPE   C33 4856   5.651   5.713   3.434 -0.5711 -0.0655 -0.1227
   38DOPE   H3X 4857   5.671   5.815   3.395  4.4391 -0.0188  1.8196
   38DOPE   H3Y 4858   5.726   5.654   3.377 -1.6690 -2.4255  0.7534
   38DOPE   C34 4859   5.686   5.703   3.584  0.2308  0.4683 -0.3951
   38DOPE   H4X 4860   5.648   5.606   3.623  0.5529  0.8937  1.0630
   38DOPE   H4Y 4861   5.796   5.701   3.602 -0.2101 -0.0631  2.8058
   38DOPE   C35 4862   5.626   5.814   3.673  0.2066 -0.1197 -0.2061
   38DOPE   H5X 4863   5.517   5.799   3.665  0.0001  1.3146 -0.3870
   38DOPE   H5Y 4864   5.659   5.913   3.635 -1.8443  1.2271  1.3181
   38DOPE   C36 4865   5.667   5.798   3.815 -0.1802 -0.4814 -0.5885
   38DOPE   H6X 4866   5.778   5.803   3.826 -0.3472  1.4308  0.8020
   38DOPE   H6Y 4867   5.630   5.701   3.855 -1.8446  0.2452 -0.2983
   38DOPE   C37 4868   5.600   5.913   3.901  0.0000  0.2115  0.1362
   38DOPE   H7X 4869   5.650   6.007   3.868  1.3557 -1.2057 -2.1079
   38DOPE   H7Y 4870   5.492   5.915   3.875  0.0639 -1.4766 -0.4223
   38DOPE   C38 4871   5.633   5.903   4.049  0.2278  0.7661  0.5873
   38DOPE   H8X 4872   5.596   5.990   4.108 -0.8851  0.9804 -0.3764
   38DOPE   H8Y 4873   5.743   5.905   4.059  0.1126  2.3225  1.9660
   38DOPE   C39 4874   5.583   5.774   4.105  0.3129 -0.0279 -0.5327
   38DOPE   H9X 4875   5.498   5.725   4.056  0.2201 -1.7236  1.2022
   38DOPE  C310 4876   5.642   5.700   4.202  0.2648  0.1654 -0.3626
   38DOPE  H10X 4877   5.589   5.615   4.248 -0.1316  1.0289  0.8077
   38DOPE  C311 4878   5.766   5.735   4.277  0.4762  0.6952  0.3742
   38DOPE  H11X 4879   5.767   5.660   4.359 -0.8509  1.0205  0.7086
   38DOPE  H11Y 4880   5.852   5.708   4.212 -0.6611 -0.4115 -0.7348
   38DOPE  C312 4881   5.795   5.873   4.346 -0.0164  0.0113 -0.7369
   38DOPE  H12X 4882   5.829   5.943   4.266  0.8078  1.2344  0.6343
   38DOPE  H12Y 4883   5.880   5.851   4.414 -2.3878  0.1444  2.4751
   38DOPE  C313 4884   5.689   5.942   4.421 -0.3872  0.2931 -0.4948
   38DOPE  H13X 4885   5.721   6.046   4.445 -0.1256 -0.0239  0.5837
   38DOPE  H13Y 4886   5.596   5.948   4.360  0.2562  0.6689 -1.4606
   38DOPE  C314 4887   5.649   5.866   4.549  0.4543  0.6161  0.1507
   38DOPE  H14X 4888   5.743   5.827   4.594  1.3691  2.1611 -0.3452
   38DOPE  H14Y 4889   5.587   5.778   4.523  0.0076  0.0942  2.7120
   38DOPE  C315 4890   5.577   5.957   4.662 -0.3343  0.4874  1.3566
   38DOPE  H15X 4891   5.487   5.994   4.610 -0.5131 -2.0658 -0.3584
   38DOPE  H15Y 4892   5.640   6.043   4.693  1.2918 -1.0607  2.6228
   38DOPE  C316 4893   5.552   5.879   4.785  0.2307  0.5941  0.2405
   38DOPE  H16X 4894   5.642   5.833   4.832  0.7590  1.9612  0.6081
   38DOPE  H16Y 4895   5.479   5.797   4.767  1.0473 -0.3007  0.8504
   38DOPE  C317 4896   5.472   5.964   4.887 -1.0417 -1.2707 -0.0929
   38DOPE  H17X 4897   5.517   6.061   4.920 -0.5751 -1.2034 -0.9092
   38DOPE  H17Y 4898   5.385   6.005   4.833  0.5336 -0.0538 -1.8539
   38DOPE  C318 4899   5.431   5.881   5.012  0.0749  0.8370  0.6717
   38DOPE  H18X 4900   5.368   5.951   5.071 -2.0670  2.3437 -3.0255
   38DOPE  H18Y 4901   5.356   5.806   4.979  1.0200 -0.1424  0.6837
   38DOPE  H18Z 4902   5.515   5.832   5.066  0.3947  0.6214 -0.0055
   39DOPE     N 4903   0.422   2.238   3.393 -0.1794  0.3619 -0.3973
   39DOPE   HN1 4904   0.446   2.295   3.309  0.6584  1.1819  0.3820
   39DOPE   HN2 4905   0.377   2.152   3.355  1.0548  0.8289 -3.2091
   39DOPE   HN3 4906   0.358   2.287   3.459  2.9018  0.6872  2.5911
   39DOPE   C12 4907   0.534   2.177   3.475 -0.5661 -0.2212  0.1715
   39DOPE  H12A 4908   0.502   2.135   3.573  0.2891  1.2897  1.1545
   39DOPE  H12B 4909   0.602   2.262   3.498 -0.3117 -0.0135 -1.2972
   39DOPE   C11 4910   0.601   2.065   3.391 -0.3580  0.5759 -0.6316
   39DOPE  H11A 4911   0.534   1.977   3.384 -0.7538  0.9732 -2.3562
   39DOPE  H11B 4912   0.688   2.025   3.447 -2.6320 -2.9291  0.7617
   39DOPE     P 4913   0.744   2.206   3.219  0.2953  0.0566  0.0470
   39DOPE   O13 4914   0.682   2.324   3.156 -0.0669  0.6199  0.0549
   39DOPE   O14 4915   0.841   2.130   3.137  0.0616  0.3975 -0.5003
   39DOPE   O11 4916   0.811   2.242   3.357 -0.1202 -0.9752 -0.2380
   39DOPE   O12 4917   0.627   2.104   3.256  0.5765  0.4828 -0.0147
   39DOPE    C1 4918   0.919   2.335   3.371  0.1255 -0.6933 -0.3399
   39DOPE    HA 4919   0.919   2.366   3.478 -1.8409 -2.8205  0.3407
   39DOPE    HB 4920   0.909   2.421   3.301  0.6143 -0.2918  0.0712
   39DOPE    C2 4921   1.059   2.272   3.352  0.4796  0.0402 -0.5715
   39DOPE    HS 4922   1.052   2.212   3.259  1.0422  0.0624 -0.6353
   39DOPE   O21 4923   1.092   2.177   3.456  0.2467 -0.1024  0.2174
   39DOPE   C21 4924   1.202   2.100   3.441  0.3190  0.5044  0.1446
   39DOPE   O22 4925   1.280   2.111   3.347  0.5969 -0.4579 -0.8910
   39DOPE   C22 4926   1.212   1.989   3.549  0.2426 -0.2957  0.4963
   39DOPE   H2R 4927   1.308   1.937   3.531  0.0899 -0.8755  1.3047
   39DOPE   H2S 4928   1.127   1.917   3.549  0.6388 -0.7811 -0.9090
   39DOPE    C3 4929   1.176   2.380   3.344 -0.1444 -0.2415  0.6557
   39DOPE    HX 4930   1.147   2.455   3.267  1.3695 -0.6098 -0.3286
   39DOPE    HY 4931   1.271   2.337   3.304  0.5312  1.1507  0.6833
   39DOPE   O31 4932   1.200   2.448   3.470 -0.2697 -0.2218 -0.0875
   39DOPE   C31 4933   1.173   2.572   3.491  0.1755 -0.6014  0.2240
   39DOPE   O32 4934   1.123   2.651   3.414  0.2951 -0.1487  0.0120
   39DOPE   C32 4935   1.200   2.607   3.633  0.0484 -0.3295 -0.1674
   39DOPE   H2X 4936   1.122   2.680   3.663  0.4515  1.0244 -2.1906
   39DOPE   H2Y 4937   1.188   2.515   3.694 -2.2969  0.3188  0.4483
   39DOPE   C23 4938   1.230   2.062   3.686 -0.7363 -0.0120  0.1153
   39DOPE   H3R 4939   1.216   1.978   3.757 -1.3038 -0.5457 -0.6174
   39DOPE   H3S 4940   1.139   2.125   3.702 -0.2581  1.4245 -2.2508
   39DOPE   C24 4941   1.361   2.139   3.694 -0.2047  0.6111  0.0150
   39DOPE   H4R 4942   1.346   2.235   3.640  0.1298  1.2265  0.9864
   39DOPE   H4S 4943   1.443   2.078   3.649  0.6833  2.0810 -0.4221
   39DOPE   C25 4944   1.403   2.180   3.844  0.0024  0.0570 -0.8747
   39DOPE   H5R 4945   1.507   2.219   3.849 -0.6106  1.9328 -1.8111
   39DOPE   H5S 4946   1.391   2.080   3.891 -0.9100 -0.1200 -1.4463
   39DOPE   C26 4947   1.301   2.275   3.903 -0.1194  0.1369 -0.5776
   39DOPE   H6R 4948   1.200   2.232   3.915  0.4962 -1.1157  0.4516
   39DOPE   H6S 4949   1.290   2.372   3.849  0.2731 -0.0715 -1.0368
   39DOPE   C27 4950   1.352   2.299   4.050  0.2293  0.7267  0.6391
   39DOPE   H7R 4951   1.462   2.309   4.040  0.3404 -1.2777 -0.6882
   39DOPE   H7S 4952   1.345   2.200   4.099 -1.6196  0.8912  0.7863
   39DOPE   C28 4953   1.286   2.412   4.129 -0.0883  0.2248 -0.1197
   39DOPE   H8R 4954   1.327   2.511   4.099 -1.3866  0.4556 -1.2287
   39DOPE   H8S 4955   1.301   2.386   4.236 -0.9053 -2.7262 -0.6314
   39DOPE   C29 4956   1.141   2.411   4.134 -0.0540  0.7211 -0.6037
   39DOPE   H9R 4957   1.094   2.319   4.171 -0.3695  0.9423 -0.4416
   39DOPE  C210 4958   1.052   2.513   4.134  1.1530 -0.0433 -0.0231
   39DOPE  H10R 4959   0.947   2.493   4.159  0.6479  0.3947 -1.6442
   39DOPE  C211 4960   1.080   2.663   4.125  0.3354  0.9674 -0.0093
   39DOPE  H11R 4961   1.123   2.676   4.023 -1.1595  1.1389 -0.6328
   39DOPE  H11S 4962   1.161   2.692   4.195  2.9458  2.8866 -3.4753
   39DOPE  C212 4963   0.961   2.752   4.146 -0.2046  0.4696  0.2187
   39DOPE  H12R 4964   0.874   2.719   4.086  1.2211 -0.6808 -1.3034
   39DOPE  H12S 4965   1.000   2.851   4.115 -1.3224  0.7947 -0.1745
   39DOPE  C213 4966   0.918   2.744   4.292 -0.1579 -0.1301  0.2027
   39DOPE  H13R 4967   0.990   2.719   4.373 -1.0174  0.7170  1.2643
   39DOPE  H13S 4968   0.854   2.655   4.305 -1.3372  0.5323 -0.8407
   39DOPE  C214 4969   0.825   2.864   4.341 -0.1137  0.6410  0.1012
   39DOPE  H14R 4970   0.733   2.865   4.279 -0.2828 -0.7153  0.3060
   39DOPE  H14S 4971   0.880   2.959   4.327  0.7211  0.3739  1.3772
   39DOPE  C215 4972   0.790   2.851   4.491 -0.1087  0.0332  0.1764
   39DOPE  H15R 4973   0.795   2.745   4.524 -0.2287 -0.4181 -1.1865
   39DOPE  H15S 4974   0.685   2.885   4.503 -1.1129 -2.2351 -1.4770
   39DOPE  C216 4975   0.875   2.944   4.586  0.2041  0.1166 -0.6066
   39DOPE  H16R 4976   0.842   2.938   4.692  0.7145 -1.8942 -0.5271
   39DOPE  H16S 4977   0.845   3.047   4.558  1.1186  0.4210 -0.5030
   39DOPE  C217 4978   1.025   2.932   4.579  0.1128 -0.2947 -0.5070
   39DOPE  H17R 4979   1.061   2.936   4.474  0.2494 -0.9543 -0.4947
   39DOPE  H17S 4980   1.043   2.827   4.613  0.4268 -0.4347 -1.0806
   39DOPE  C218 4981   1.090   3.040   4.666 -0.2646 -0.2059  0.0429
   39DOPE  H18R 4982   1.200   3.033   4.670 -0.1866  0.6112 -0.4433
   39DOPE  H18S 4983   1.057   3.028   4.771 -1.4752 -1.9262 -0.4927
   39DOPE  H18T 4984   1.054   3.142   4.636 -3.1869 -1.8479 -2.7315
   39DOPE   C33 4985   1.345   2.654   3.657 -0.1816  0.2589 -0.3695
   39DOPE   H3X 4986   1.370   2.737   3.586 -0.8204  1.8081  1.1403
   39DOPE   H3Y 4987   1.418   2.571   3.643  0.8493  0.9581  0.6553
   39DOPE   C34 4988   1.369   2.705   3.794 -0.0373 -0.6357 -0.6369
   39DOPE   H4X 4989   1.345   2.626   3.868  2.7889 -0.3180  0.7922
   39DOPE   H4Y 4990   1.479   2.722   3.804 -0.0651 -1.2422  0.8924
   39DOPE   C35 4991   1.303   2.842   3.835  0.5918  0.3205  0.1523
   39DOPE   H5X 4992   1.193   2.831   3.831  0.8009 -2.0586 -0.1417
   39DOPE   H5Y 4993   1.329   2.920   3.760 -1.1048  2.0112  1.2376
   39DOPE   C36 4994   1.321   2.883   3.985  0.2122  0.0764  0.3015
   39DOPE   H6X 4995   1.429   2.873   4.010  0.0074 -0.0128  1.2001
   39DOPE   H6Y 4996   1.271   2.813   4.055 -1.5048  0.0073 -0.9312
   39DOPE   C37 4997   1.279   3.021   4.015 -0.8493 -1.1164 -0.0785
   39DOPE   H7X 4998   1.344   3.100   3.971 -0.9337  0.3285  2.1886
   39DOPE   H7Y 4999   1.182   3.038   3.964 -0.1850 -0.8470 -1.2828
   39DOPE   C38 5000   1.251   3.045   4.163 -0.8599  0.8053  0.2506
   39DOPE   H8X 5001   1.348   3.032   4.215 -0.1945  0.9328 -0.9265
   39DOPE   H8Y 5002   1.190   2.956   4.191  3.5987 -3.1647 -1.3330
   39DOPE   C39 5003   1.188   3.177   4.196  1.0376 -0.0037  1.1686
   39DOPE   H9X 5004   1.124   3.208   4.112  0.3334 -1.7803  1.0242
   39DOPE  C310 5005   1.228   3.258   4.295 -0.1266  0.1020 -0.3836
   39DOPE  H10X 5006   1.199   3.363   4.310 -0.6003 -0.2641  1.4352
   39DOPE  C311 5007   1.324   3.226   4.397  0.1933  0.0050 -0.0414
   39DOPE  H11X 5008   1.276   3.157   4.469  0.0131  2.7884  2.7152
   39DOPE  H11Y 5009   1.408   3.170   4.352 -2.1251 -2.5960 -1.4651
   39DOPE  C312 5010   1.371   3.345   4.492  0.9697 -0.0920  0.3926
   39DOPE  H12X 5011   1.410   3.429   4.430  1.0512  0.9086  1.7638
   39DOPE  H12Y 5012   1.454   3.318   4.560  2.2914  2.3463 -0.1214
   39DOPE  C313 5013   1.263   3.398   4.581  0.2016 -0.4990  0.4461
   39DOPE  H13X 5014   1.178   3.426   4.517  0.1591 -0.3643  0.5613
   39DOPE  H13Y 5015   1.231   3.318   4.652 -1.6266  1.4814  1.9569
   39DOPE  C314 5016   1.304   3.521   4.660 -0.4592  0.8054 -0.2845
   39DOPE  H14X 5017   1.394   3.566   4.614  2.5362 -4.1495  0.0218
   39DOPE  H14Y 5018   1.342   3.481   4.756 -1.0477 -1.7119 -1.0096
   39DOPE  C315 5019   1.200   3.636   4.678  0.3232 -0.8634 -0.7745
   39DOPE  H15X 5020   1.148   3.648   4.580 -0.4045  1.1687 -0.2009
   39DOPE  H15Y 5021   1.256   3.731   4.692 -0.3904 -0.2175 -2.0901
   39DOPE  C316 5022   1.096   3.603   4.782  0.1697 -0.1290  0.6286
   39DOPE  H16X 5023   1.042   3.509   4.756 -1.5769  0.6460  1.2887
   39DOPE  H16Y 5024   1.029   3.689   4.805 -0.4161 -1.1338  2.9351
   39DOPE  C317 5025   1.161   3.571   4.917  0.0108  0.0928 -0.0758
   39DOPE  H17X 5026   1.183   3.462   4.920 -2.1431 -0.4723 -1.9773
   39DOPE  H17Y 5027   1.258   3.623   4.927 -0.8095  1.6589  0.0769
   39DOPE  C318 5028   1.069   3.603   5.032  0.1233 -0.5503 -0.6196
   39DOPE  H18X 5029   0.974   3.548   5.016  0.1424 -0.3608 -1.4155
   39DOPE  H18Y 5030   1.124   3.569   5.122  1.9561 -2.0248 -2.2346
   39DOPE  H18Z 5031   1.048   3.711   5.048  0.0385 -0.7812  0.9901
   40DOPE     N 5032   3.180   7.057   2.731  0.5177 -0.3899  0.0518
   40DOPE   HN1 5033   3.251   6.981   2.742  1.1830  0.3672  1.1665
   40DOPE   HN2 5034   3.090   7.035   2.684  0.6690  0.7961 -0.8414
   40DOPE   HN3 5035   3.206   7.139   2.673 -3.2493  0.9971  0.0717
   40DOPE   C12 5036   3.155   7.102   2.867 -0.1255 -0.9193  0.2200
   40DOPE  H12A 5037   3.157   7.021   2.943  1.9773 -0.2792  0.9308
   40DOPE  H12B 5038   3.069   7.171   2.877  0.6889  0.0648  0.7601
   40DOPE   C11 5039   3.274   7.182   2.924  0.6290  0.4216  0.5787
   40DOPE  H11A 5040   3.238   7.236   3.014  0.8796 -0.8589  1.4925
   40DOPE  H11B 5041   3.291   7.269   2.858 -2.6613  0.4265 -0.4090
   40DOPE     P 5042   3.525   7.146   2.944 -0.2475  0.2499 -0.2851
   40DOPE   O13 5043   3.529   7.287   2.898 -0.6165 -0.0122  0.7786
   40DOPE   O14 5044   3.602   7.053   2.860  0.2279  0.0210  0.5589
   40DOPE   O11 5045   3.559   7.137   3.090 -0.2566  0.1197  0.1048
   40DOPE   O12 5046   3.382   7.102   2.953  0.1272 -0.0470 -0.0581
   40DOPE    C1 5047   3.511   7.051   3.198  0.9340  0.1423 -0.5591
   40DOPE    HA 5048   3.591   7.026   3.271 -0.7031  0.7594  1.5363
   40DOPE    HB 5049   3.489   6.952   3.152  1.3663 -0.2856  0.1405
   40DOPE    C2 5050   3.400   7.121   3.285  0.0021 -0.1531  0.2867
   40DOPE    HS 5051   3.318   7.151   3.217 -2.4103 -3.0412  1.6948
   40DOPE   O21 5052   3.457   7.237   3.347  0.1110  0.4352  0.3669
   40DOPE   C21 5053   3.370   7.335   3.364  0.6633  0.2473 -0.1625
   40DOPE   O22 5054   3.250   7.333   3.329 -0.2067 -0.7741 -0.1579
   40DOPE   C22 5055   3.446   7.452   3.408  0.2988 -0.0126 -0.4563
   40DOPE   H2R 5056   3.433   7.529   3.329 -0.6453 -2.7540 -3.2072
   40DOPE   H2S 5057   3.552   7.428   3.428  0.4774  2.0337  1.4312
   40DOPE    C3 5058   3.325   7.023   3.383  0.5832 -0.2219 -0.8121
   40DOPE    HX 5059   3.270   6.943   3.330 -1.7234  0.2799  0.6782
   40DOPE    HY 5060   3.248   7.083   3.437  1.5853  0.8699 -0.5521
   40DOPE   O31 5061   3.424   6.963   3.474  0.7686 -0.1070  0.6264
   40DOPE   C31 5062   3.387   6.868   3.546 -0.4319  0.0632  0.0073
   40DOPE   O32 5063   3.275   6.826   3.557 -0.1069 -0.5249 -0.4348
   40DOPE   C32 5064   3.507   6.818   3.632 -0.1108  0.5693  0.0834
   40DOPE   H2X 5065   3.597   6.806   3.569 -0.1138  0.2254  0.1375
   40DOPE   H2Y 5066   3.539   6.903   3.695  1.5858  2.8864 -3.5566
   40DOPE   C23 5067   3.385   7.519   3.538 -0.0054  0.1925  0.2547
   40DOPE   H3R 5068   3.276   7.527   3.520 -0.4234  0.5913  2.6143
   40DOPE   H3S 5069   3.425   7.622   3.534  0.8799 -0.0768  1.4662
   40DOPE   C24 5070   3.427   7.450   3.671 -0.3560  0.2216  0.7954
   40DOPE   H4R 5071   3.360   7.496   3.748  0.5848  1.1409  1.0940
   40DOPE   H4S 5072   3.533   7.474   3.696 -0.1364 -0.9525  1.0571
   40DOPE   C25 5073   3.387   7.303   3.679  0.8350 -0.2036  0.2264
   40DOPE   H5R 5074   3.464   7.243   3.626 -0.3720 -2.0984  0.5415
   40DOPE   H5S 5075   3.291   7.285   3.626  1.7608 -0.9488 -1.2536
   40DOPE   C26 5076   3.356   7.256   3.827 -0.4122 -0.1426 -0.1501
   40DOPE   H6R 5077   3.322   7.151   3.812 -0.4122 -0.0608 -0.7506
   40DOPE   H6S 5078   3.264   7.306   3.864 -0.1935 -0.9001  1.4772
   40DOPE   C27 5079   3.476   7.272   3.927  0.5385 -0.3609  0.4564
   40DOPE   H7R 5080   3.520   7.373   3.911 -0.2588  0.1202  1.2040
   40DOPE   H7S 5081   3.554   7.195   3.906  0.4157 -0.5234  0.5914
   40DOPE   C28 5082   3.432   7.265   4.079 -0.8502 -0.0301  0.6779
   40DOPE   H8R 5083   3.527   7.240   4.130 -0.6855  0.1359  0.4571
   40DOPE   H8S 5084   3.361   7.183   4.102  0.9426 -1.5483  0.9865
   40DOPE   C29 5085   3.386   7.402   4.127  0.8045 -0.3750  0.3800
   40DOPE   H9R 5086   3.450   7.485   4.094 -1.1261  0.5230 -1.2567
   40DOPE  C210 5087   3.282   7.424   4.212  0.2626 -0.6182 -0.1700
   40DOPE  H10R 5088   3.250   7.527   4.229  1.3651 -0.2505 -0.2187
   40DOPE  C211 5089   3.184   7.320   4.262 -0.0140  0.3528  0.4154
   40DOPE  H11R 5090   3.147   7.246   4.188  2.0465  1.0306 -1.3831
   40DOPE  H11S 5091   3.087   7.370   4.286 -1.6406 -1.5913 -1.7424
   40DOPE  C212 5092   3.238   7.243   4.385  0.0990 -0.2453 -0.0195
   40DOPE  H12R 5093   3.281   7.319   4.454  0.5711  1.4934 -2.0930
   40DOPE  H12S 5094   3.331   7.186   4.364  0.5030  0.6868 -0.8714
   40DOPE  C213 5095   3.144   7.146   4.451  0.7715  0.6677  0.0796
   40DOPE  H13R 5096   3.199   7.078   4.520  1.0569  1.0420  0.2270
   40DOPE  H13S 5097   3.096   7.070   4.385  1.8462 -0.8903  1.0013
   40DOPE  C214 5098   3.037   7.226   4.526 -0.1059 -0.4549 -0.4322
   40DOPE  H14R 5099   2.946   7.164   4.539 -0.2471 -0.3581 -0.9164
   40DOPE  H14S 5100   2.998   7.319   4.478  0.1385  0.8738  1.8063
   40DOPE  C215 5101   3.074   7.278   4.667 -0.5215 -0.1475  1.0153
   40DOPE  H15R 5102   3.181   7.309   4.667 -0.4109 -0.2158 -2.1454
   40DOPE  H15S 5103   3.061   7.187   4.729 -0.3627 -1.1095 -0.3052
   40DOPE  C216 5104   2.989   7.398   4.724 -0.4485  0.0973 -0.3647
   40DOPE  H16R 5105   2.888   7.354   4.737  0.8383 -2.9442  0.4322
   40DOPE  H16S 5106   2.985   7.484   4.654 -2.1670  0.4411  0.1075
   40DOPE  C217 5107   3.047   7.450   4.855 -0.3494  0.3611  0.3238
   40DOPE  H17R 5108   3.008   7.553   4.869 -2.7970 -0.5870  0.9341
   40DOPE  H17S 5109   3.158   7.453   4.845 -0.5114  2.5048 -1.6281
   40DOPE  C218 5110   3.001   7.370   4.978 -0.6307  0.5871  1.2030
   40DOPE  H18R 5111   3.031   7.263   4.970 -0.2287  0.8446 -1.6295
   40DOPE  H18S 5112   2.891   7.369   4.972 -0.5678 -1.1621 -1.0753
   40DOPE  H18T 5113   3.043   7.425   5.065  2.0857  0.4201  0.1227
   40DOPE   C33 5114   3.475   6.683   3.710 -0.6805  0.1777  0.3062
   40DOPE   H3X 5115   3.565   6.624   3.737  0.4181  1.5506 -0.1795
   40DOPE   H3Y 5116   3.410   6.615   3.650  0.1007 -1.0089  0.7772
   40DOPE   C34 5117   3.398   6.715   3.838 -0.4327  0.1803 -0.0741
   40DOPE   H4X 5118   3.323   6.797   3.831 -2.0492 -1.2991 -1.1908
   40DOPE   H4Y 5119   3.358   6.622   3.883  1.8232 -0.5891  0.4406
   40DOPE   C35 5120   3.500   6.754   3.950  0.2137  1.0261  0.7995
   40DOPE   H5X 5121   3.569   6.832   3.910  1.7437 -0.2464  0.8734
   40DOPE   H5Y 5122   3.560   6.665   3.978  1.7971  2.8078  3.6109
   40DOPE   C36 5123   3.424   6.805   4.076 -0.6400  0.7200  0.3060
   40DOPE   H6X 5124   3.368   6.713   4.104  0.2374 -0.0965 -0.5683
   40DOPE   H6Y 5125   3.347   6.878   4.044 -1.2972 -0.0127  0.1863
   40DOPE   C37 5126   3.506   6.866   4.192  0.0436  0.1689  0.0355
   40DOPE   H7X 5127   3.552   6.781   4.245 -0.3889  0.3705  0.7489
   40DOPE   H7Y 5128   3.587   6.932   4.153  0.0374 -0.1804 -0.5810
   40DOPE   C38 5129   3.411   6.948   4.285 -0.1836  0.1444 -0.1215
   40DOPE   H8X 5130   3.373   7.034   4.226  0.3842 -0.7436 -1.8353
   40DOPE   H8Y 5131   3.480   6.994   4.359  0.1823  1.0213 -0.9879
   40DOPE   C39 5132   3.298   6.864   4.342 -0.6762 -0.4667  0.3538
   40DOPE   H9X 5133   3.203   6.898   4.300  0.7793  0.4780 -2.4104
   40DOPE  C310 5134   3.306   6.779   4.446 -0.8717  0.7709 -0.1110
   40DOPE  H10X 5135   3.217   6.722   4.474 -0.7239  0.1523 -0.8550
   40DOPE  C311 5136   3.435   6.747   4.522 -0.3059 -0.3546  0.6224
   40DOPE  H11X 5137   3.484   6.653   4.487 -0.8917 -0.5998  0.4357
   40DOPE  H11Y 5138   3.506   6.832   4.511 -1.7815  0.6984 -1.2261
   40DOPE  C312 5139   3.402   6.731   4.677  0.0161 -0.9347 -0.0996
   40DOPE  H12X 5140   3.318   6.658   4.686 -0.5929 -0.0259  2.2902
   40DOPE  H12Y 5141   3.370   6.828   4.719 -0.9004 -1.5744  0.7493
   40DOPE  C313 5142   3.523   6.665   4.751  0.0269 -0.4491  0.1077
   40DOPE  H13X 5143   3.503   6.558   4.729 -3.0964 -0.5066  2.5361
   40DOPE  H13Y 5144   3.617   6.708   4.709  0.2566 -0.5759  0.4922
   40DOPE  C314 5145   3.523   6.697   4.897  0.1578  0.3739  1.0929
   40DOPE  H14X 5146   3.429   6.668   4.948 -0.1121  3.3765  2.5361
   40DOPE  H14Y 5147   3.517   6.806   4.915  1.8800  0.2984  2.4161
   40DOPE  C315 5148   3.650   6.648   4.967  0.0138  0.4720  0.3137
   40DOPE  H15X 5149   3.740   6.687   4.915  0.8638 -1.8582 -0.0842
   40DOPE  H15Y 5150   3.655   6.537   4.958  0.9881  0.4923  0.4855
   40DOPE  C316 5151   3.646   6.695   5.114  0.5119 -0.3804  0.7274
   40DOPE  H16X 5152   3.551   6.659   5.158 -0.0807 -0.8140 -0.8206
   40DOPE  H16Y 5153   3.657   6.805   5.104  0.6304 -0.3774  0.8879
   40DOPE  C317 5154   3.764   6.635   5.192  0.0692  0.7068 -0.1888
   40DOPE  H17X 5155   3.745   6.640   5.301 -3.4711  1.2216 -0.7381
   40DOPE  H17Y 5156   3.771   6.525   5.172 -0.2057  0.5437  0.5786
   40DOPE  C318 5157   3.899   6.691   5.168 -0.4590  0.4203  0.6421
   40DOPE  H18X 5158   3.938   6.663   5.068 -0.2297 -2.3523  1.4393
   40DOPE  H18Y 5159   3.899   6.802   5.165  0.9441  0.4270 -1.2104
   40DOPE  H18Z 5160   3.972   6.650   5.241  0.0554 -2.9586 -1.5361
   41DOPE     N 5161   1.735   5.749   3.016 -0.2307  0.0656 -0.3071
   41DOPE   HN1 5162   1.653   5.789   3.066 -0.7335 -2.6259  1.2121
   41DOPE   HN2 5163   1.819   5.810   3.029  0.3843 -0.6537 -0.8715
   41DOPE   HN3 5164   1.718   5.731   2.915 -1.3152 -1.1187  0.0633
   41DOPE   C12 5165   1.778   5.622   3.072  0.0289 -0.7737  0.2907
   41DOPE  H12A 5166   1.711   5.546   3.025  1.1010 -1.3767 -0.3076
   41DOPE  H12B 5167   1.769   5.618   3.182  2.7598  0.8591  0.6772
   41DOPE   C11 5168   1.917   5.586   3.027 -0.8496 -0.6351  0.1216
   41DOPE  H11A 5169   1.915   5.565   2.918 -0.8380  0.9297 -0.2045
   41DOPE  H11B 5170   1.946   5.488   3.070  1.5908  0.2884  0.7235
   41DOPE     P 5171   2.156   5.708   3.017 -0.0491  0.2917  0.3144
   41DOPE   O13 5172   2.196   5.848   2.997  0.4461 -0.2439  0.1745
   41DOPE   O14 5173   2.178   5.621   2.897 -0.4016 -0.0389  0.2415
   41DOPE   O11 5174   2.242   5.646   3.125 -0.4003  0.4070  0.0052
   41DOPE   O12 5175   2.001   5.693   3.066 -0.0133 -0.5425 -0.1252
   41DOPE    C1 5176   2.180   5.599   3.252 -0.1770 -0.4115  0.4085
   41DOPE    HA 5177   2.144   5.495   3.236 -1.2046 -0.1173  0.7524
   41DOPE    HB 5178   2.099   5.665   3.290  0.9479  2.1879 -1.3436
   41DOPE    C2 5179   2.294   5.601   3.358 -0.0621  0.4513 -0.0061
   41DOPE    HS 5180   2.242   5.594   3.456 -0.5100  0.2525 -0.2548
   41DOPE   O21 5181   2.368   5.722   3.352 -1.1570 -0.3918  0.3756
   41DOPE   C21 5182   2.311   5.829   3.402  0.5401  0.2692 -0.1620
   41DOPE   O22 5183   2.204   5.829   3.454  0.4670 -0.1375 -0.0953
   41DOPE   C22 5184   2.389   5.957   3.379 -0.7747  0.3445 -0.1049
   41DOPE   H2R 5185   2.335   6.014   3.300  0.5291 -0.2360 -1.4723
   41DOPE   H2S 5186   2.481   5.922   3.328 -0.8987  4.0978 -3.3528
   41DOPE    C3 5187   2.408   5.493   3.345 -0.2335 -0.3815  0.0336
   41DOPE    HX 5188   2.476   5.488   3.432 -0.0402 -0.4240 -0.1183
   41DOPE    HY 5189   2.470   5.521   3.257  0.3403  1.7250  1.0461
   41DOPE   O31 5190   2.345   5.369   3.324 -0.5027 -0.4189  0.2706
   41DOPE   C31 5191   2.417   5.262   3.361  0.2638  0.6325 -0.6864
   41DOPE   O32 5192   2.531   5.270   3.406 -0.0552  0.2592 -0.0063
   41DOPE   C32 5193   2.338   5.131   3.342  0.0991 -0.3935  0.1432
   41DOPE   H2X 5194   2.229   5.139   3.362 -0.0940  0.6648 -1.2432
   41DOPE   H2Y 5195   2.361   5.100   3.238  0.7728 -0.9442  0.4446
   41DOPE   C23 5196   2.429   6.033   3.510  0.7335 -0.4253  0.5236
   41DOPE   H3R 5197   2.346   6.066   3.576 -0.6600  0.7598 -1.6655
   41DOPE   H3S 5198   2.473   6.125   3.468 -3.5943  1.6476 -0.0587
   41DOPE   C24 5199   2.532   5.955   3.593 -0.2758 -0.1926 -0.5150
   41DOPE   H4R 5200   2.629   5.950   3.538 -0.7972  1.1812 -1.6155
   41DOPE   H4S 5201   2.485   5.857   3.614 -0.6895  0.3022  0.9601
   41DOPE   C25 5202   2.548   6.021   3.733 -0.0178  0.9088 -0.0694
   41DOPE   H5R 5203   2.445   6.040   3.768  0.2805  1.5994  0.4678
   41DOPE   H5S 5204   2.589   6.124   3.718  2.5203 -0.1624 -1.2337
   41DOPE   C26 5205   2.635   5.936   3.836  0.1035 -0.5720 -0.0741
   41DOPE   H6R 5206   2.742   5.963   3.827  0.1715 -1.1768 -1.3608
   41DOPE   H6S 5207   2.627   5.829   3.806 -1.0989  0.1310 -2.5197
   41DOPE   C27 5208   2.602   5.988   3.971  0.0165  0.2610  0.1386
   41DOPE   H7R 5209   2.498   5.956   3.992  0.2223 -0.3115  0.3146
   41DOPE   H7S 5210   2.603   6.097   3.991 -0.2037  0.3802 -0.4501
   41DOPE   C28 5211   2.694   5.910   4.076  0.4367  0.2333 -0.6117
   41DOPE   H8R 5212   2.801   5.937   4.063  0.7823 -0.4332  0.6918
   41DOPE   H8S 5213   2.676   5.801   4.060 -2.9248  0.5329  0.3071
   41DOPE   C29 5214   2.657   5.939   4.219 -0.9138  0.0177 -0.6945
   41DOPE   H9R 5215   2.668   6.044   4.250 -1.0759  0.1042 -0.9333
   41DOPE  C210 5216   2.615   5.855   4.312 -0.2034  0.3006 -0.1979
   41DOPE  H10R 5217   2.591   5.898   4.411 -2.0434 -2.0711  0.4764
   41DOPE  C211 5218   2.577   5.708   4.296  0.1122 -0.2681  1.4646
   41DOPE  H11R 5219   2.638   5.645   4.364  0.5037 -0.0419  1.3272
   41DOPE  H11S 5220   2.588   5.663   4.194 -3.2996  0.2123  0.7539
   41DOPE  C212 5221   2.423   5.685   4.319 -1.2392 -0.0184  0.5130
   41DOPE  H12R 5222   2.393   5.585   4.283  1.7340 -0.3419 -1.4567
   41DOPE  H12S 5223   2.371   5.752   4.248  0.2889  1.4040  0.6659
   41DOPE  C213 5224   2.373   5.710   4.457  0.1086 -0.0473 -0.3449
   41DOPE  H13R 5225   2.358   5.819   4.472 -2.5747 -0.3133 -0.6697
   41DOPE  H13S 5226   2.456   5.674   4.522  0.6258  0.8094 -0.5204
   41DOPE  C214 5227   2.238   5.643   4.474 -0.3914 -0.4873 -0.0032
   41DOPE  H14R 5228   2.235   5.534   4.449  0.0651 -0.6462  0.6109
   41DOPE  H14S 5229   2.161   5.677   4.402 -0.5542 -1.7058 -0.4312
   41DOPE  C215 5230   2.186   5.637   4.625 -0.6277  0.0232  0.2006
   41DOPE  H15R 5231   2.192   5.741   4.663  1.1978  0.3341 -0.8189
   41DOPE  H15S 5232   2.266   5.575   4.670 -0.6012  0.6386  1.0183
   41DOPE  C216 5233   2.045   5.574   4.640 -0.0209 -0.4198  0.8352
   41DOPE  H16R 5234   2.023   5.478   4.589 -1.8559 -0.0874  0.9255
   41DOPE  H16S 5235   1.981   5.648   4.589 -1.3247 -2.6908 -0.9863
   41DOPE  C217 5236   2.003   5.555   4.789 -0.3465  0.5424  1.1562
   41DOPE  H17R 5237   1.896   5.527   4.781 -0.2882  0.5640  0.1421
   41DOPE  H17S 5238   2.009   5.653   4.841 -1.3473 -0.2623  2.8663
   41DOPE  C218 5239   2.093   5.449   4.856  0.0904  0.3740  0.0725
   41DOPE  H18R 5240   2.058   5.422   4.958 -1.9136 -0.6526 -0.8254
   41DOPE  H18S 5241   2.204   5.458   4.847  0.5350 -2.8539  1.0047
   41DOPE  H18T 5242   2.076   5.352   4.804 -0.8042 -1.2907  3.2282
   41DOPE   C33 5243   2.407   5.018   3.426 -0.4227 -1.1041  0.0475
   41DOPE   H3X 5244   2.401   5.040   3.534  2.4396  0.0447  0.0531
   41DOPE   H3Y 5245   2.513   4.999   3.398 -1.2639 -2.7435 -2.3915
   41DOPE   C34 5246   2.338   4.882   3.404 -0.0427 -0.2559  0.9455
   41DOPE   H4X 5247   2.320   4.861   3.296 -0.6416 -1.3488  1.2478
   41DOPE   H4Y 5248   2.423   4.812   3.412  0.2910  0.1167  0.7237
   41DOPE   C35 5249   2.234   4.849   3.501  0.1121 -0.3533 -0.0982
   41DOPE   H5X 5250   2.139   4.902   3.477  0.9156  0.9395 -0.4689
   41DOPE   H5Y 5251   2.265   4.888   3.600  0.2403 -1.1537  0.1835
   41DOPE   C36 5252   2.199   4.695   3.518  1.0147 -1.5486  0.0875
   41DOPE   H6X 5253   2.300   4.651   3.523  1.0430 -1.5862 -0.6551
   41DOPE   H6Y 5254   2.157   4.663   3.420  2.0133 -0.4787 -0.7173
   41DOPE   C37 5255   2.114   4.666   3.646  0.3497 -0.3586 -0.2795
   41DOPE   H7X 5256   2.080   4.561   3.630  1.2465 -0.4130 -2.0219
   41DOPE   H7Y 5257   2.170   4.679   3.741 -0.2523  0.3297 -0.0131
   41DOPE   C38 5258   1.992   4.761   3.652  0.2243 -0.5814 -0.2718
   41DOPE   H8X 5259   2.021   4.867   3.670 -0.0893 -0.8459  2.0880
   41DOPE   H8Y 5260   1.937   4.736   3.745 -2.2257  0.4826 -1.3445
   41DOPE   C39 5261   1.897   4.743   3.537  0.3759  0.5475  0.3890
   41DOPE   H9X 5262   1.949   4.748   3.440 -0.7902 -0.9491 -0.3655
   41DOPE  C310 5263   1.777   4.687   3.537 -0.3296  0.1531  0.2896
   41DOPE  H10X 5264   1.709   4.711   3.454 -0.4321  0.6762  0.5173
   41DOPE  C311 5265   1.688   4.656   3.649 -0.1853 -0.0373 -0.1246
   41DOPE  H11X 5266   1.625   4.566   3.632 -1.3129  1.0948 -2.5349
   41DOPE  H11Y 5267   1.752   4.627   3.734 -1.7821  0.5188  1.3158
   41DOPE  C312 5268   1.602   4.776   3.689  0.5198  0.2293 -0.2043
   41DOPE  H12X 5269   1.516   4.792   3.620 -1.0721  1.1055  1.8777
   41DOPE  H12Y 5270   1.659   4.871   3.690  0.4872  0.3057  2.6031
   41DOPE  C313 5271   1.551   4.764   3.838 -0.1553 -0.4752  0.0746
   41DOPE  H13X 5272   1.482   4.848   3.858 -1.1393 -1.3898  0.6700
   41DOPE  H13Y 5273   1.499   4.666   3.850 -1.6172  0.2549 -0.1164
   41DOPE  C314 5274   1.654   4.762   3.954  0.6971 -0.2153  0.3660
   41DOPE  H14X 5275   1.726   4.843   3.931  0.1161  0.5932  1.2905
   41DOPE  H14Y 5276   1.719   4.673   3.942  1.7172  0.7420 -1.6216
   41DOPE  C315 5277   1.592   4.777   4.094  0.0038  0.8037  0.0208
   41DOPE  H15X 5278   1.536   4.683   4.114  0.4470 -0.0418 -2.3451
   41DOPE  H15Y 5279   1.515   4.857   4.087 -1.2003 -0.2008  1.2267
   41DOPE  C316 5280   1.702   4.794   4.195 -0.2344  0.6530  0.0116
   41DOPE  H16X 5281   1.758   4.887   4.171  1.7283 -0.3114  0.6174
   41DOPE  H16Y 5282   1.767   4.704   4.190 -2.2611 -0.7908 -2.3504
   41DOPE  C317 5283   1.652   4.790   4.342  0.1218  0.0127  0.0192
   41DOPE  H17X 5284   1.584   4.877   4.355 -0.4240  0.0189 -2.4711
   41DOPE  H17Y 5285   1.579   4.708   4.358 -0.8235  0.7120 -0.6676
   41DOPE  C318 5286   1.769   4.786   4.441  0.1161 -0.1800  0.0101
   41DOPE  H18X 5287   1.829   4.880   4.442  1.2971 -0.8336  3.4072
   41DOPE  H18Y 5288   1.742   4.779   4.549  2.9437  1.2214  0.9168
   41DOPE  H18Z 5289   1.836   4.699   4.427 -0.4694 -0.9303  1.6234
   42DOPE     N 5290   2.097   3.611   3.237  0.7267 -0.2318  0.1003
   42DOPE   HN1 5291   2.128   3.652   3.146 -2.6649 -2.2090 -2.1362
   42DOPE   HN2 5292   2.073   3.683   3.309 -0.0744 -0.4950  0.1022
   42DOPE   HN3 5293   2.169   3.545   3.274  1.0258 -0.4994 -0.9251
   42DOPE   C12 5294   1.982   3.531   3.212  0.1022 -0.4067  0.5016
   42DOPE  H12A 5295   1.922   3.526   3.305  0.8448 -1.3314  0.9557
   42DOPE  H12B 5296   2.023   3.434   3.177  0.6267  0.0350 -0.1304
   42DOPE   C11 5297   1.893   3.588   3.092  0.0810  0.1458  0.2693
   42DOPE  H11A 5298   1.811   3.517   3.068 -0.2663  0.4985  0.4000
   42DOPE  H11B 5299   1.957   3.583   3.001  1.4401 -6.2383  1.1105
   42DOPE     P 5300   1.698   3.775   3.107  0.1934 -0.2593  0.0112
   42DOPE   O13 5301   1.611   3.651   3.086 -0.0531  0.1503  1.1637
   42DOPE   O14 5302   1.683   3.889   3.019 -0.0026 -0.0809 -0.5238
   42DOPE   O11 5303   1.682   3.826   3.256  0.0752 -0.1632 -0.4922
   42DOPE   O12 5304   1.853   3.729   3.108  0.2223 -0.0336 -0.3472
   42DOPE    C1 5305   1.711   3.723   3.358 -0.1367  0.3828 -0.0642
   42DOPE    HA 5306   1.822   3.721   3.369  0.1675  2.2079 -2.0591
   42DOPE    HB 5307   1.675   3.622   3.329 -0.6081  0.1841  1.1725
   42DOPE    C2 5308   1.650   3.751   3.497 -0.0216 -0.0482  0.1313
   42DOPE    HS 5309   1.545   3.716   3.491  0.2231 -0.7117 -0.2713
   42DOPE   O21 5310   1.634   3.892   3.530 -0.0540 -0.2319 -0.6193
   42DOPE   C21 5311   1.734   3.962   3.573  0.1041  0.1083  0.3394
   42DOPE   O22 5312   1.849   3.920   3.589 -0.7136 -0.2748  0.3341
   42DOPE   C22 5313   1.690   4.099   3.613  0.4702  0.2070 -0.3902
   42DOPE   H2R 5314   1.639   4.147   3.527 -2.1583  2.7390  2.2919
   42DOPE   H2S 5315   1.784   4.151   3.642 -0.7847  2.4259 -0.0400
   42DOPE    C3 5316   1.717   3.663   3.608  0.0814 -0.1910  0.5807
   42DOPE    HX 5317   1.818   3.704   3.628 -1.0838  2.0441  2.3044
   42DOPE    HY 5318   1.729   3.559   3.569  1.0768 -0.2718  1.0851
   42DOPE   O31 5319   1.641   3.666   3.728  0.1160  0.3694  0.3661
   42DOPE   C31 5320   1.684   3.586   3.824  0.3446 -0.2498  0.4203
   42DOPE   O32 5321   1.769   3.496   3.815 -0.1063  0.2202  0.6485
   42DOPE   C32 5322   1.604   3.622   3.949 -0.5917 -0.6194  0.1101
   42DOPE   H2X 5323   1.535   3.709   3.939 -0.4691  0.2904  4.8899
   42DOPE   H2Y 5324   1.538   3.535   3.968  1.2654 -2.5592 -1.6675
   42DOPE   C23 5325   1.592   4.098   3.734  0.0541 -0.7209  0.0864
   42DOPE   H3R 5326   1.610   4.188   3.798  1.1690 -0.2530 -0.8616
   42DOPE   H3S 5327   1.626   4.015   3.800  2.6347 -0.5173 -0.8708
   42DOPE   C24 5328   1.441   4.078   3.696 -0.7155 -0.1790 -0.1807
   42DOPE   H4R 5329   1.451   3.974   3.656  1.3925 -0.3306  0.6176
   42DOPE   H4S 5330   1.400   4.156   3.629 -1.4665  0.2317  0.7220
   42DOPE   C25 5331   1.347   4.071   3.815 -0.1892  0.0156 -0.1878
   42DOPE   H5R 5332   1.239   4.069   3.788 -0.7858 -0.3908  2.0246
   42DOPE   H5S 5333   1.364   4.167   3.867  1.6571  0.6950 -1.9169
   42DOPE   C26 5334   1.381   3.967   3.922  0.5293  0.1759 -0.5559
   42DOPE   H6R 5335   1.476   3.994   3.973 -0.6530 -0.3885  2.1299
   42DOPE   H6S 5336   1.395   3.869   3.873  0.9693  0.4377 -0.9623
   42DOPE   C27 5337   1.270   3.967   4.029 -0.0288  0.5577 -0.2449
   42DOPE   H7R 5338   1.173   3.934   3.985 -0.4693  1.8042 -0.2435
   42DOPE   H7S 5339   1.260   4.068   4.073  1.0364  0.2631  0.7077
   42DOPE   C28 5340   1.312   3.874   4.152 -0.4320 -0.1158 -0.4477
   42DOPE   H8R 5341   1.401   3.933   4.182 -1.8956  3.1400 -2.0884
   42DOPE   H8S 5342   1.333   3.777   4.101  1.9231  0.1905 -0.1837
   42DOPE   C29 5343   1.208   3.867   4.262  0.1390  0.3998  0.2667
   42DOPE   H9R 5344   1.106   3.857   4.223  0.5130 -0.4796 -0.5191
   42DOPE  C210 5345   1.218   3.867   4.393 -0.3544 -0.0485  0.1203
   42DOPE  H10R 5346   1.132   3.875   4.461  0.0373 -2.8574  1.0586
   42DOPE  C211 5347   1.349   3.884   4.469 -0.5857 -0.1621 -0.4514
   42DOPE  H11R 5348   1.440   3.893   4.404  1.7995 -1.0208  2.5287
   42DOPE  H11S 5349   1.371   3.794   4.531  1.7476 -0.7769 -1.9879
   42DOPE  C212 5350   1.337   4.019   4.539 -0.3390  0.4053  0.1277
   42DOPE  H12R 5351   1.301   4.087   4.458  0.5041  0.1791 -0.4434
   42DOPE  H12S 5352   1.442   4.046   4.563  0.2437 -1.8118  0.2338
   42DOPE  C213 5353   1.234   4.023   4.649  0.1350  0.5106  0.3066
   42DOPE  H13R 5354   1.140   3.967   4.634  0.5598  0.1020 -0.9590
   42DOPE  H13S 5355   1.204   4.129   4.636  1.3420  1.1346  2.1709
   42DOPE  C214 5356   1.282   4.008   4.794 -0.2405  0.6857  0.0821
   42DOPE  H14R 5357   1.354   4.092   4.806  0.7119  0.3357 -2.5658
   42DOPE  H14S 5358   1.342   3.915   4.804 -2.1967 -0.4927  1.7172
   42DOPE  C215 5359   1.174   4.023   4.909 -0.3660 -0.1422  0.8165
   42DOPE  H15R 5360   1.101   3.939   4.908 -0.5728 -0.0005  2.1232
   42DOPE  H15S 5361   1.111   4.108   4.878 -1.5115 -0.6653  1.6100
   42DOPE  C216 5362   1.216   4.048   5.056 -0.1936  0.5256  0.4831
   42DOPE  H16R 5363   1.263   3.956   5.096 -0.7233  0.8779  1.9771
   42DOPE  H16S 5364   1.131   4.064   5.126 -1.3054  0.6838 -0.8589
   42DOPE  C217 5365   1.311   4.172   5.080  0.3014 -0.1525 -0.3601
   42DOPE  H17R 5366   1.259   4.258   5.033 -1.3524 -0.6335  0.5359
   42DOPE  H17S 5367   1.410   4.151   5.033  0.1923 -0.8362 -0.2914
   42DOPE  C218 5368   1.342   4.202   5.232 -0.9803 -0.1926 -0.7485
   42DOPE  H18R 5369   1.245   4.214   5.286 -0.5306  0.8839 -0.1506
   42DOPE  H18S 5370   1.382   4.305   5.242  2.9520 -1.4768 -1.5448
   42DOPE  H18T 5371   1.414   4.133   5.280 -0.8993  0.2598 -0.2052
   42DOPE   C33 5372   1.705   3.663   4.062 -0.6557 -0.3645  0.1132
   42DOPE   H3X 5373   1.749   3.760   4.028 -1.6810  1.0241  2.4394
   42DOPE   H3Y 5374   1.785   3.585   4.064 -0.9378 -0.6440  0.8441
   42DOPE   C34 5375   1.638   3.682   4.193 -0.2360 -0.3514  0.7589
   42DOPE   H4X 5376   1.554   3.755   4.187  0.8850  0.8960 -0.4145
   42DOPE   H4Y 5377   1.592   3.583   4.213  1.7491 -1.8795 -1.6450
   42DOPE   C35 5378   1.730   3.728   4.310 -1.0031  0.0314  0.1018
   42DOPE   H5X 5379   1.814   3.657   4.321 -0.0763  0.9243 -0.9552
   42DOPE   H5Y 5380   1.661   3.717   4.397 -2.4474 -2.7318 -1.2686
   42DOPE   C36 5381   1.779   3.870   4.283  0.8648 -0.8574 -0.2551
   42DOPE   H6X 5382   1.690   3.926   4.246 -0.9221 -2.8248  0.8427
   42DOPE   H6Y 5383   1.843   3.870   4.192  0.4652 -0.2215 -0.5418
   42DOPE   C37 5384   1.850   3.932   4.405 -0.6123  0.5211  0.5711
   42DOPE   H7X 5385   1.785   3.945   4.495  0.0809  0.1516  1.1340
   42DOPE   H7Y 5386   1.928   3.858   4.433 -0.2198  0.6302 -0.2119
   42DOPE   C38 5387   1.913   4.071   4.379  0.8617  0.1458  0.3800
   42DOPE   H8X 5388   1.821   4.133   4.368 -1.7327 -3.0060  2.3722
   42DOPE   H8Y 5389   1.979   4.069   4.289  2.1138  0.1157  1.2838
   42DOPE   C39 5390   2.002   4.118   4.485  0.4012 -0.2374 -0.4488
   42DOPE   H9X 5391   2.031   4.034   4.551  1.4321  0.2263 -0.2865
   42DOPE  C310 5392   2.047   4.238   4.517  0.0525  0.0985 -0.1802
   42DOPE  H10X 5393   2.138   4.253   4.578  0.4038 -0.8223 -0.4549
   42DOPE  C311 5394   1.991   4.362   4.456  0.8023  0.0939 -0.8068
   42DOPE  H11X 5395   1.885   4.345   4.429 -0.8115  2.6919  3.0057
   42DOPE  H11Y 5396   1.978   4.445   4.527 -0.0780  1.2090 -2.2150
   42DOPE  C312 5397   2.076   4.403   4.340 -0.3336  0.0106  0.1424
   42DOPE  H12X 5398   2.094   4.315   4.275 -2.9861 -1.2149  0.9152
   42DOPE  H12Y 5399   2.175   4.431   4.381 -0.0166  2.0716 -1.8411
   42DOPE  C313 5400   2.032   4.524   4.268  0.9158 -0.1588  0.6599
   42DOPE  H13X 5401   1.928   4.512   4.230  1.2161  0.3216 -0.3533
   42DOPE  H13Y 5402   2.026   4.609   4.339 -1.6169  1.4328 -1.2660
   42DOPE  C314 5403   2.134   4.552   4.154 -0.8643 -0.5792  0.2875
   42DOPE  H14X 5404   2.154   4.467   4.085 -0.7073 -0.6543  0.4238
   42DOPE  H14Y 5405   2.230   4.581   4.203 -1.2957  3.2372 -0.7856
   42DOPE  C315 5406   2.108   4.671   4.066  0.0319  0.1596  0.1648
   42DOPE  H15X 5407   2.020   4.660   3.999  1.3030 -1.2705 -1.3527
   42DOPE  H15Y 5408   2.200   4.690   4.006  1.1064  0.3716  1.8331
   42DOPE  C316 5409   2.073   4.802   4.151  0.5675  0.9214  0.2641
   42DOPE  H16X 5410   2.151   4.808   4.230  0.4972 -0.2227  0.4317
   42DOPE  H16Y 5411   1.966   4.800   4.183  1.2402  0.9381  2.7523
   42DOPE  C317 5412   2.082   4.931   4.076 -0.9076  0.5086  0.8781
   42DOPE  H17X 5413   2.017   4.926   3.986 -1.9551  0.6646  1.6122
   42DOPE  H17Y 5414   2.035   4.989   4.158 -0.0138 -0.3994  2.0763
   42DOPE  C318 5415   2.230   4.982   4.049  0.0755 -0.3568 -0.5380
   42DOPE  H18X 5416   2.287   5.000   4.143  0.6999 -1.4673 -0.6932
   42DOPE  H18Y 5417   2.287   4.900   4.001  1.0576 -0.3274  0.5324
   42DOPE  H18Z 5418   2.229   5.073   3.985  1.9936 -0.4902 -0.8067
   43DOPE     N 5419   1.630   2.877   2.893 -0.1034 -0.2306  0.0205
   43DOPE   HN1 5420   1.587   2.959   2.941  1.6665 -0.5359  2.2485
   43DOPE   HN2 5421   1.707   2.926   2.842 -0.1769  0.9099  0.9721
   43DOPE   HN3 5422   1.563   2.820   2.837 -1.5969  0.5322  0.9556
   43DOPE   C12 5423   1.693   2.790   2.997  0.5338  0.4614  0.1418
   43DOPE  H12A 5424   1.730   2.700   2.944  2.5361  0.4494  1.4539
   43DOPE  H12B 5425   1.608   2.769   3.064 -0.4755  0.6897 -1.0286
   43DOPE   C11 5426   1.807   2.863   3.071 -0.1614  0.8629  0.3091
   43DOPE  H11A 5427   1.900   2.855   3.010 -0.0785  1.2116  0.3893
   43DOPE  H11B 5428   1.844   2.805   3.158  4.3214  0.0174 -1.8414
   43DOPE     P 5429   1.878   3.089   3.179  0.2855  0.0971  0.4545
   43DOPE   O13 5430   1.817   3.222   3.184  0.2546  0.2753 -0.0958
   43DOPE   O14 5431   2.014   3.071   3.120 -0.6563 -0.0071 -0.5190
   43DOPE   O11 5432   1.884   3.027   3.320 -0.0607  0.1303  0.1576
   43DOPE   O12 5433   1.769   2.989   3.103 -0.1883 -0.4665  0.0835
   43DOPE    C1 5434   1.767   2.975   3.394 -0.7875 -0.0545 -0.1446
   43DOPE    HA 5435   1.760   2.866   3.372  1.1936 -0.5185  1.3345
   43DOPE    HB 5436   1.670   3.017   3.358  0.7182  0.5747 -3.9359
   43DOPE    C2 5437   1.795   2.982   3.548  0.0108  0.1638  0.1917
   43DOPE    HS 5438   1.800   3.092   3.563  4.7023  0.0187  1.2890
   43DOPE   O21 5439   1.919   2.924   3.582  0.1144  0.1441  0.2198
   43DOPE   C21 5440   1.973   2.958   3.700  0.1393  0.1079 -0.2010
   43DOPE   O22 5441   1.940   3.053   3.765  0.1248 -0.3271  0.3670
   43DOPE   C22 5442   2.074   2.853   3.728  0.4258 -0.6180 -0.5356
   43DOPE   H2R 5443   2.151   2.857   3.649  2.0832  0.5298  1.0455
   43DOPE   H2S 5444   2.029   2.751   3.731 -0.8383 -0.1398 -2.0485
   43DOPE    C3 5445   1.687   2.919   3.636 -0.2443 -0.7880 -0.2120
   43DOPE    HX 5446   1.696   2.809   3.621 -0.2374 -0.7230 -0.7036
   43DOPE    HY 5447   1.593   2.952   3.587 -0.1950 -1.1774 -0.5754
   43DOPE   O31 5448   1.690   2.944   3.780  0.2368  0.8100 -0.1499
   43DOPE   C31 5449   1.654   3.064   3.822  0.5302 -0.4887 -0.2420
   43DOPE   O32 5450   1.610   3.152   3.747 -0.1217  0.2532  0.1091
   43DOPE   C32 5451   1.683   3.076   3.968 -0.1650  0.0553 -0.4032
   43DOPE   H2X 5452   1.601   3.019   4.017  0.6825 -0.7165  0.1325
   43DOPE   H2Y 5453   1.781   3.033   3.996 -0.3906 -1.2039 -1.3996
   43DOPE   C23 5454   2.150   2.872   3.860 -0.0480  0.7655  0.0063
   43DOPE   H3R 5455   2.197   2.973   3.870  1.2801  0.0532  1.3890
   43DOPE   H3S 5456   2.225   2.790   3.860  0.8578  1.5728 -0.2314
   43DOPE   C24 5457   2.073   2.844   3.991  0.5139  0.3197  0.3737
   43DOPE   H4R 5458   2.055   2.734   3.986 -0.0623  0.3891  0.9291
   43DOPE   H4S 5459   1.978   2.902   3.989  0.4617  0.2188 -0.9085
   43DOPE   C25 5460   2.154   2.887   4.117  0.0097  0.2635  0.7661
   43DOPE   H5R 5461   2.180   2.994   4.100 -1.0608  0.2869 -0.9582
   43DOPE   H5S 5462   2.252   2.835   4.116 -0.1672 -0.2746  3.8537
   43DOPE   C26 5463   2.088   2.859   4.252  0.0092  0.4904  0.0146
   43DOPE   H6R 5464   2.018   2.942   4.276 -0.2005 -0.1676  1.8123
   43DOPE   H6S 5465   2.171   2.858   4.326 -0.7296  0.2210  0.8565
   43DOPE   C27 5466   2.022   2.716   4.262  0.1117 -0.4465 -0.0538
   43DOPE   H7R 5467   2.087   2.635   4.224  0.7890  1.1809 -2.6137
   43DOPE   H7S 5468   1.932   2.704   4.198  0.1929  2.1551 -0.7573
   43DOPE   C28 5469   1.967   2.677   4.411  0.2591  0.0093  0.1339
   43DOPE   H8R 5470   2.068   2.667   4.455 -0.9025 -1.1077  2.7466
   43DOPE   H8S 5471   1.911   2.582   4.407 -0.8076  0.5623  1.2808
   43DOPE   C29 5472   1.887   2.782   4.486  0.6977 -0.3318 -1.0653
   43DOPE   H9R 5473   1.783   2.795   4.451  1.0586  1.3997 -1.6238
   43DOPE  C210 5474   1.927   2.853   4.595  0.0312  0.1344 -0.0949
   43DOPE  H10R 5475   1.860   2.934   4.628 -0.3178 -1.3248  3.1447
   43DOPE  C211 5476   2.063   2.844   4.662 -0.1390  0.4116  0.4004
   43DOPE  H11R 5477   2.144   2.880   4.596 -1.0573  2.1349  0.1607
   43DOPE  H11S 5478   2.088   2.739   4.689  2.0112  0.8849  0.4091
   43DOPE  C212 5479   2.087   2.931   4.785  0.3049 -0.8930 -0.0412
   43DOPE  H12R 5480   2.046   2.887   4.878  0.8893 -0.6121  0.3527
   43DOPE  H12S 5481   2.025   3.021   4.764  0.4775 -1.0021 -1.1205
   43DOPE  C213 5482   2.233   2.967   4.812  0.9957  0.0443  0.2472
   43DOPE  H13R 5483   2.235   3.040   4.896  1.8977  0.7093 -0.3247
   43DOPE  H13S 5484   2.272   3.021   4.723 -0.2703 -1.1099 -1.0452
   43DOPE  C214 5485   2.321   2.849   4.856 -0.2274  0.0439 -0.4909
   43DOPE  H14R 5486   2.324   2.773   4.775 -1.6265 -0.6308  0.0546
   43DOPE  H14S 5487   2.275   2.803   4.946  2.7573 -1.8611  0.1916
   43DOPE  C215 5488   2.458   2.896   4.903 -0.3451 -1.0044 -0.3873
   43DOPE  H15R 5489   2.441   2.966   4.987  0.4612  0.1027 -1.1305
   43DOPE  H15S 5490   2.509   2.956   4.825 -1.3243  0.0589 -0.2374
   43DOPE  C216 5491   2.553   2.783   4.955  0.1168 -0.2442 -0.6538
   43DOPE  H16R 5492   2.557   2.708   4.873  0.4268  1.2354 -2.0196
   43DOPE  H16S 5493   2.499   2.733   5.039  0.0597 -0.1766 -0.6498
   43DOPE  C217 5494   2.693   2.834   4.988 -0.2665  0.2254 -0.3159
   43DOPE  H17R 5495   2.696   2.904   5.074  2.2344 -0.8565  0.5842
   43DOPE  H17S 5496   2.719   2.893   4.897 -0.1249 -0.5891 -0.8168
   43DOPE  C218 5497   2.800   2.729   5.017  0.3669 -0.0730  0.9507
   43DOPE  H18R 5498   2.794   2.641   4.950  0.3416 -0.3147  1.2701
   43DOPE  H18S 5499   2.781   2.691   5.120  1.4676  0.2440  1.2825
   43DOPE  H18T 5500   2.905   2.763   5.017  0.2903  0.1741  0.5200
   43DOPE   C33 5501   1.676   3.226   4.013  0.3833  0.0392  0.9016
   43DOPE   H3X 5502   1.586   3.277   3.972 -0.0984 -0.3377  1.4783
   43DOPE   H3Y 5503   1.764   3.281   3.975 -0.8430  0.9974 -0.6946
   43DOPE   C34 5504   1.663   3.241   4.164 -0.4854 -0.6085  0.2086
   43DOPE   H4X 5505   1.638   3.348   4.182 -0.9017 -0.4743 -1.0267
   43DOPE   H4Y 5506   1.593   3.172   4.215 -0.2586 -1.2032 -0.2766
   43DOPE   C35 5507   1.796   3.208   4.237  0.3327  0.1068 -0.1985
   43DOPE   H5X 5508   1.885   3.242   4.179  0.5299  2.0436  1.1198
   43DOPE   H5Y 5509   1.813   3.098   4.237 -0.7715 -0.0746 -0.4866
   43DOPE   C36 5510   1.801   3.286   4.373  0.2449 -0.0684  0.9193
   43DOPE   H6X 5511   1.708   3.263   4.428 -0.1530  2.7765  1.5660
   43DOPE   H6Y 5512   1.799   3.391   4.337  1.9859 -0.5871 -0.8900
   43DOPE   C37 5513   1.920   3.257   4.462 -0.0757 -0.6108 -0.2633
   43DOPE   H7X 5514   1.927   3.151   4.494 -1.2103 -0.3199  1.0262
   43DOPE   H7Y 5515   2.015   3.276   4.407 -0.3139  1.6637  0.0231
   43DOPE   C38 5516   1.921   3.347   4.588 -0.3633 -0.2737 -0.2909
   43DOPE   H8X 5517   1.935   3.452   4.553 -1.1124 -0.1666 -0.3034
   43DOPE   H8Y 5518   2.014   3.314   4.638 -0.4615 -0.1045  0.0061
   43DOPE   C39 5519   1.802   3.344   4.681 -0.3564  0.5536  0.1157
   43DOPE   H9X 5520   1.794   3.241   4.720 -0.3995  0.0092 -1.2640
   43DOPE  C310 5521   1.714   3.436   4.716  0.1607  0.5396  0.8948
   43DOPE  H10X 5522   1.645   3.408   4.796 -1.6956 -2.5643 -1.5661
   43DOPE  C311 5523   1.701   3.575   4.650 -0.4026 -0.0722 -0.0676
   43DOPE  H11X 5524   1.782   3.603   4.580  1.0790 -0.9995  1.2058
   43DOPE  H11Y 5525   1.604   3.576   4.595 -1.4406 -0.9448  1.6338
   43DOPE  C312 5526   1.690   3.686   4.757  0.4512 -0.4233  0.5951
   43DOPE  H12X 5527   1.597   3.680   4.817  0.6007  0.9802  0.9949
   43DOPE  H12Y 5528   1.692   3.783   4.703 -0.3252  0.1391  1.5552
   43DOPE  C313 5529   1.796   3.686   4.872 -0.2128 -0.0322 -0.3138
   43DOPE  H13X 5530   1.759   3.747   4.956  0.6382  1.4790 -1.0072
   43DOPE  H13Y 5531   1.794   3.589   4.927  1.8352  0.3081  0.4357
   43DOPE  C314 5532   1.940   3.713   4.820  0.3273  0.5009 -0.4171
   43DOPE  H14X 5533   1.923   3.803   4.757  0.4982  1.4270  0.8285
   43DOPE  H14Y 5534   1.980   3.633   4.754  0.6444  0.1196  0.2287
   43DOPE  C315 5535   2.031   3.741   4.937  0.0352  0.1253  0.7189
   43DOPE  H15X 5536   2.087   3.648   4.958 -1.6666 -1.1701 -0.2569
   43DOPE  H15Y 5537   1.969   3.780   5.020  0.0170  1.5567  0.0612
   43DOPE  C316 5538   2.137   3.845   4.902  0.0923 -0.4093  0.1585
   43DOPE  H16X 5539   2.084   3.939   4.877 -0.6759 -0.8885 -0.0177
   43DOPE  H16Y 5540   2.205   3.813   4.820  0.1874  0.7534 -0.2325
   43DOPE  C317 5541   2.233   3.882   5.018 -0.1490  0.6250  0.5639
   43DOPE  H17X 5542   2.190   3.909   5.117 -1.3012  1.5913 -0.1843
   43DOPE  H17Y 5543   2.273   3.781   5.043 -0.0806  0.3274 -0.7119
   43DOPE  C318 5544   2.349   3.976   4.978  0.2831 -0.2489 -0.4285
   43DOPE  H18X 5545   2.378   3.957   4.872  0.4416 -0.2937 -0.3780
   43DOPE  H18Y 5546   2.333   4.085   4.992 -2.1936 -0.3237 -2.0738
   43DOPE  H18Z 5547   2.435   3.930   5.032  2.2205 -0.4971 -3.4512
   44DOPE     N 5548   5.084   1.438   3.187  0.6353 -0.2830 -0.1763
   44DOPE   HN1 5549   5.177   1.483   3.201  0.6820 -0.4218 -0.0435
   44DOPE   HN2 5550   5.082   1.375   3.104 -0.8146 -2.3127  1.3012
   44DOPE   HN3 5551   5.005   1.504   3.173  0.4419 -0.1724  1.2943
   44DOPE   C12 5552   5.048   1.355   3.304 -0.6292 -0.6661 -0.4986
   44DOPE  H12A 5553   5.130   1.280   3.312 -1.7553 -1.8142  0.9190
   44DOPE  H12B 5554   4.954   1.301   3.278 -1.5748 -0.1535  1.6311
   44DOPE   C11 5555   5.025   1.447   3.430 -0.7869  0.3821  0.8504
   44DOPE  H11A 5556   5.119   1.487   3.474 -0.6240  0.6455  0.2799
   44DOPE  H11B 5557   4.994   1.375   3.509 -0.4266 -0.6452  0.0663
   44DOPE     P 5558   4.776   1.530   3.406 -0.1197 -0.2476  0.0712
   44DOPE   O13 5559   4.729   1.435   3.299  0.1482 -0.2298  0.0482
   44DOPE   O14 5560   4.711   1.660   3.405 -0.3373 -0.2576  0.5048
   44DOPE   O11 5561   4.769   1.461   3.544 -0.0822  0.0083  0.2108
   44DOPE   O12 5562   4.933   1.552   3.394 -0.0032 -0.4235  0.6364
   44DOPE    C1 5563   4.663   1.487   3.637  0.5278 -0.2935 -0.3550
   44DOPE    HA 5564   4.655   1.404   3.711 -1.4557 -1.1424 -1.4438
   44DOPE    HB 5565   4.562   1.497   3.592 -0.6970  0.4310  2.3587
   44DOPE    C2 5566   4.694   1.613   3.727  0.3801 -0.2154 -0.6013
   44DOPE    HS 5567   4.706   1.700   3.659  0.2911 -1.5723 -2.4375
   44DOPE   O21 5568   4.818   1.584   3.792  0.1312 -0.5907 -0.7641
   44DOPE   C21 5569   4.925   1.656   3.759  0.4394  0.4286  0.4013
   44DOPE   O22 5570   4.922   1.755   3.689  0.3192 -0.0237 -0.2297
   44DOPE   C22 5571   5.054   1.591   3.806  0.4078  0.0143 -0.1861
   44DOPE   H2R 5572   5.093   1.537   3.717  0.3811 -2.1685  1.0547
   44DOPE   H2S 5573   5.024   1.513   3.879 -3.6259  1.5667  0.0816
   44DOPE    C3 5574   4.584   1.643   3.827  0.0591  0.7393  0.1216
   44DOPE    HX 5575   4.612   1.727   3.894 -1.8785  1.1115  0.5116
   44DOPE    HY 5576   4.569   1.553   3.890  1.6529 -0.8782 -1.6831
   44DOPE   O31 5577   4.465   1.664   3.761  0.3587 -0.4397  0.0763
   44DOPE   C31 5578   4.447   1.782   3.701  0.0288  0.2377 -0.4309
   44DOPE   O32 5579   4.526   1.867   3.688 -0.3314 -0.1318  0.5056
   44DOPE   C32 5580   4.298   1.803   3.670 -0.5772  0.1766  0.0134
   44DOPE   H2X 5581   4.270   1.732   3.589  0.9087  0.5026 -0.8270
   44DOPE   H2Y 5582   4.240   1.764   3.757  1.4445  0.3289  1.4902
   44DOPE   C23 5583   5.147   1.700   3.871  0.3107  0.2064  0.4310
   44DOPE   H3R 5584   5.129   1.797   3.819 -1.3466 -0.2781  0.0338
   44DOPE   H3S 5585   5.251   1.662   3.875  0.0903 -0.3872  0.5720
   44DOPE   C24 5586   5.113   1.710   4.024  0.5044  0.8071 -0.4832
   44DOPE   H4R 5587   5.200   1.746   4.084  2.4864 -2.0633 -1.4555
   44DOPE   H4S 5588   5.109   1.603   4.055 -1.2749  1.1103  0.5094
   44DOPE   C25 5589   4.979   1.774   4.068  0.2428 -0.3437 -0.1562
   44DOPE   H5R 5590   4.976   1.760   4.178  1.6637  0.6244  0.0405
   44DOPE   H5S 5591   4.888   1.725   4.028  0.5370 -0.4833 -0.6660
   44DOPE   C26 5592   4.983   1.929   4.051 -0.1083  0.2135 -0.8520
   44DOPE   H6R 5593   5.089   1.963   4.046  0.0661 -0.1100  0.2989
   44DOPE   H6S 5594   4.939   1.972   4.144 -1.5307  2.0699 -2.3099
   44DOPE   C27 5595   4.906   1.979   3.927  0.3974  0.8286 -0.1362
   44DOPE   H7R 5596   4.810   1.923   3.923  1.5336 -1.2418  0.2918
   44DOPE   H7S 5597   4.976   1.963   3.842  0.1951  1.5352 -0.4375
   44DOPE   C28 5598   4.871   2.130   3.943  0.4059  0.2771  0.2825
   44DOPE   H8R 5599   4.969   2.180   3.958  0.9934 -0.2943 -1.4830
   44DOPE   H8S 5600   4.814   2.132   4.039 -1.7854  0.6162 -0.9755
   44DOPE   C29 5601   4.783   2.188   3.830  0.0224 -0.3015  0.2431
   44DOPE   H9R 5602   4.811   2.163   3.726 -0.8020 -2.7802  0.5509
   44DOPE  C210 5603   4.658   2.232   3.843 -0.3321  0.5566  0.5374
   44DOPE  H10R 5604   4.595   2.245   3.753 -0.5386 -1.8107  0.2776
   44DOPE  C211 5605   4.586   2.248   3.972 -0.9732  0.0631  0.3920
   44DOPE  H11R 5606   4.529   2.342   3.961 -0.5064  0.2328 -0.6591
   44DOPE  H11S 5607   4.650   2.257   4.063  0.3489 -0.5239 -0.4453
   44DOPE  C212 5608   4.475   2.141   4.008 -0.3765 -0.2237  0.4016
   44DOPE  H12R 5609   4.520   2.041   4.020  0.1579  0.1258  1.3932
   44DOPE  H12S 5610   4.416   2.130   3.915  1.0081  1.4150 -0.7360
   44DOPE  C213 5611   4.411   2.183   4.135 -0.9634  0.0160  0.4791
   44DOPE  H13R 5612   4.494   2.214   4.201  0.8154  0.3125 -1.7816
   44DOPE  H13S 5613   4.360   2.099   4.188 -0.4944 -0.3636  0.3303
   44DOPE  C214 5614   4.305   2.295   4.126  0.3726  0.0384  1.3018
   44DOPE  H14R 5615   4.314   2.350   4.030  0.1948  2.4483  2.6010
   44DOPE  H14S 5616   4.316   2.377   4.200 -1.1054  0.0998  1.4849
   44DOPE  C215 5617   4.160   2.240   4.147 -0.3593  0.7366 -0.4274
   44DOPE  H15R 5618   4.156   2.190   4.246  0.6491  2.3382  0.4666
   44DOPE  H15S 5619   4.143   2.171   4.062 -0.1549 -1.8911  1.5487
   44DOPE  C216 5620   4.063   2.357   4.148  0.0559  0.6315 -0.0107
   44DOPE  H16R 5621   4.081   2.420   4.058  0.4812  1.4230  0.6054
   44DOPE  H16S 5622   4.080   2.410   4.244  0.6939 -2.6920  1.8561
   44DOPE  C217 5623   3.915   2.319   4.150 -0.4079  0.5283 -0.5643
   44DOPE  H17R 5624   3.899   2.265   4.054  0.1783  2.9300 -2.1069
   44DOPE  H17S 5625   3.843   2.403   4.138 -2.3375 -0.8725  0.6028
   44DOPE  C218 5626   3.859   2.237   4.260  0.0527  0.5520 -0.1022
   44DOPE  H18R 5627   3.752   2.208   4.255  0.4006 -0.8570  0.3249
   44DOPE  H18S 5628   3.876   2.293   4.355 -0.1348  1.7426 -0.7536
   44DOPE  H18T 5629   3.917   2.143   4.275 -2.8612 -1.7096 -1.8839
   44DOPE   C33 5630   4.272   1.949   3.629 -0.1044 -0.2656 -0.3712
   44DOPE   H3X 5631   4.337   1.969   3.542  2.7461  1.5009  1.9463
   44DOPE   H3Y 5632   4.312   2.018   3.707  0.0371  0.4111 -1.0306
   44DOPE   C34 5633   4.128   1.983   3.615 -0.1865 -0.5661  0.0125
   44DOPE   H4X 5634   4.122   2.068   3.544  0.4689 -1.4342 -1.1028
   44DOPE   H4Y 5635   4.074   1.893   3.578  0.1876 -1.1065  0.7650
   44DOPE   C35 5636   4.052   2.025   3.746  0.0637 -0.1871  0.6119
   44DOPE   H5X 5637   4.110   1.975   3.827  1.0788  2.1107  1.3708
   44DOPE   H5Y 5638   3.955   1.971   3.749 -0.8741  1.4533  0.8953
   44DOPE   C36 5639   4.049   2.172   3.767 -0.1849 -0.4223 -0.5556
   44DOPE   H6X 5640   4.143   2.217   3.730 -0.0186 -1.2870 -1.2311
   44DOPE   H6Y 5641   4.041   2.173   3.878  0.9450 -1.1531 -0.4467
   44DOPE   C37 5642   3.933   2.236   3.693 -0.1784  0.0733 -0.5213
   44DOPE   H7X 5643   3.944   2.218   3.584  0.9426  0.8842 -0.5672
   44DOPE   H7Y 5644   3.852   2.174   3.735  1.7343 -0.4227  2.7511
   44DOPE   C38 5645   3.929   2.377   3.732  0.4575  0.2265 -0.4059
   44DOPE   H8X 5646   4.024   2.427   3.701 -0.4153  2.8519  0.8847
   44DOPE   H8Y 5647   3.916   2.396   3.840 -0.8186 -0.4581 -0.4201
   44DOPE   C39 5648   3.822   2.439   3.648 -0.7238  0.5647 -0.5399
   44DOPE   H9X 5649   3.839   2.435   3.539  3.0224  2.0482 -0.1708
   44DOPE  C310 5650   3.698   2.479   3.684  0.4579 -0.3372  0.2876
   44DOPE  H10X 5651   3.627   2.516   3.608 -0.5491  0.5247  1.6055
   44DOPE  C311 5652   3.641   2.490   3.823  0.4740  0.7025  0.0208
   44DOPE  H11X 5653   3.558   2.417   3.834  2.2913 -1.6220 -1.0976
   44DOPE  H11Y 5654   3.718   2.446   3.890  1.6383  3.3919  0.5907
   44DOPE  C312 5655   3.593   2.633   3.854 -0.6501  0.7225  0.7369
   44DOPE  H12X 5656   3.538   2.676   3.768  0.5824 -3.1347 -2.2896
   44DOPE  H12Y 5657   3.687   2.690   3.870 -0.7734  1.9242 -2.1661
   44DOPE  C313 5658   3.507   2.627   3.990 -0.2032 -0.3392  0.6847
   44DOPE  H13X 5659   3.455   2.725   3.990  1.3218  0.4910  1.2330
   44DOPE  H13Y 5660   3.435   2.544   3.973 -2.3085  1.9032 -2.5000
   44DOPE  C314 5661   3.593   2.612   4.117  0.6841  0.0805 -0.6553
   44DOPE  H14X 5662   3.672   2.691   4.123 -0.0482  0.8085 -0.3967
   44DOPE  H14Y 5663   3.637   2.510   4.118  0.1465 -0.1555 -0.6667
   44DOPE  C315 5664   3.510   2.626   4.246 -0.1158 -0.6712  0.2832
   44DOPE  H15X 5665   3.415   2.570   4.240 -0.4709 -0.6280  3.6496
   44DOPE  H15Y 5666   3.490   2.734   4.262  1.4581 -0.3638  0.4068
   44DOPE  C316 5667   3.592   2.607   4.378  0.0181  0.2133 -0.0472
   44DOPE  H16X 5668   3.553   2.671   4.460  0.7132  1.3200 -0.5514
   44DOPE  H16Y 5669   3.697   2.640   4.358  0.6984 -2.0331 -0.4867
   44DOPE  C317 5670   3.595   2.458   4.411  0.1721 -0.5299  0.2834
   44DOPE  H17X 5671   3.645   2.407   4.326  1.6084  0.6127  0.4075
   44DOPE  H17Y 5672   3.655   2.437   4.502 -0.9975 -0.8263  1.0044
   44DOPE  C318 5673   3.460   2.388   4.431 -0.6279  0.6710  0.2082
   44DOPE  H18X 5674   3.485   2.285   4.398 -0.6196  0.9558 -0.6892
   44DOPE  H18Y 5675   3.410   2.385   4.530  0.5650 -2.7704  0.8639
   44DOPE  H18Z 5676   3.386   2.423   4.356  1.6147  0.8288 -2.0672
   45DOPE     N 5677   4.244   2.210   2.945  0.1573  0.0464 -0.3261
   45DOPE   HN1 5678   4.290   2.120   2.973  0.8094 -0.6304 -3.2498
   45DOPE   HN2 5679   4.143   2.189   2.949 -0.1428  1.3376 -0.8394
   45DOPE   HN3 5680   4.281   2.222   2.848  1.2933  0.6909  0.1577
   45DOPE   C12 5681   4.275   2.328   3.037 -0.2535 -0.1007  0.9744
   45DOPE  H12A 5682   4.199   2.329   3.118 -0.4098  0.6598  0.8281
   45DOPE  H12B 5683   4.254   2.418   2.975 -3.0341 -0.7759  0.8118
   45DOPE   C11 5684   4.416   2.327   3.098 -0.3880  0.3950 -0.2416
   45DOPE  H11A 5685   4.430   2.408   3.173  0.8355 -0.6160  0.6545
   45DOPE  H11B 5686   4.474   2.355   3.008  0.6450  2.9202  1.0894
   45DOPE     P 5687   4.392   2.139   3.276 -0.1181 -0.5510  0.4896
   45DOPE   O13 5688   4.511   2.094   3.347  0.1090  0.3192 -0.4694
   45DOPE   O14 5689   4.276   2.053   3.233  0.0534  0.2672  0.0602
   45DOPE   O11 5690   4.327   2.256   3.349 -0.4087 -0.5151  0.0063
   45DOPE   O12 5691   4.459   2.205   3.149  0.1135  1.3253 -0.1563
   45DOPE    C1 5692   4.379   2.322   3.468 -0.1341 -0.6335  0.2554
   45DOPE    HA 5693   4.456   2.396   3.439 -1.5913  1.2697  1.0225
   45DOPE    HB 5694   4.414   2.238   3.532 -0.4635 -3.4108 -2.9311
   45DOPE    C2 5695   4.273   2.404   3.551  0.2567 -0.5627 -0.5279
   45DOPE    HS 5696   4.187   2.336   3.572  1.2057 -1.7914 -0.4999
   45DOPE   O21 5697   4.217   2.518   3.480 -0.2435 -0.1469 -0.0287
   45DOPE   C21 5698   4.118   2.494   3.404 -0.2730  0.2927 -0.4669
   45DOPE   O22 5699   4.061   2.388   3.397  0.4706  0.0523  0.7407
   45DOPE   C22 5700   4.074   2.625   3.327 -0.3511  0.0799 -0.5537
   45DOPE   H2R 5701   4.067   2.585   3.224  0.1191  1.4484 -1.1469
   45DOPE   H2S 5702   4.168   2.685   3.328 -1.7425  2.4982  2.0016
   45DOPE    C3 5703   4.335   2.455   3.686 -0.0683  0.0245 -0.1222
   45DOPE    HX 5704   4.432   2.507   3.671  0.6886 -0.7537  1.8624
   45DOPE    HY 5705   4.364   2.363   3.741  0.9580  0.5407  0.2324
   45DOPE   O31 5706   4.236   2.541   3.754  0.0731  0.2938 -0.2784
   45DOPE   C31 5707   4.269   2.669   3.753  0.2986 -0.2636  0.3925
   45DOPE   O32 5708   4.355   2.715   3.679  0.4709 -0.3857 -0.3839
   45DOPE   C32 5709   4.181   2.750   3.843  0.2077  0.1223 -0.5347
   45DOPE   H2X 5710   4.184   2.860   3.827  0.3752  0.5293  1.8389
   45DOPE   H2Y 5711   4.077   2.724   3.816  1.0431 -0.5182 -3.3873
   45DOPE   C23 5712   3.934   2.684   3.356  0.0283 -0.3027  0.3929
   45DOPE   H3R 5713   3.852   2.609   3.346  0.7833 -0.8683 -2.5792
   45DOPE   H3S 5714   3.919   2.766   3.283  1.8760 -1.3715 -1.2873
   45DOPE   C24 5715   3.939   2.750   3.497 -0.8222 -0.5073 -0.8524
   45DOPE   H4R 5716   4.037   2.800   3.512 -1.6442  0.9900 -0.1385
   45DOPE   H4S 5717   3.925   2.666   3.568 -1.2611 -0.3072 -0.6952
   45DOPE   C25 5718   3.824   2.851   3.528  0.1810  0.1089 -0.7689
   45DOPE   H5R 5719   3.718   2.816   3.525 -0.2676  1.3348 -0.1502
   45DOPE   H5S 5720   3.818   2.937   3.458 -0.8469  2.3126  1.8151
   45DOPE   C26 5721   3.836   2.909   3.673 -0.0647  0.4490  0.4768
   45DOPE   H6R 5722   3.922   2.979   3.680  0.9098 -0.5594 -0.8947
   45DOPE   H6S 5723   3.857   2.829   3.746  3.6140  0.1912 -0.6681
   45DOPE   C27 5724   3.717   3.000   3.708  0.2063  0.2007  0.4476
   45DOPE   H7R 5725   3.627   2.936   3.721 -2.3092  3.3130 -0.4821
   45DOPE   H7S 5726   3.694   3.072   3.627 -1.0881 -1.7214 -0.9707
   45DOPE   C28 5727   3.737   3.075   3.843  0.3306 -0.0603  0.2265
   45DOPE   H8R 5728   3.658   3.153   3.845  0.2436 -0.1591  1.6826
   45DOPE   H8S 5729   3.827   3.137   3.829  1.5956 -1.9901 -0.6747
   45DOPE   C29 5730   3.721   2.993   3.976  0.6431 -0.4180 -0.7937
   45DOPE   H9R 5731   3.786   2.905   3.974  0.0528 -0.8508 -1.4262
   45DOPE  C210 5732   3.635   3.018   4.082 -0.6296 -0.4088 -0.2458
   45DOPE  H10R 5733   3.648   2.957   4.173  2.1248  2.3508  1.4190
   45DOPE  C211 5734   3.535   3.129   4.094  0.3677 -0.2716 -0.4800
   45DOPE  H11R 5735   3.475   3.091   4.179 -0.8056 -1.7686 -1.9058
   45DOPE  H11S 5736   3.466   3.142   4.008  0.2737 -0.9540 -0.5198
   45DOPE  C212 5737   3.584   3.268   4.152  0.4393 -0.3358  0.5061
   45DOPE  H12R 5738   3.502   3.338   4.125  1.0139 -0.5202 -1.9630
   45DOPE  H12S 5739   3.677   3.298   4.098  1.0060 -1.6355  0.7201
   45DOPE  C213 5740   3.599   3.277   4.306 -0.0469 -0.2369 -0.0481
   45DOPE  H13R 5741   3.685   3.211   4.331  1.1287  0.5266 -1.8396
   45DOPE  H13S 5742   3.505   3.240   4.353 -0.0993 -1.1430 -0.8474
   45DOPE  C214 5743   3.647   3.414   4.350 -0.3290 -0.2089 -0.3062
   45DOPE  H14R 5744   3.586   3.480   4.284 -0.1180  0.9605  0.6549
   45DOPE  H14S 5745   3.755   3.434   4.337 -0.4502  2.3498  1.9041
   45DOPE  C215 5746   3.616   3.467   4.486 -0.5174  0.0755  1.1972
   45DOPE  H15R 5747   3.513   3.428   4.506 -1.8447  1.8795 -1.4691
   45DOPE  H15S 5748   3.602   3.576   4.473 -1.9273 -0.4104 -3.0711
   45DOPE  C216 5749   3.718   3.424   4.589 -0.0348 -0.7651  0.2028
   45DOPE  H16R 5750   3.819   3.465   4.568 -0.4664 -0.4019 -1.2783
   45DOPE  H16S 5751   3.728   3.313   4.590 -2.0374 -1.0158 -0.6327
   45DOPE  C217 5752   3.661   3.484   4.719 -0.6278  0.1314  0.0860
   45DOPE  H17R 5753   3.560   3.442   4.738  1.1518 -4.1263  1.3839
   45DOPE  H17S 5754   3.650   3.595   4.710 -0.6733  0.1427  0.2729
   45DOPE  C218 5755   3.744   3.462   4.843  0.1161  0.6674  0.5065
   45DOPE  H18R 5756   3.851   3.488   4.830  0.1287  0.2792 -0.2493
   45DOPE  H18S 5757   3.745   3.355   4.874  0.9848  0.4608 -0.2135
   45DOPE  H18T 5758   3.715   3.518   4.934  2.2767  0.2908  1.4819
   45DOPE   C33 5759   4.214   2.729   3.999  0.0777  0.1364 -0.6732
   45DOPE   H3X 5760   4.293   2.798   4.037  2.5041 -2.0146 -1.5004
   45DOPE   H3Y 5761   4.254   2.628   4.023 -0.3429  0.1418  0.0565
   45DOPE   C34 5762   4.081   2.739   4.073 -0.0435  0.1822  0.3302
   45DOPE   H4X 5763   4.034   2.827   4.024  0.2380 -1.6363 -3.5962
   45DOPE   H4Y 5764   4.016   2.654   4.042  1.6444 -1.3551  0.8988
   45DOPE   C35 5765   4.094   2.741   4.222  0.0372  1.1365  0.2121
   45DOPE   H5X 5766   4.170   2.815   4.255  0.9495  0.7408 -0.9147
   45DOPE   H5Y 5767   4.134   2.641   4.252 -2.2934 -0.5556 -1.9029
   45DOPE   C36 5768   3.964   2.759   4.303  0.2538 -0.0519  0.0971
   45DOPE   H6X 5769   3.900   2.677   4.266  0.0162 -0.3800  1.2197
   45DOPE   H6Y 5770   3.924   2.859   4.276  2.2119  0.6759 -0.3240
   45DOPE   C37 5771   3.973   2.747   4.455 -0.3554  0.1287  0.4715
   45DOPE   H7X 5772   4.057   2.799   4.506 -0.1745  1.4406 -1.0944
   45DOPE   H7Y 5773   3.885   2.796   4.501  0.1313  0.3822  1.1358
   45DOPE   C38 5774   3.976   2.597   4.498  0.2769  0.0350  0.6443
   45DOPE   H8X 5775   4.056   2.543   4.443  1.6336  3.0328 -0.5638
   45DOPE   H8Y 5776   3.879   2.545   4.480  0.2141 -1.2586  4.0435
   45DOPE   C39 5777   4.017   2.576   4.642  0.6086  0.2580 -0.5302
   45DOPE   H9X 5778   3.943   2.605   4.718  1.6240  0.6584  0.3315
   45DOPE  C310 5779   4.123   2.514   4.686 -0.1225  0.8332 -0.1955
   45DOPE  H10X 5780   4.144   2.520   4.794 -1.2240  1.6920 -0.0103
   45DOPE  C311 5781   4.239   2.459   4.604  0.3272 -0.1473 -0.2995
   45DOPE  H11X 5782   4.263   2.532   4.524 -1.3528  0.0934 -0.6210
   45DOPE  H11Y 5783   4.329   2.452   4.669  0.6169 -2.7602 -0.8848
   45DOPE  C312 5784   4.209   2.320   4.543 -0.3482 -0.0331 -0.4433
   45DOPE  H12X 5785   4.299   2.299   4.481 -0.7611 -1.5005 -0.5650
   45DOPE  H12Y 5786   4.127   2.305   4.470  0.6507  1.2672 -1.8983
   45DOPE  C313 5787   4.203   2.209   4.654 -0.1782  0.7469 -0.2533
   45DOPE  H13X 5788   4.279   2.238   4.730  0.0379  0.8967 -0.5280
   45DOPE  H13Y 5789   4.106   2.201   4.708  0.9678 -2.3377  1.6335
   45DOPE  C314 5790   4.238   2.067   4.593 -0.9884  0.1649 -0.0160
   45DOPE  H14X 5791   4.175   2.025   4.512  0.6572 -0.4685 -1.0424
   45DOPE  H14Y 5792   4.236   1.997   4.679  1.1676  0.3279  0.2287
   45DOPE  C315 5793   4.381   2.051   4.537 -0.3537 -1.0875  0.0664
   45DOPE  H15X 5794   4.454   2.104   4.602 -1.0553 -0.7054  0.5527
   45DOPE  H15Y 5795   4.390   2.114   4.446  0.2093 -0.0853  0.7831
   45DOPE  C316 5796   4.427   1.907   4.508 -0.3287  0.3824  0.3368
   45DOPE  H16X 5797   4.368   1.840   4.441  0.3256  0.4021 -0.2667
   45DOPE  H16Y 5798   4.406   1.859   4.606  0.6868  1.7163  1.2412
   45DOPE  C317 5799   4.577   1.901   4.476  0.1213 -0.3566  0.3111
   45DOPE  H17X 5800   4.591   1.803   4.425 -2.2487 -0.6399  0.1008
   45DOPE  H17Y 5801   4.591   1.982   4.401 -2.3294 -0.1954 -0.0467
   45DOPE  C318 5802   4.677   1.904   4.595  0.1012 -0.5831 -0.7049
   45DOPE  H18X 5803   4.778   1.910   4.550 -1.0880 -2.0536 -3.8397
   45DOPE  H18Y 5804   4.656   1.988   4.665  2.3212  0.4343 -1.1679
   45DOPE  H18Z 5805   4.679   1.812   4.658 -3.2548  0.1841  0.7348
   46DOPE     N 5806   4.069   7.258   2.588  0.2143 -0.1634 -0.1087
   46DOPE   HN1 5807   4.171   7.252   2.573 -0.1815 -1.1099 -2.9212
   46DOPE   HN2 5808   4.014   7.208   2.516  1.2739 -0.7480 -0.5204
   46DOPE   HN3 5809   4.050   7.359   2.568 -1.0037  0.1790  2.3198
   46DOPE   C12 5810   4.024   7.234   2.727  0.3731 -0.5458  0.0470
   46DOPE  H12A 5811   4.114   7.249   2.791  0.1260 -2.3400  0.8794
   46DOPE  H12B 5812   3.975   7.134   2.730 -1.7284  0.4320  0.0629
   46DOPE   C11 5813   3.917   7.331   2.772  0.2837  0.1157  0.4258
   46DOPE  H11A 5814   3.909   7.299   2.878 -3.3240 -0.4242  0.1008
   46DOPE  H11B 5815   3.823   7.302   2.720  0.1622  1.2528 -0.0003
   46DOPE     P 5816   3.846   7.578   2.753 -0.0116 -0.1906 -0.1870
   46DOPE   O13 5817   3.737   7.546   2.657  0.6198 -0.6822 -0.0315
   46DOPE   O14 5818   3.918   7.704   2.739 -0.0047 -0.1896  0.2618
   46DOPE   O11 5819   3.778   7.568   2.897  0.5632 -0.3491  0.7701
   46DOPE   O12 5820   3.963   7.465   2.761  0.0761  0.0433 -0.2197
   46DOPE    C1 5821   3.650   7.633   2.920  0.3069  0.5861 -0.4597
   46DOPE    HA 5822   3.589   7.545   2.950  1.6144  0.1107  0.9332
   46DOPE    HB 5823   3.598   7.663   2.827  0.5984 -1.4092 -1.3188
   46DOPE    C2 5824   3.641   7.751   3.021  0.1877  0.2837  1.1298
   46DOPE    HS 5825   3.537   7.790   3.019 -0.2931 -0.9541  0.8599
   46DOPE   O21 5826   3.743   7.849   2.988  0.1374  0.4626 -0.2643
   46DOPE   C21 5827   3.729   7.937   2.902  0.9675 -0.2142  0.4381
   46DOPE   O22 5828   3.641   7.943   2.816 -0.1745  0.2615  0.3548
   46DOPE   C22 5829   3.824   8.049   2.928 -0.0952 -0.2097  0.9796
   46DOPE   H2R 5830   3.891   8.071   2.842  1.1833 -0.6271  1.8478
   46DOPE   H2S 5831   3.901   8.031   3.006  3.3455  2.2566 -1.5603
   46DOPE    C3 5832   3.663   7.698   3.167  0.5921  0.3673 -0.0581
   46DOPE    HX 5833   3.767   7.660   3.178  0.6226  0.2765 -0.6245
   46DOPE    HY 5834   3.602   7.605   3.171 -1.5173  1.6001 -1.6632
   46DOPE   O31 5835   3.619   7.787   3.270  0.2882  0.4092 -0.2876
   46DOPE   C31 5836   3.716   7.877   3.313 -0.9331 -1.0520  0.2179
   46DOPE   O32 5837   3.830   7.869   3.285 -0.4400 -0.1451 -0.1836
   46DOPE   C32 5838   3.646   7.974   3.410  0.2645 -0.0751  0.6094
   46DOPE   H2X 5839   3.568   8.030   3.354 -0.2489 -1.2325  0.1365
   46DOPE   H2Y 5840   3.599   7.911   3.489 -0.4119 -0.8359 -0.3753
   46DOPE   C23 5841   3.756   8.182   2.971  0.1032  0.2372 -0.6348
   46DOPE   H3R 5842   3.705   8.226   2.883 -0.2170 -1.1102 -1.1434
   46DOPE   H3S 5843   3.833   8.250   3.014 -1.6714  0.5823  2.2828
   46DOPE   C24 5844   3.672   8.172   3.095  0.3114  0.9423  0.4764
   46DOPE   H4R 5845   3.721   8.148   3.192 -2.4162 -0.0147  1.7306
   46DOPE   H4S 5846   3.605   8.084   3.085  0.7882  0.6433 -0.1346
   46DOPE   C25 5847   3.583   8.294   3.112 -0.2361 -0.1423  0.1156
   46DOPE   H5R 5848   3.514   8.299   3.026  0.1345  0.0496 -0.1722
   46DOPE   H5S 5849   3.644   8.386   3.105 -1.0579  0.2920 -3.8382
   46DOPE   C26 5850   3.501   8.299   3.235  0.3207  0.4624 -0.6522
   46DOPE   H6R 5851   3.562   8.302   3.328  1.0200 -0.4241 -1.0619
   46DOPE   H6S 5852   3.439   8.208   3.245 -0.7728  1.2454 -0.2185
   46DOPE   C27 5853   3.413   8.428   3.239 -0.1118 -0.0796 -0.6217
   46DOPE   H7R 5854   3.345   8.440   3.152 -0.4202  1.0417 -0.2529
   46DOPE   H7S 5855   3.492   8.505   3.222  0.5849 -0.4097  0.9340
   46DOPE   C28 5856   3.338   8.442   3.370 -0.4075 -0.5295 -0.2627
   46DOPE   H8R 5857   3.340   8.347   3.428  0.7654 -1.4464 -1.7325
   46DOPE   H8S 5858   3.234   8.462   3.336 -1.9056 -2.3401  2.8029
   46DOPE   C29 5859   3.395   8.558   3.463  0.5909  0.2718  1.3990
   46DOPE   H9R 5860   3.427   8.646   3.405  0.4835  0.1568  1.1645
   46DOPE  C210 5861   3.410   8.560   3.593  0.0323  0.2733 -0.5971
   46DOPE  H10R 5862   3.452   8.652   3.638  1.9807 -0.2512 -1.2794
   46DOPE  C211 5863   3.373   8.451   3.689 -0.3467 -0.5332 -0.5742
   46DOPE  H11R 5864   3.310   8.379   3.632  1.3892 -1.4923 -1.3546
   46DOPE  H11S 5865   3.325   8.483   3.784  1.4489  2.2678 -0.4923
   46DOPE  C212 5866   3.493   8.373   3.738 -0.2998  0.2742  0.7752
   46DOPE  H12R 5867   3.555   8.450   3.788  0.8711  0.5786 -1.0664
   46DOPE  H12S 5868   3.541   8.325   3.651 -0.9318 -0.2459  0.7023
   46DOPE  C213 5869   3.453   8.261   3.840  0.7592 -0.1058 -0.1433
   46DOPE  H13R 5870   3.383   8.286   3.923 -1.6002 -0.4541 -1.9110
   46DOPE  H13S 5871   3.542   8.216   3.889 -1.9678 -2.8713  2.7828
   46DOPE  C214 5872   3.395   8.144   3.758  0.1862 -0.7169  0.7676
   46DOPE  H14R 5873   3.471   8.119   3.681 -1.9158  1.8660 -2.4214
   46DOPE  H14S 5874   3.303   8.187   3.713 -0.5131 -1.6482  1.2681
   46DOPE  C215 5875   3.350   8.022   3.834 -0.8988  0.2517  0.0433
   46DOPE  H15R 5876   3.267   7.970   3.782 -0.8546  0.5246 -0.3053
   46DOPE  H15S 5877   3.308   8.051   3.933 -3.7376 -1.6091 -0.4975
   46DOPE  C216 5878   3.477   7.939   3.859 -0.4021 -0.1312 -0.1134
   46DOPE  H16R 5879   3.547   8.005   3.915  0.6836 -0.3924 -1.1207
   46DOPE  H16S 5880   3.525   7.919   3.761  4.3744  0.8709  1.7317
   46DOPE  C217 5881   3.447   7.808   3.921  0.6323 -0.4830 -0.5000
   46DOPE  H17R 5882   3.371   7.759   3.856  0.9219 -2.4306  0.5580
   46DOPE  H17S 5883   3.397   7.823   4.019  1.0850 -1.7378 -0.0489
   46DOPE  C218 5884   3.567   7.722   3.929 -1.1443 -0.2068  0.6514
   46DOPE  H18R 5885   3.654   7.783   3.961 -1.0877  1.1486 -1.8440
   46DOPE  H18S 5886   3.613   7.703   3.829  1.0634  2.8728  0.9419
   46DOPE  H18T 5887   3.565   7.626   3.985 -0.1860  0.9230  2.7377
   46DOPE   C33 5888   3.745   8.079   3.468  0.2299  0.3853  0.5993
   46DOPE   H3X 5889   3.683   8.166   3.498 -1.4851 -1.4816  2.8419
   46DOPE   H3Y 5890   3.821   8.112   3.393  0.1884  1.4597  1.0073
   46DOPE   C34 5891   3.818   8.024   3.592  0.6781 -0.4944  0.0272
   46DOPE   H4X 5892   3.731   7.997   3.656 -1.4332  0.8910 -2.0860
   46DOPE   H4Y 5893   3.873   7.930   3.570 -0.2630 -1.1395  0.3990
   46DOPE   C35 5894   3.906   8.124   3.643 -0.8585 -0.0675 -0.2323
   46DOPE   H5X 5895   3.858   8.221   3.617 -4.2031 -1.7424 -0.8493
   46DOPE   H5Y 5896   4.010   8.112   3.606  0.1774 -1.1846  2.7615
   46DOPE   C36 5897   3.906   8.136   3.800 -0.5801 -0.3143 -0.1190
   46DOPE   H6X 5898   3.806   8.125   3.846 -0.4976 -2.1407 -0.3014
   46DOPE   H6Y 5899   3.951   8.235   3.824 -1.2684 -0.7803  3.7670
   46DOPE   C37 5900   3.994   8.038   3.880  0.1809  0.3191 -0.6906
   46DOPE   H7X 5901   3.949   7.937   3.874  2.2209 -0.5293 -2.8158
   46DOPE   H7Y 5902   4.091   8.022   3.829  1.0286 -2.4050  1.5348
   46DOPE   C38 5903   4.005   8.078   4.028 -0.3576 -0.2513  0.3179
   46DOPE   H8X 5904   3.909   8.076   4.084 -0.9047  1.5152 -0.4839
   46DOPE   H8Y 5905   4.046   8.181   4.025  0.3507 -0.5510 -2.0708
   46DOPE   C39 5906   4.102   7.986   4.108 -0.0833  0.1358  0.0712
   46DOPE   H9X 5907   4.196   7.974   4.053  0.0685  0.9318  0.1536
   46DOPE  C310 5908   4.097   7.927   4.226  0.0034  0.7911  0.3254
   46DOPE  H10X 5909   4.187   7.870   4.256 -0.6922  0.8137  2.6386
   46DOPE  C311 5910   3.974   7.934   4.320 -0.0276 -0.2609 -0.5130
   46DOPE  H11X 5911   3.904   8.014   4.289 -1.0175 -0.0639  1.9525
   46DOPE  H11Y 5912   3.914   7.840   4.316 -0.0375 -0.2900  0.1831
   46DOPE  C312 5913   4.030   7.956   4.455  0.5602 -0.4863 -0.6588
   46DOPE  H12X 5914   4.081   8.055   4.464 -0.1899 -0.0960 -0.6761
   46DOPE  H12Y 5915   4.107   7.879   4.478  0.8135  0.1313  0.6333
   46DOPE  C313 5916   3.927   7.936   4.563 -0.5484 -0.4522 -0.6588
   46DOPE  H13X 5917   3.846   8.009   4.543  0.0198  1.1246  2.3004
   46DOPE  H13Y 5918   3.887   7.833   4.556  2.5206 -1.8321  0.6181
   46DOPE  C314 5919   3.985   7.947   4.707  0.6730 -0.3516  0.4590
   46DOPE  H14X 5920   4.053   8.034   4.703  1.3511 -0.9151 -1.5421
   46DOPE  H14Y 5921   4.039   7.853   4.732 -1.8976 -1.1177  3.9698
   46DOPE  C315 5922   3.865   7.974   4.805  0.0952  0.1985 -0.4604
   46DOPE  H15X 5923   3.795   8.055   4.776  1.0705  1.8338  1.4689
   46DOPE  H15Y 5924   3.909   7.997   4.904 -1.6155  1.7120  0.0135
   46DOPE  C316 5925   3.788   7.847   4.825 -0.2876  0.1426  0.5550
   46DOPE  H16X 5926   3.858   7.763   4.844 -1.1823 -0.6924  0.2400
   46DOPE  H16Y 5927   3.744   7.823   4.726  1.1319 -1.0481  0.1863
   46DOPE  C317 5928   3.678   7.874   4.931  0.9538  0.1249  0.3604
   46DOPE  H17X 5929   3.734   7.885   5.027  0.4622  3.2786  0.4106
   46DOPE  H17Y 5930   3.620   7.968   4.922 -1.9841 -1.5847  0.3058
   46DOPE  C318 5931   3.576   7.751   4.923 -0.2462  0.5906 -0.7306
   46DOPE  H18X 5932   3.628   7.666   4.972 -2.3498  0.2647  1.0855
   46DOPE  H18Y 5933   3.479   7.773   4.972 -1.4789 -3.0793 -1.2467
   46DOPE  H18Z 5934   3.555   7.717   4.820  1.1474  0.4286 -0.9813
   47DOPE     N 5935   0.865   4.447   2.742 -0.4024 -0.2315  0.2352
   47DOPE   HN1 5936   0.783   4.484   2.794  0.1346  1.9168 -0.3302
   47DOPE   HN2 5937   0.881   4.482   2.645  0.1023 -0.0189  0.3922
   47DOPE   HN3 5938   0.842   4.347   2.727 -0.6770  0.0170 -1.1424
   47DOPE   C12 5939   0.993   4.471   2.830  0.3161  1.0141  0.3285
   47DOPE  H12A 5940   1.015   4.578   2.815  0.8729  0.8878  0.2151
   47DOPE  H12B 5941   1.072   4.406   2.787  0.7195  0.6303  1.6169
   47DOPE   C11 5942   0.972   4.440   2.972 -0.0548  0.0718  0.4168
   47DOPE  H11A 5943   1.056   4.484   3.029  0.6037 -0.8565  0.1980
   47DOPE  H11B 5944   0.998   4.334   2.996 -0.5320 -0.3778 -0.9405
   47DOPE     P 5945   0.803   4.602   3.081  0.0145  0.2139 -0.0063
   47DOPE   O13 5946   0.661   4.595   3.127  0.5640  0.0942 -0.1819
   47DOPE   O14 5947   0.826   4.703   2.980  0.8491  0.0457  0.3496
   47DOPE   O11 5948   0.902   4.630   3.201  0.2210 -0.0427 -0.5139
   47DOPE   O12 5949   0.842   4.462   3.021  0.5291 -0.5638 -0.4645
   47DOPE    C1 5950   0.897   4.563   3.326  0.4677 -0.3682 -0.6197
   47DOPE    HA 5951   0.989   4.503   3.319  1.8520  1.8375 -3.7277
   47DOPE    HB 5952   0.833   4.472   3.329  0.0728 -0.2137  4.1817
   47DOPE    C2 5953   0.883   4.665   3.439 -0.1707 -0.3024 -0.7483
   47DOPE    HS 5954   0.922   4.610   3.528  0.3126  0.5543 -0.4198
   47DOPE   O21 5955   0.750   4.707   3.447 -0.7457  0.4091  0.3315
   47DOPE   C21 5956   0.669   4.621   3.504 -0.7062 -0.1524 -0.4600
   47DOPE   O22 5957   0.693   4.506   3.527  0.5681 -0.2332  0.1869
   47DOPE   C22 5958   0.540   4.694   3.537  0.4008  0.4264 -0.3055
   47DOPE   H2R 5959   0.454   4.637   3.495  0.2626  0.5955 -0.2532
   47DOPE   H2S 5960   0.544   4.794   3.488 -0.3297  0.1736 -0.9075
   47DOPE    C3 5961   0.976   4.792   3.437 -1.3764  0.1356 -0.0754
   47DOPE    HX 5962   0.951   4.860   3.352 -0.5984  0.1922 -0.2718
   47DOPE    HY 5963   1.079   4.751   3.428 -1.8627 -1.0142 -0.5517
   47DOPE   O31 5964   0.974   4.857   3.558 -0.2929 -1.0575 -0.0421
   47DOPE   C31 5965   0.878   4.943   3.587 -0.5588 -0.1121 -1.0545
   47DOPE   O32 5966   0.787   4.983   3.519 -0.4285  0.2084  0.0949
   47DOPE   C32 5967   0.905   4.987   3.733 -0.7306  0.6450 -0.2365
   47DOPE   H2X 5968   0.879   4.900   3.797 -2.8555  0.9046 -0.6655
   47DOPE   H2Y 5969   1.014   5.007   3.740 -0.3440 -1.4091  0.1309
   47DOPE   C23 5970   0.510   4.713   3.685 -0.6001  0.7456 -0.2222
   47DOPE   H3R 5971   0.427   4.786   3.689  0.5663  2.1029 -0.1656
   47DOPE   H3S 5972   0.602   4.751   3.735 -0.7970 -0.7280  1.3355
   47DOPE   C24 5973   0.482   4.580   3.761 -0.0764  0.4348 -0.3173
   47DOPE   H4R 5974   0.566   4.508   3.760  0.4956  1.0861 -0.7803
   47DOPE   H4S 5975   0.391   4.532   3.719  0.1764 -1.3452  1.1006
   47DOPE   C25 5976   0.451   4.611   3.909 -1.0589 -1.0127 -0.2527
   47DOPE   H5R 5977   0.358   4.672   3.908 -0.4557 -0.0809 -0.6758
   47DOPE   H5S 5978   0.535   4.675   3.943 -1.3769  0.4714 -2.1235
   47DOPE   C26 5979   0.453   4.488   3.996  0.5907 -0.9251 -0.1673
   47DOPE   H6R 5980   0.554   4.442   4.004 -0.1109 -2.4017  0.8478
   47DOPE   H6S 5981   0.394   4.414   3.938  1.9213 -0.8851 -1.6239
   47DOPE   C27 5982   0.389   4.511   4.132  0.0319  0.4899 -0.9965
   47DOPE   H7R 5983   0.345   4.414   4.163  0.1991  0.4187 -0.9794
   47DOPE   H7S 5984   0.300   4.572   4.106 -1.2649 -1.8679 -2.4033
   47DOPE   C28 5985   0.485   4.590   4.228 -0.5897  0.5819  0.3917
   47DOPE   H8R 5986   0.475   4.689   4.180  2.3127  0.2084 -1.2272
   47DOPE   H8S 5987   0.590   4.564   4.201 -0.1962  1.3114  1.1782
   47DOPE   C29 5988   0.456   4.575   4.373 -0.2322  0.1107 -0.2050
   47DOPE   H9R 5989   0.378   4.639   4.417  0.2504  0.5111  0.0732
   47DOPE  C210 5990   0.503   4.486   4.456 -0.0357  0.2451 -0.4413
   47DOPE  H10R 5991   0.463   4.464   4.557  1.9327 -1.5168  0.0352
   47DOPE  C211 5992   0.589   4.375   4.412 -0.4362 -0.0397 -0.7423
   47DOPE  H11R 5993   0.662   4.349   4.492 -0.6605 -0.0387 -0.5353
   47DOPE  H11S 5994   0.654   4.410   4.329 -0.3097  0.4466 -0.4455
   47DOPE  C212 5995   0.525   4.242   4.381 -0.1397  0.0834 -0.9218
   47DOPE  H12R 5996   0.611   4.173   4.379  1.0713  1.4924 -0.1513
   47DOPE  H12S 5997   0.467   4.253   4.287 -1.5982 -1.6270 -0.2728
   47DOPE  C213 5998   0.432   4.190   4.489  0.0310  0.0985 -0.5721
   47DOPE  H13R 5999   0.355   4.268   4.505  1.2584  1.6346 -1.8863
   47DOPE  H13S 6000   0.484   4.190   4.587 -3.4964  2.5752  1.5451
   47DOPE  C214 6001   0.360   4.056   4.445 -0.1229 -1.3853 -0.0244
   47DOPE  H14R 6002   0.430   3.976   4.412  0.5283 -1.1159  0.6735
   47DOPE  H14S 6003   0.297   4.088   4.359  0.9207 -1.1099 -0.7184
   47DOPE  C215 6004   0.275   3.987   4.558 -0.2427  0.0799  0.1261
   47DOPE  H15R 6005   0.208   4.069   4.594 -1.9078 -1.0866 -0.1913
   47DOPE  H15S 6006   0.336   3.954   4.645  1.6469 -0.9303 -1.5204
   47DOPE  C216 6007   0.204   3.857   4.508 -0.0315 -0.4947  0.0101
   47DOPE  H16R 6008   0.251   3.765   4.549  0.4746 -0.3743 -0.2829
   47DOPE  H16S 6009   0.201   3.859   4.397 -0.1876 -0.6641  0.0109
   47DOPE  C217 6010   0.053   3.850   4.550  0.0315 -0.3954 -0.6053
   47DOPE  H17R 6011   0.007   3.947   4.521 -1.9546 -1.1279 -0.0556
   47DOPE  H17S 6012   0.048   3.853   4.661 -0.8410  0.6044 -0.6525
   47DOPE  C218 6013  -0.021   3.742   4.482 -0.2944  0.9110  0.3198
   47DOPE  H18R 6014   0.041   3.651   4.494 -0.7693  0.6311  0.6719
   47DOPE  H18S 6015  -0.031   3.756   4.372 -0.0029 -0.8309  0.0557
   47DOPE  H18T 6016  -0.120   3.732   4.533 -0.5283  0.7402 -0.1651
   47DOPE   C33 6017   0.835   5.121   3.768  1.0910  0.3021 -0.3334
   47DOPE   H3X 6018   0.842   5.128   3.879 -0.6496 -0.6412 -0.1333
   47DOPE   H3Y 6019   0.729   5.112   3.736  0.9167  0.3242  0.2276
   47DOPE   C34 6020   0.900   5.239   3.707 -0.3572  0.0726 -0.4790
   47DOPE   H4X 6021   1.002   5.239   3.751  0.1835  0.4331 -1.6949
   47DOPE   H4Y 6022   0.901   5.227   3.597 -1.8268  1.0086 -0.6225
   47DOPE   C35 6023   0.840   5.376   3.742 -0.4923 -0.3585 -0.1922
   47DOPE   H5X 6024   0.744   5.380   3.687  0.8579 -0.2305 -2.7113
   47DOPE   H5Y 6025   0.910   5.454   3.705 -1.7127  1.4515  1.1423
   47DOPE   C36 6026   0.828   5.395   3.892  0.2801 -0.6229 -0.6494
   47DOPE   H6X 6027   0.768   5.318   3.946  1.1280 -0.1545  1.0238
   47DOPE   H6Y 6028   0.768   5.488   3.903  0.5871 -0.2776 -1.7170
   47DOPE   C37 6029   0.956   5.421   3.972 -0.1638  0.6701 -0.7630
   47DOPE   H7X 6030   1.015   5.327   3.980  3.6794  3.0579  2.6208
   47DOPE   H7Y 6031   1.018   5.485   3.906 -0.2532  2.5234  0.8758
   47DOPE   C38 6032   0.931   5.484   4.113 -0.7849  0.5537 -0.0869
   47DOPE   H8X 6033   0.852   5.562   4.098 -0.9917 -0.0617 -2.6586
   47DOPE   H8Y 6034   1.019   5.525   4.167  1.2384 -1.7422 -1.4440
   47DOPE   C39 6035   0.868   5.380   4.204 -0.2167 -0.1638  0.2081
   47DOPE   H9X 6036   0.780   5.338   4.154 -1.0397  1.2078  0.4415
   47DOPE  C310 6037   0.912   5.319   4.312 -0.3372  0.1175 -0.0868
   47DOPE  H10X 6038   0.844   5.251   4.366  0.5525 -1.3777 -0.8143
   47DOPE  C311 6039   1.032   5.353   4.390 -0.0327  0.1211 -0.0807
   47DOPE  H11X 6040   1.076   5.264   4.438 -1.0512 -0.1163  0.4534
   47DOPE  H11Y 6041   1.114   5.391   4.326  1.4539  1.0398  2.2183
   47DOPE  C312 6042   1.003   5.469   4.486 -0.0388 -0.2947  0.1890
   47DOPE  H12X 6043   0.932   5.443   4.568 -1.3401  2.6818  0.1464
   47DOPE  H12Y 6044   0.946   5.548   4.433 -1.0951  0.4131  2.2559
   47DOPE  C313 6045   1.127   5.542   4.543  0.6427  0.0903 -0.9319
   47DOPE  H13X 6046   1.199   5.465   4.577  0.9891 -0.2072 -2.2824
   47DOPE  H13Y 6047   1.181   5.593   4.459 -0.7458  1.3333 -1.1181
   47DOPE  C314 6048   1.117   5.645   4.656 -0.0723 -0.0914 -0.1650
   47DOPE  H14X 6049   1.223   5.672   4.677  0.1189 -2.0487  1.9197
   47DOPE  H14Y 6050   1.070   5.604   4.748  0.5372  0.8114  0.5680
   47DOPE  C315 6051   1.045   5.769   4.611  0.0439 -0.1479  0.3601
   47DOPE  H15X 6052   0.959   5.755   4.542  0.0762  1.4514 -0.0559
   47DOPE  H15Y 6053   1.115   5.824   4.545 -0.7464  0.2991 -0.1171
   47DOPE  C316 6054   1.005   5.860   4.729 -1.3276  0.2201 -0.3737
   47DOPE  H16X 6055   0.961   5.801   4.813 -0.5172 -1.7072 -1.2501
   47DOPE  H16Y 6056   0.938   5.944   4.700 -1.7277 -0.6465 -2.0694
   47DOPE  C317 6057   1.129   5.921   4.790 -0.2145  0.7682 -0.4289
   47DOPE  H17X 6058   1.190   5.848   4.848 -2.3726  1.8877  3.6967
   47DOPE  H17Y 6059   1.192   5.963   4.709  2.5107 -0.4512  0.9214
   47DOPE  C318 6060   1.102   6.030   4.899  1.0791 -0.3020  0.3077
   47DOPE  H18X 6061   1.064   5.974   4.988 -0.3534 -1.7522 -1.1438
   47DOPE  H18Y 6062   1.194   6.082   4.931  0.3221  0.5850  1.1039
   47DOPE  H18Z 6063   1.029   6.106   4.864  2.8379  0.4292 -1.9724
   48DOPE     N 6064   6.960   0.620   2.978 -0.3189  0.5828  0.5926
   48DOPE   HN1 6065   6.989   0.557   3.056  0.0070  0.2599  0.2167
   48DOPE   HN2 6066   6.867   0.589   2.942  0.5744 -0.2038 -1.1565
   48DOPE   HN3 6067   7.029   0.602   2.903  0.4514  0.6580  1.2705
   48DOPE   C12 6068   6.959   0.757   3.025 -0.2402  0.4729  0.1278
   48DOPE  H12A 6069   6.972   0.748   3.135  2.7561  0.8486 -0.1281
   48DOPE  H12B 6070   6.859   0.796   2.996 -0.6517 -1.1425 -0.7659
   48DOPE   C11 6071   7.091   0.829   2.984  0.4648  0.2800  0.0242
   48DOPE  H11A 6072   7.072   0.924   3.039 -2.4377 -0.5400  0.6383
   48DOPE  H11B 6073   7.090   0.858   2.877 -0.6866  0.4379  0.0620
   48DOPE     P 6074   7.341   0.832   3.031  0.3064  0.1303 -0.0170
   48DOPE   O13 6075   7.352   0.899   2.900 -0.6933  0.1269  0.9514
   48DOPE   O14 6076   7.453   0.749   3.077 -0.4397  0.4174 -0.8344
   48DOPE   O11 6077   7.330   0.947   3.131 -0.1659  0.4201 -0.0696
   48DOPE   O12 6078   7.205   0.753   3.032  0.1899  0.2289  0.3892
   48DOPE    C1 6079   7.244   0.941   3.246  0.1570  0.2809  0.3644
   48DOPE    HA 6080   7.214   0.838   3.276  3.7333 -1.2594 -0.8336
   48DOPE    HB 6081   7.149   0.995   3.225 -0.7756 -2.1092 -2.0776
   48DOPE    C2 6082   7.298   1.009   3.377 -0.7245 -0.2365 -0.1972
   48DOPE    HS 6083   7.328   1.113   3.351 -1.5871  0.0702 -0.0069
   48DOPE   O21 6084   7.407   0.936   3.434 -0.6961  0.1684 -0.5723
   48DOPE   C21 6085   7.483   1.001   3.513  0.3426  0.2435 -0.1813
   48DOPE   O22 6086   7.479   1.116   3.538  0.0695  0.2550 -0.3948
   48DOPE   C22 6087   7.579   0.900   3.577  0.3401  0.4147  0.1347
   48DOPE   H2R 6088   7.657   0.890   3.498 -0.7074 -0.4649 -0.8270
   48DOPE   H2S 6089   7.513   0.811   3.585 -1.4778  1.6089 -0.6521
   48DOPE    C3 6090   7.186   1.023   3.480  0.3339 -1.0016  0.0145
   48DOPE    HX 6091   7.218   1.056   3.581 -4.0117 -1.2035  1.6860
   48DOPE    HY 6092   7.155   0.919   3.507 -1.7036 -0.2355  0.8663
   48DOPE   O31 6093   7.077   1.118   3.447 -0.0202  0.3463 -0.0942
   48DOPE   C31 6094   6.959   1.066   3.447  0.7310  0.0402 -0.2351
   48DOPE   O32 6095   6.935   0.950   3.461 -0.2140  0.3602 -0.5204
   48DOPE   C32 6096   6.859   1.181   3.445 -0.3130  0.7378  0.5464
   48DOPE   H2X 6097   6.882   1.253   3.526 -0.7924  3.1264 -1.3007
   48DOPE   H2Y 6098   6.875   1.231   3.346  2.0962  2.4737  1.6878
   48DOPE   C23 6099   7.616   0.947   3.724  0.4549 -0.0384  0.2458
   48DOPE   H3R 6100   7.660   1.049   3.725  0.6501 -0.1254  0.5706
   48DOPE   H3S 6101   7.702   0.885   3.758 -0.2750 -0.9223  0.5081
   48DOPE   C24 6102   7.504   0.934   3.824 -0.7552 -0.0661  0.6382
   48DOPE   H4R 6103   7.413   0.981   3.783  0.2654  2.3924  1.0011
   48DOPE   H4S 6104   7.536   0.994   3.911 -0.5396  0.7836 -0.0142
   48DOPE   C25 6105   7.487   0.793   3.871  0.0420  0.0733 -0.1714
   48DOPE   H5R 6106   7.581   0.762   3.922  0.0972  0.3818 -0.0795
   48DOPE   H5S 6107   7.457   0.725   3.788  1.7856  0.7109 -1.3887
   48DOPE   C26 6108   7.381   0.775   3.985 -0.2188 -0.3700 -0.7884
   48DOPE   H6R 6109   7.278   0.793   3.946  0.1619  0.5618 -1.3851
   48DOPE   H6S 6110   7.392   0.855   4.062 -0.4382 -1.1146  0.0359
   48DOPE   C27 6111   7.384   0.631   4.035 -0.2948  0.0848  0.2959
   48DOPE   H7R 6112   7.480   0.591   4.074 -1.1139 -3.3511 -0.8636
   48DOPE   H7S 6113   7.366   0.566   3.947  0.5083  0.6039 -0.2653
   48DOPE   C28 6114   7.265   0.602   4.128 -0.2274 -0.9747 -0.2506
   48DOPE   H8R 6115   7.269   0.492   4.140  4.6715 -0.7855  2.5415
   48DOPE   H8S 6116   7.165   0.628   4.088 -0.1858  0.7082  0.6407
   48DOPE   C29 6117   7.279   0.666   4.264 -0.0107 -0.4260  0.3156
   48DOPE   H9R 6118   7.372   0.637   4.317  1.9179  1.7468 -1.6513
   48DOPE  C210 6119   7.194   0.742   4.342 -0.1271 -0.0909 -0.4536
   48DOPE  H10R 6120   7.218   0.764   4.447  0.6368 -1.8298 -0.2249
   48DOPE  C211 6121   7.061   0.806   4.311 -0.6323  0.4511 -0.1955
   48DOPE  H11R 6122   7.028   0.772   4.211  0.0426 -2.3026  0.4553
   48DOPE  H11S 6123   7.077   0.914   4.288 -0.1652 -0.0741 -2.5721
   48DOPE  C212 6124   6.957   0.788   4.417 -0.1536  0.0226  0.2127
   48DOPE  H12R 6125   6.998   0.794   4.520 -0.9575  1.5425  0.4725
   48DOPE  H12S 6126   6.903   0.692   4.409  1.0026 -0.6317  0.0051
   48DOPE  C213 6127   6.854   0.904   4.413  0.4095  0.5153 -0.2459
   48DOPE  H13R 6128   6.791   0.885   4.324  2.0308 -1.5976 -1.0480
   48DOPE  H13S 6129   6.905   1.003   4.413  1.2211  0.1178 -1.1897
   48DOPE  C214 6130   6.756   0.915   4.533 -0.0675 -0.2768  0.3344
   48DOPE  H14R 6131   6.820   0.906   4.624  2.1516 -0.8789 -1.2028
   48DOPE  H14S 6132   6.696   0.822   4.528  0.9704 -0.8857 -2.8462
   48DOPE  C215 6133   6.674   1.043   4.553  0.3697  0.2898 -1.1498
   48DOPE  H15R 6134   6.608   1.065   4.466  1.0181  1.4535 -1.3657
   48DOPE  H15S 6135   6.742   1.131   4.560  1.6266 -0.8118  2.1536
   48DOPE  C216 6136   6.596   1.028   4.678  0.0184 -0.3932  0.2573
   48DOPE  H16R 6137   6.661   1.067   4.759  1.4604 -0.1268 -0.9856
   48DOPE  H16S 6138   6.571   0.922   4.700  0.8382 -0.8010 -0.6816
   48DOPE  C217 6139   6.475   1.117   4.675  0.4432 -0.5820 -0.1131
   48DOPE  H17R 6140   6.512   1.218   4.651 -0.3736  0.3762  2.3142
   48DOPE  H17S 6141   6.424   1.129   4.773  0.9009  1.1735 -0.0637
   48DOPE  C218 6142   6.357   1.086   4.580  0.0953 -0.7465  0.4739
   48DOPE  H18R 6143   6.276   1.161   4.591  0.4373  0.0208 -1.6878
   48DOPE  H18S 6144   6.306   0.988   4.592  2.3226 -2.0425 -0.0489
   48DOPE  H18T 6145   6.399   1.084   4.477  0.7879  1.1218  0.6823
   48DOPE   C33 6146   6.716   1.128   3.454  0.0447  0.0834 -0.4378
   48DOPE   H3X 6147   6.693   1.042   3.386 -2.4787 -0.7576  1.3021
   48DOPE   H3Y 6148   6.646   1.211   3.429  0.3790  0.8304  0.9952
   48DOPE   C34 6149   6.668   1.106   3.600 -0.0519 -0.2441  0.4750
   48DOPE   H4X 6150   6.659   0.996   3.612 -0.4074 -0.2391  0.2823
   48DOPE   H4Y 6151   6.740   1.162   3.662  1.0461 -1.3592  0.2428
   48DOPE   C35 6152   6.524   1.157   3.632 -0.3591  0.0851  0.3577
   48DOPE   H5X 6153   6.452   1.109   3.563 -1.5417  1.7089  0.3931
   48DOPE   H5Y 6154   6.507   1.266   3.620 -0.7693 -0.0155  0.0154
   48DOPE   C36 6155   6.489   1.120   3.775  0.7895  0.1075 -0.2097
   48DOPE   H6X 6156   6.560   1.178   3.837  1.3804 -0.5597 -0.2571
   48DOPE   H6Y 6157   6.516   1.015   3.797  0.6652  0.4126  1.5346
   48DOPE   C37 6158   6.341   1.151   3.815  0.2397 -0.6757  0.1967
   48DOPE   H7X 6159   6.336   1.262   3.824  1.9606 -0.4348 -1.1449
   48DOPE   H7Y 6160   6.285   1.115   3.726 -1.2181  0.2038  0.7270
   48DOPE   C38 6161   6.304   1.083   3.943  0.1501  0.7782  0.0129
   48DOPE   H8X 6162   6.297   0.974   3.923 -1.0823  0.5732  1.4233
   48DOPE   H8Y 6163   6.194   1.092   3.954 -0.1634 -2.7071  0.6728
   48DOPE   C39 6164   6.370   1.119   4.073 -0.2563  0.1637 -0.3060
   48DOPE   H9X 6165   6.352   1.217   4.120 -0.5643 -0.6552  1.3480
   48DOPE  C310 6166   6.437   1.030   4.143 -0.0210 -0.0698 -0.4020
   48DOPE  H10X 6167   6.495   1.071   4.227  2.2485 -1.4042 -1.2195
   48DOPE  C311 6168   6.474   0.882   4.110 -0.1088  0.0627 -0.4752
   48DOPE  H11X 6169   6.453   0.848   4.006 -2.4485  0.4316 -0.1558
   48DOPE  H11Y 6170   6.582   0.880   4.137  0.2281  2.0907 -1.4004
   48DOPE  C312 6171   6.394   0.779   4.192 -0.9101 -0.3584  0.6502
   48DOPE  H12X 6172   6.440   0.686   4.153  2.3038  0.2742  2.5508
   48DOPE  H12Y 6173   6.289   0.786   4.158 -0.9374  0.6306  0.8917
   48DOPE  C313 6174   6.415   0.798   4.338 -0.0030 -0.0692 -0.4386
   48DOPE  H13X 6175   6.518   0.834   4.360  1.1732 -2.2881 -1.8217
   48DOPE  H13Y 6176   6.349   0.884   4.363  0.3179  0.8229 -2.4570
   48DOPE  C314 6177   6.389   0.664   4.420  0.1481 -1.0663  0.2020
   48DOPE  H14X 6178   6.471   0.596   4.388  1.2173  0.6413 -0.8278
   48DOPE  H14Y 6179   6.286   0.628   4.401 -0.3847  1.4808 -2.5208
   48DOPE  C315 6180   6.405   0.694   4.570 -0.1363 -0.3513  0.4998
   48DOPE  H15X 6181   6.352   0.789   4.594 -1.3835 -0.7903 -0.3798
   48DOPE  H15Y 6182   6.511   0.722   4.583 -0.2132  0.3622 -0.3193
   48DOPE  C316 6183   6.373   0.582   4.664 -0.4421  0.3946  0.2901
   48DOPE  H16X 6184   6.381   0.486   4.608 -1.8913  0.6013 -0.3310
   48DOPE  H16Y 6185   6.263   0.583   4.681 -1.1247 -1.2158 -3.0316
   48DOPE  C317 6186   6.459   0.585   4.799  0.7908  0.4866  0.2785
   48DOPE  H17X 6187   6.566   0.578   4.770  0.9804  0.5694  0.9438
   48DOPE  H17Y 6188   6.434   0.687   4.836 -2.6280 -0.1595  0.0619
   48DOPE  C318 6189   6.415   0.476   4.906 -0.1683 -1.0177 -0.8071
   48DOPE  H18X 6190   6.468   0.380   4.888  0.1043 -1.4887  2.0314
   48DOPE  H18Y 6191   6.448   0.510   5.007 -2.8766 -1.2311  0.2354
   48DOPE  H18Z 6192   6.305   0.462   4.917 -0.0627 -1.0389  0.3418
   49DOPE     N 6193   2.386   5.455   2.863 -0.0187 -0.5497  0.3369
   49DOPE   HN1 6194   2.444   5.523   2.916  0.9631 -1.8539  1.0075
   49DOPE   HN2 6195   2.425   5.446   2.766 -1.7528 -1.0969 -0.3411
   49DOPE   HN3 6196   2.289   5.489   2.857  0.0699 -0.5109 -2.3896
   49DOPE   C12 6197   2.384   5.319   2.928 -0.6150  0.1520  0.0532
   49DOPE  H12A 6198   2.377   5.323   3.039  0.5046 -3.5990  0.4073
   49DOPE  H12B 6199   2.485   5.281   2.903 -0.3997 -0.8860  2.2531
   49DOPE   C11 6200   2.276   5.229   2.869 -0.2947 -0.0869 -0.5552
   49DOPE  H11A 6201   2.312   5.126   2.890  1.3816  0.6299  0.2577
   49DOPE  H11B 6202   2.267   5.237   2.759 -0.9394  0.5000 -0.4740
   49DOPE     P 6203   2.018   5.192   2.911  0.1320 -0.1468 -0.1720
   49DOPE   O13 6204   2.039   5.049   2.887  0.4393 -0.3548 -0.4085
   49DOPE   O14 6205   1.938   5.268   2.811 -0.4141 -0.1297 -0.0336
   49DOPE   O11 6206   1.948   5.209   3.052 -0.3702  0.0537 -0.4630
   49DOPE   O12 6207   2.158   5.262   2.933 -0.0937  0.2682 -0.6949
   49DOPE    C1 6208   2.016   5.188   3.173  0.2621  0.9618 -0.4224
   49DOPE    HA 6209   2.113   5.242   3.175  1.4297 -0.7104  4.4011
   49DOPE    HB 6210   2.033   5.078   3.184 -1.1288  0.8463  1.1230
   49DOPE    C2 6211   1.932   5.225   3.294  0.7175 -0.2541  0.5164
   49DOPE    HS 6212   1.904   5.332   3.290  1.2477 -0.1448 -0.6086
   49DOPE   O21 6213   2.021   5.210   3.404 -0.4889  0.4188  0.9815
   49DOPE   C21 6214   2.008   5.281   3.514 -0.3993  0.0932 -0.9941
   49DOPE   O22 6215   1.925   5.365   3.537  0.2490 -0.2979 -0.6523
   49DOPE   C22 6216   2.109   5.234   3.620 -0.3529 -0.3104 -0.5701
   49DOPE   H2R 6217   2.196   5.298   3.596 -1.4029  1.1351 -0.6999
   49DOPE   H2S 6218   2.136   5.130   3.593  2.0449  0.4894 -1.4653
   49DOPE    C3 6219   1.810   5.135   3.307  0.1390 -0.0652  0.0602
   49DOPE    HX 6220   1.841   5.028   3.311 -0.2846 -0.2071 -0.3816
   49DOPE    HY 6221   1.745   5.146   3.218 -1.4780 -2.5822  0.8087
   49DOPE   O31 6222   1.739   5.164   3.426 -0.0803  0.1142  0.1221
   49DOPE   C31 6223   1.606   5.138   3.422  0.4950 -0.0587  0.5397
   49DOPE   O32 6224   1.546   5.106   3.321 -0.2608 -0.2222 -0.3380
   49DOPE   C32 6225   1.541   5.154   3.557 -0.1080 -0.5141 -0.1711
   49DOPE   H2X 6226   1.604   5.124   3.644  0.4550  1.9329  0.3455
   49DOPE   H2Y 6227   1.520   5.261   3.574  0.5965 -0.0689 -1.8901
   49DOPE   C23 6228   2.052   5.248   3.768 -0.3528  0.3116  0.8174
   49DOPE   H3R 6229   2.045   5.357   3.790 -0.6574  0.6880 -0.9588
   49DOPE   H3S 6230   2.128   5.201   3.834 -1.3190 -3.3114 -0.4121
   49DOPE   C24 6231   1.920   5.184   3.791  0.2989  0.0687  0.3476
   49DOPE   H4R 6232   1.949   5.077   3.783  2.8485  0.7999 -1.3442
   49DOPE   H4S 6233   1.854   5.198   3.703  0.7071 -0.0187  0.0258
   49DOPE   C25 6234   1.862   5.232   3.924  0.5171 -0.0912  0.2735
   49DOPE   H5R 6235   1.938   5.220   4.004  1.3607 -0.9762 -0.6247
   49DOPE   H5S 6236   1.779   5.166   3.957  0.6055 -0.8969 -1.0534
   49DOPE   C26 6237   1.800   5.374   3.925 -0.0339  0.4943 -0.0022
   49DOPE   H6R 6238   1.865   5.459   3.897  0.4143  1.1232  2.6956
   49DOPE   H6S 6239   1.775   5.386   4.033  0.8143 -0.0433  0.2663
   49DOPE   C27 6240   1.671   5.384   3.844  0.1322 -0.3330 -0.7827
   49DOPE   H7R 6241   1.597   5.313   3.888  1.4670  0.3740  2.9494
   49DOPE   H7S 6242   1.688   5.344   3.742  1.9544  0.1245 -0.6862
   49DOPE   C28 6243   1.608   5.522   3.840  0.4846 -0.1580 -0.1528
   49DOPE   H8R 6244   1.611   5.564   3.943 -0.6770  3.0098 -1.2811
   49DOPE   H8S 6245   1.501   5.504   3.818  0.5714  0.7207 -1.4197
   49DOPE   C29 6246   1.666   5.611   3.737  0.0162  0.0098  0.3146
   49DOPE   H9R 6247   1.708   5.552   3.654  0.5000  1.0653 -0.1991
   49DOPE  C210 6248   1.688   5.740   3.743  0.1587 -0.3815 -0.2337
   49DOPE  H10R 6249   1.735   5.776   3.651  1.5482 -0.2626  0.4960
   49DOPE  C211 6250   1.642   5.831   3.850  0.3228 -0.7644 -0.6812
   49DOPE  H11R 6251   1.533   5.826   3.871  0.9349  0.3578  3.7104
   49DOPE  H11S 6252   1.668   5.933   3.815  1.0817 -0.1814  1.4207
   49DOPE  C212 6253   1.708   5.828   3.990  0.3394 -0.7164  0.0526
   49DOPE  H12R 6254   1.818   5.823   3.985  0.5708  0.4708  2.4038
   49DOPE  H12S 6255   1.678   5.730   4.034  1.1117 -1.6930 -1.5192
   49DOPE  C213 6256   1.662   5.957   4.071  0.0105  0.3778 -0.4053
   49DOPE  H13R 6257   1.562   5.933   4.111  1.2109  1.3736  3.6322
   49DOPE  H13S 6258   1.668   6.046   4.005 -0.7657 -0.3066 -1.4256
   49DOPE  C214 6259   1.746   5.963   4.200  0.6875 -0.2592  0.2600
   49DOPE  H14R 6260   1.727   5.861   4.238 -1.2315 -0.2641 -0.6005
   49DOPE  H14S 6261   1.704   6.031   4.276  2.5665  2.1916 -0.7588
   49DOPE  C215 6262   1.895   5.989   4.183  0.4388  0.3672  0.2466
   49DOPE  H15R 6263   1.901   6.088   4.133  0.2670 -0.2731 -1.0905
   49DOPE  H15S 6264   1.943   5.923   4.107 -0.1563 -1.3148  1.2755
   49DOPE  C216 6265   1.973   5.967   4.309 -0.5578 -0.0984  0.6359
   49DOPE  H16R 6266   1.966   5.865   4.353  0.7040 -1.4577 -2.0830
   49DOPE  H16S 6267   1.938   6.037   4.388 -0.3975 -2.1650  2.6510
   49DOPE  C217 6268   2.125   6.009   4.288  0.2876 -0.3771  0.2907
   49DOPE  H17R 6269   2.140   6.087   4.210  4.2095 -0.8503  0.3363
   49DOPE  H17S 6270   2.182   5.926   4.239  2.0977  0.6448  0.5884
   49DOPE  C218 6271   2.204   6.054   4.413  0.0454 -0.8125 -0.6318
   49DOPE  H18R 6272   2.156   6.144   4.459  0.2408  0.5265 -2.8716
   49DOPE  H18S 6273   2.310   6.073   4.384 -0.3405  2.4284 -0.3633
   49DOPE  H18T 6274   2.199   5.974   4.489 -0.2221 -1.3005 -1.1585
   49DOPE   C33 6275   1.401   5.082   3.565 -0.6020  0.5490  0.2145
   49DOPE   H3X 6276   1.405   4.980   3.521 -0.4120 -0.1071  1.6681
   49DOPE   H3Y 6277   1.343   5.150   3.500  1.2864  0.4666 -1.6673
   49DOPE   C34 6278   1.345   5.074   3.709  0.4847  0.3388 -0.5121
   49DOPE   H4X 6279   1.248   5.019   3.710 -0.3881  1.7423  2.3906
   49DOPE   H4Y 6280   1.417   5.026   3.779  1.3118 -0.6813 -1.9948
   49DOPE   C35 6281   1.307   5.214   3.758  0.1556 -0.0486 -0.0372
   49DOPE   H5X 6282   1.223   5.255   3.698  1.7179 -0.4623 -2.6401
   49DOPE   H5Y 6283   1.396   5.278   3.739  0.6470 -0.4792  0.7758
   49DOPE   C36 6284   1.255   5.220   3.903 -0.6196 -0.7548 -0.4583
   49DOPE   H6X 6285   1.170   5.149   3.917  0.7903 -2.1266  1.6593
   49DOPE   H6Y 6286   1.222   5.319   3.940  2.7368 -0.4471  2.2767
   49DOPE   C37 6287   1.350   5.189   4.011  0.0979  0.7827 -0.0099
   49DOPE   H7X 6288   1.404   5.102   3.968 -1.0437  0.2873 -0.4846
   49DOPE   H7Y 6289   1.433   5.261   4.022 -0.6146  2.1042 -2.4587
   49DOPE   C38 6290   1.281   5.151   4.140  0.2725 -0.1973 -0.1333
   49DOPE   H8X 6291   1.193   5.090   4.110 -0.9325  0.6180  1.5124
   49DOPE   H8Y 6292   1.234   5.240   4.188 -0.0025 -1.0518  1.2458
   49DOPE   C39 6293   1.378   5.081   4.239 -0.4510 -0.5589  0.2018
   49DOPE   H9X 6294   1.429   4.992   4.201  3.0135  1.1068  0.5754
   49DOPE  C310 6295   1.431   5.133   4.352 -0.1258  1.2126  0.1566
   49DOPE  H10X 6296   1.517   5.082   4.399 -0.6338  0.5209  0.3610
   49DOPE  C311 6297   1.401   5.263   4.415 -0.2325 -0.1235 -0.2980
   49DOPE  H11X 6298   1.353   5.337   4.348  1.7119  0.1498 -1.4386
   49DOPE  H11Y 6299   1.335   5.248   4.504  0.4042  3.9453  1.0781
   49DOPE  C312 6300   1.530   5.333   4.470 -0.0687 -0.0638  0.0535
   49DOPE  H12X 6301   1.589   5.261   4.530  1.0998 -0.2735 -1.2730
   49DOPE  H12Y 6302   1.489   5.411   4.537  0.4501  1.3368 -1.1998
   49DOPE  C313 6303   1.624   5.395   4.367  0.0849 -0.2094  0.3885
   49DOPE  H13X 6304   1.676   5.312   4.315 -0.6734  0.0349 -0.8070
   49DOPE  H13Y 6305   1.562   5.449   4.293 -0.7962  1.2021  2.0807
   49DOPE  C314 6306   1.736   5.475   4.426  0.3168 -0.7106 -0.1389
   49DOPE  H14X 6307   1.785   5.424   4.512 -0.2023  2.2929  2.1072
   49DOPE  H14Y 6308   1.680   5.562   4.466  1.3253  0.0695 -0.4007
   49DOPE  C315 6309   1.837   5.546   4.331  0.7005 -0.1557 -0.2895
   49DOPE  H15X 6310   1.881   5.632   4.387 -1.6301 -0.1215  1.6619
   49DOPE  H15Y 6311   1.779   5.594   4.249  1.6596 -0.0651 -0.9339
   49DOPE  C316 6312   1.945   5.462   4.275 -0.6220 -0.2134  0.9150
   49DOPE  H16X 6313   1.905   5.368   4.232 -0.0361 -0.3378  0.6270
   49DOPE  H16Y 6314   2.003   5.420   4.360  0.1669  0.4267  0.7070
   49DOPE  C317 6315   2.045   5.514   4.168  0.4420 -0.7673 -0.0584
   49DOPE  H17X 6316   1.979   5.546   4.085  0.3721  1.0960  0.6866
   49DOPE  H17Y 6317   2.089   5.610   4.203 -0.7553 -0.5274  0.8221
   49DOPE  C318 6318   2.153   5.417   4.126 -0.2028  0.1610 -0.1590
   49DOPE  H18X 6319   2.115   5.322   4.082  2.3725  0.0472 -2.3918
   49DOPE  H18Y 6320   2.219   5.468   4.053 -3.3448  1.2700 -2.4550
   49DOPE  H18Z 6321   2.220   5.384   4.208  0.8137  1.3575 -0.4959
   50DOPE     N 6322   0.142   5.012   2.670  0.1346  0.2361 -0.4196
   50DOPE   HN1 6323   0.085   4.937   2.626 -0.3153  1.7947 -2.7075
   50DOPE   HN2 6324   0.181   5.077   2.599  2.5557 -1.9605 -1.2268
   50DOPE   HN3 6325   0.219   4.964   2.719 -0.5722 -1.3192 -0.7735
   50DOPE   C12 6326   0.056   5.076   2.772 -0.5149 -0.1478  0.2095
   50DOPE  H12A 6327  -0.040   5.021   2.777 -1.6163  1.5084 -1.1999
   50DOPE  H12B 6328   0.027   5.176   2.731 -1.9957 -0.6210  0.0619
   50DOPE   C11 6329   0.134   5.084   2.906  0.3611  0.3885  0.3276
   50DOPE  H11A 6330   0.085   5.141   2.988  1.4034 -0.9569  1.9652
   50DOPE  H11B 6331   0.228   5.140   2.884 -0.8199  2.5164  0.4425
   50DOPE     P 6332   0.168   4.902   3.092 -0.0942  0.1523 -0.2387
   50DOPE   O13 6333   0.207   5.003   3.190  0.2575  0.3059  0.3034
   50DOPE   O14 6334   0.245   4.776   3.098 -0.2958  0.2842  0.2774
   50DOPE   O11 6335   0.019   4.864   3.114  0.5624  0.1119 -0.1757
   50DOPE   O12 6336   0.169   4.954   2.944  1.2212  0.0352  0.6046
   50DOPE    C1 6337  -0.080   4.952   3.166  0.7807  0.0711 -0.0701
   50DOPE    HA 6338  -0.176   4.934   3.113  0.4459  0.2880  0.4527
   50DOPE    HB 6339  -0.048   5.057   3.146 -0.6615  0.2821 -1.5046
   50DOPE    C2 6340  -0.099   4.935   3.318  0.1850 -0.1601 -0.1223
   50DOPE    HS 6341   0.003   4.922   3.360  0.2629  0.5120 -0.0911
   50DOPE   O21 6342  -0.190   4.829   3.350  0.0246  0.2456 -0.5873
   50DOPE   C21 6343  -0.182   4.770   3.468  0.2510  0.2295  0.0626
   50DOPE   O22 6344  -0.083   4.774   3.541 -0.0242  0.3754 -0.7940
   50DOPE   C22 6345  -0.306   4.692   3.481  0.3066 -0.6007 -0.8526
   50DOPE   H2R 6346  -0.274   4.589   3.508  2.8120  0.5943  1.2662
   50DOPE   H2S 6347  -0.373   4.702   3.393 -0.7000 -0.8304 -0.1326
   50DOPE    C3 6348  -0.143   5.067   3.383 -0.0070  0.2634  0.3423
   50DOPE    HX 6349  -0.248   5.088   3.353  0.2340  0.0093 -0.7210
   50DOPE    HY 6350  -0.081   5.146   3.334  1.6526 -2.6744 -2.7066
   50DOPE   O31 6351  -0.129   5.073   3.529 -0.4352 -0.4759  0.7221
   50DOPE   C31 6352  -0.024   5.135   3.576  0.5137 -0.1988 -0.1976
   50DOPE   O32 6353   0.054   5.204   3.512  0.1183 -0.1260  0.0180
   50DOPE   C32 6354  -0.019   5.106   3.734 -0.0014  0.1699  0.1678
   50DOPE   H2X 6355   0.073   5.045   3.742  0.9612  1.7844  2.3472
   50DOPE   H2Y 6356   0.003   5.207   3.775 -3.4134  1.4296 -0.7748
   50DOPE   C23 6357  -0.393   4.748   3.596  0.4722 -0.8003 -0.2688
   50DOPE   H3R 6358  -0.423   4.852   3.572  0.6134 -0.8419 -0.6356
   50DOPE   H3S 6359  -0.327   4.743   3.685 -0.3504 -0.5668  0.3620
   50DOPE   C24 6360  -0.522   4.669   3.623 -0.1992  0.4301  0.1981
   50DOPE   H4R 6361  -0.503   4.561   3.643 -0.4907  0.6772  2.0101
   50DOPE   H4S 6362  -0.588   4.670   3.534  0.8654  2.4252 -0.6399
   50DOPE   C25 6363  -0.595   4.725   3.748 -0.3610  0.1439  0.9896
   50DOPE   H5R 6364  -0.691   4.753   3.699 -0.8209 -1.1787  1.0898
   50DOPE   H5S 6365  -0.545   4.817   3.784 -0.2534 -0.2411  1.8498
   50DOPE   C26 6366  -0.602   4.638   3.867  0.8832  0.9711 -0.2255
   50DOPE   H6R 6367  -0.514   4.570   3.874  0.5166  0.3849 -1.0909
   50DOPE   H6S 6368  -0.697   4.581   3.865  0.0639  2.0254  2.6699
   50DOPE   C27 6369  -0.608   4.718   3.994 -0.7712  0.1370 -0.4065
   50DOPE   H7R 6370  -0.702   4.776   3.986 -0.4587  0.4913 -1.8241
   50DOPE   H7S 6371  -0.524   4.791   3.988 -1.0735  0.4089 -1.8358
   50DOPE   C28 6372  -0.605   4.622   4.112  0.6136  0.3945  0.6606
   50DOPE   H8R 6373  -0.694   4.557   4.097  1.9324 -1.2281 -0.5173
   50DOPE   H8S 6374  -0.621   4.695   4.194  0.2261  1.9706 -0.7623
   50DOPE   C29 6375  -0.486   4.534   4.141  0.0252  0.1889  0.0133
   50DOPE   H9R 6376  -0.451   4.484   4.050 -3.1154 -1.5631 -0.3785
   50DOPE  C210 6377  -0.413   4.510   4.249 -0.4971 -0.9733 -0.4409
   50DOPE  H10R 6378  -0.324   4.446   4.249  0.6665  0.4900  2.1261
   50DOPE  C211 6379  -0.440   4.573   4.389 -0.4206 -0.3232  0.2624
   50DOPE  H11R 6380  -0.511   4.658   4.385  1.0880  1.3971  4.4942
   50DOPE  H11S 6381  -0.349   4.624   4.426 -0.2743  0.0092 -0.5266
   50DOPE  C212 6382  -0.503   4.470   4.486 -0.2284  0.5332  0.2986
   50DOPE  H12R 6383  -0.421   4.400   4.513 -0.6458 -0.9241 -1.9508
   50DOPE  H12S 6384  -0.591   4.415   4.447 -0.2433  0.8715 -0.1499
   50DOPE  C213 6385  -0.560   4.529   4.614 -0.1127 -0.6906 -0.4879
   50DOPE  H13R 6386  -0.638   4.603   4.589 -1.8933 -2.4198 -0.3156
   50DOPE  H13S 6387  -0.479   4.581   4.669 -0.7413  0.4378 -0.6038
   50DOPE  C214 6388  -0.618   4.424   4.712  0.2681  0.8548  0.4725
   50DOPE  H14R 6389  -0.544   4.342   4.717 -0.1973  0.3424 -0.6760
   50DOPE  H14S 6390  -0.710   4.376   4.671  0.7299 -1.1946  1.7051
   50DOPE  C215 6391  -0.644   4.487   4.851  0.3281  0.3541  0.2473
   50DOPE  H15R 6392  -0.699   4.581   4.828  0.8021  1.1118  2.0141
   50DOPE  H15S 6393  -0.552   4.522   4.901  0.5342  0.1806 -0.0063
   50DOPE  C216 6394  -0.743   4.403   4.943 -0.5029  0.3753  0.0317
   50DOPE  H16R 6395  -0.710   4.298   4.955 -0.6594  0.4787  1.6951
   50DOPE  H16S 6396  -0.845   4.403   4.901 -1.4689 -1.5031  2.1272
   50DOPE  C217 6397  -0.741   4.464   5.087  0.0560 -0.5980 -0.2480
   50DOPE  H17R 6398  -0.780   4.567   5.073 -0.2227 -0.0202  3.6726
   50DOPE  H17S 6399  -0.636   4.466   5.123 -0.1218  0.9062  0.2370
   50DOPE  C218 6400  -0.843   4.398   5.183  0.2832 -0.1277  0.2770
   50DOPE  H18R 6401  -0.859   4.447   5.281  2.0141  0.8158  0.1074
   50DOPE  H18S 6402  -0.798   4.299   5.207 -0.9930 -0.5889  0.8972
   50DOPE  H18T 6403  -0.937   4.391   5.124  0.5234 -1.1993  0.0041
   50DOPE   C33 6404  -0.150   5.044   3.798  0.0076 -0.0732 -0.7880
   50DOPE   H3X 6405  -0.196   4.972   3.727 -0.1765 -0.3062 -0.4356
   50DOPE   H3Y 6406  -0.229   5.121   3.807  2.4726  2.3551  2.7484
   50DOPE   C34 6407  -0.116   4.985   3.934 -0.0679 -0.5588 -0.4418
   50DOPE   H4X 6408  -0.030   4.916   3.923 -2.2772 -3.0597 -5.1258
   50DOPE   H4Y 6409  -0.089   5.063   4.008 -0.0704 -1.8682  0.9906
   50DOPE   C35 6410  -0.228   4.898   3.987  0.1126  0.2923  0.4566
   50DOPE   H5X 6411  -0.239   4.814   3.914 -1.2628  0.8512 -0.0103
   50DOPE   H5Y 6412  -0.324   4.953   3.997 -0.1805  0.5986 -2.8490
   50DOPE   C36 6413  -0.189   4.825   4.118  0.5041 -0.2883 -0.5671
   50DOPE   H6X 6414  -0.128   4.738   4.085 -0.1779 -0.1425 -2.3024
   50DOPE   H6Y 6415  -0.277   4.788   4.174  0.6402  1.4901  0.8907
   50DOPE   C37 6416  -0.124   4.925   4.214  0.2433  0.6049 -0.9488
   50DOPE   H7X 6417  -0.022   4.949   4.178  0.7149 -0.9154 -0.6884
   50DOPE   H7Y 6418  -0.190   5.014   4.217  0.8069  0.9956  1.9282
   50DOPE   C38 6419  -0.117   4.873   4.358 -0.1662  0.0470 -0.0966
   50DOPE   H8X 6420  -0.224   4.860   4.387 -0.3483 -0.8767 -1.1079
   50DOPE   H8Y 6421  -0.071   4.950   4.424 -0.3255 -1.8217  2.3278
   50DOPE   C39 6422  -0.056   4.736   4.391 -0.1526 -0.0170  0.8865
   50DOPE   H9X 6423  -0.097   4.643   4.350  1.3770 -1.5967  2.7437
   50DOPE  C310 6424   0.046   4.719   4.478  0.4119 -0.1895 -0.5970
   50DOPE  H10X 6425   0.093   4.620   4.486 -0.5758 -0.7685 -1.6782
   50DOPE  C311 6426   0.124   4.826   4.556 -0.0268  0.0595  0.7943
   50DOPE  H11X 6427   0.223   4.849   4.510  0.7592  0.6217  2.6792
   50DOPE  H11Y 6428   0.074   4.924   4.544  0.9442  0.4363 -0.3791
   50DOPE  C312 6429   0.158   4.798   4.704 -0.0353  0.4385  0.8857
   50DOPE  H12X 6430   0.207   4.889   4.745 -0.9044  1.0316  0.6368
   50DOPE  H12Y 6431   0.215   4.704   4.711 -1.7048 -0.7183 -0.3317
   50DOPE  C313 6432   0.023   4.802   4.781 -0.6651 -0.4982  0.2208
   50DOPE  H13X 6433  -0.038   4.892   4.760  0.5452  0.2123 -0.3812
   50DOPE  H13Y 6434  -0.036   4.713   4.750 -0.7793 -0.4159  0.2046
   50DOPE  C314 6435   0.033   4.778   4.927  0.0910  0.3744 -0.0124
   50DOPE  H14X 6436   0.108   4.846   4.973 -0.4937  0.4691  0.8466
   50DOPE  H14Y 6437   0.065   4.672   4.944  0.9743  0.5766 -0.3872
   50DOPE  C315 6438  -0.105   4.805   4.994  0.1161 -0.1664 -0.0328
   50DOPE  H15X 6439  -0.167   4.720   4.959  1.4793 -1.8274  1.4449
   50DOPE  H15Y 6440  -0.148   4.899   4.952  0.9349 -0.4107 -1.4806
   50DOPE  C316 6441  -0.105   4.805   5.145 -0.3465  0.1250  0.0132
   50DOPE  H16X 6442  -0.042   4.879   5.199 -0.4324  0.1991  0.0124
   50DOPE  H16Y 6443  -0.069   4.704   5.172 -0.8320 -0.2810 -0.8422
   50DOPE  C317 6444  -0.256   4.806   5.200  0.1276 -0.4028 -0.0118
   50DOPE  H17X 6445  -0.309   4.902   5.183 -0.5924 -0.5732  1.1946
   50DOPE  H17Y 6446  -0.318   4.737   5.138  0.4149  0.6956 -1.5826
   50DOPE  C318 6447  -0.253   4.764   5.342 -0.2863  0.0148 -0.5799
   50DOPE  H18X 6448  -0.232   4.852   5.406  0.4234 -0.4479 -0.1619
   50DOPE  H18Y 6449  -0.350   4.719   5.373  0.9028 -2.6806 -0.5147
   50DOPE  H18Z 6450  -0.177   4.684   5.358  0.4582  0.9516  0.7633
   51DOPE     N 6451   2.431   6.301   2.616 -0.3897 -0.4046  0.1325
   51DOPE   HN1 6452   2.341   6.336   2.577 -0.5690  0.0385  0.9260
   51DOPE   HN2 6453   2.506   6.320   2.547  1.2406  1.2049  2.2231
   51DOPE   HN3 6454   2.426   6.197   2.612  0.2037 -0.4122 -2.3931
   51DOPE   C12 6455   2.481   6.360   2.741 -0.2890  0.6767 -0.0538
   51DOPE  H12A 6456   2.588   6.391   2.742 -0.3764  0.9863  0.4304
   51DOPE  H12B 6457   2.462   6.283   2.819 -0.0826  1.0651  0.3819
   51DOPE   C11 6458   2.390   6.477   2.769  0.0493 -0.9251  0.4594
   51DOPE  H11A 6459   2.423   6.550   2.692  0.0763 -0.9618  0.4366
   51DOPE  H11B 6460   2.421   6.522   2.866  3.1180 -0.0698 -0.8160
   51DOPE     P 6461   2.170   6.376   2.859  0.0328  0.0323 -0.3107
   51DOPE   O13 6462   2.232   6.251   2.890 -0.4641 -0.2077  0.3189
   51DOPE   O14 6463   2.031   6.375   2.821  0.2011 -0.4377  0.1457
   51DOPE   O11 6464   2.189   6.463   2.985 -0.6132  0.2646 -0.9980
   51DOPE   O12 6465   2.250   6.455   2.751 -0.2356 -0.2813  0.5974
   51DOPE    C1 6466   2.156   6.603   2.985  0.6246 -0.0955 -0.0991
   51DOPE    HA 6467   2.102   6.639   2.895 -1.9244  2.5077  2.2792
   51DOPE    HB 6468   2.252   6.659   2.983 -0.0088  1.2193  2.2300
   51DOPE    C2 6469   2.068   6.646   3.115 -0.0204 -0.4223 -0.4854
   51DOPE    HS 6470   2.057   6.756   3.100  0.3221  0.2462  3.1200
   51DOPE   O21 6471   2.140   6.627   3.235  0.0404 -0.2566  0.2008
   51DOPE   C21 6472   2.235   6.717   3.263 -0.3653  0.5895  0.3547
   51DOPE   O22 6473   2.253   6.826   3.212  0.4054  0.1759 -0.0134
   51DOPE   C22 6474   2.286   6.680   3.403  0.0761 -0.0378 -0.0913
   51DOPE   H2R 6475   2.392   6.716   3.407 -0.4540  1.7146 -0.7606
   51DOPE   H2S 6476   2.298   6.572   3.424 -0.7932  0.2015  1.7853
   51DOPE    C3 6477   1.932   6.563   3.123  0.5609 -0.3410  0.6803
   51DOPE    HX 6478   1.970   6.459   3.131  0.2111 -0.4652  0.7260
   51DOPE    HY 6479   1.864   6.585   3.038 -0.3523  2.1423  1.9424
   51DOPE   O31 6480   1.867   6.588   3.252 -0.2189 -0.2885 -0.1922
   51DOPE   C31 6481   1.757   6.520   3.270  0.6395 -0.4115  0.5818
   51DOPE   O32 6482   1.701   6.444   3.187 -0.5506 -0.1742  0.3369
   51DOPE   C32 6483   1.710   6.538   3.412 -0.3185 -0.3931  0.0730
   51DOPE   H2X 6484   1.688   6.440   3.459 -0.8573 -0.5870 -0.5752
   51DOPE   H2Y 6485   1.789   6.594   3.467  0.1950  0.7139 -1.7199
   51DOPE   C23 6486   2.203   6.750   3.510  0.2719  0.5283  0.7447
   51DOPE   H3R 6487   2.101   6.708   3.495  0.9669 -0.5243 -1.3472
   51DOPE   H3S 6488   2.197   6.861   3.517 -2.9067  0.4182  1.0593
   51DOPE   C24 6489   2.256   6.718   3.653 -0.2377  0.1752  0.0568
   51DOPE   H4R 6490   2.354   6.771   3.658  1.3993 -2.7139  2.3721
   51DOPE   H4S 6491   2.281   6.612   3.675 -0.7470  0.1077  0.3297
   51DOPE   C25 6492   2.163   6.775   3.756  0.4799  0.0610 -0.2601
   51DOPE   H5R 6493   2.065   6.735   3.724  0.4962 -1.0023  0.9597
   51DOPE   H5S 6494   2.169   6.885   3.742  1.5298  0.5839  3.2920
   51DOPE   C26 6495   2.193   6.724   3.891  0.1087  0.3206  0.5551
   51DOPE   H6R 6496   2.202   6.614   3.902 -0.5468  0.4141  2.4477
   51DOPE   H6S 6497   2.111   6.752   3.961 -0.0350 -0.2160  0.6040
   51DOPE   C27 6498   2.324   6.784   3.940 -0.0905  0.5335  0.2904
   51DOPE   H7R 6499   2.336   6.894   3.929 -1.4579  0.5072 -2.2417
   51DOPE   H7S 6500   2.411   6.750   3.880 -0.2415  0.0277  0.3490
   51DOPE   C28 6501   2.354   6.746   4.086  0.5138  0.5357  0.0182
   51DOPE   H8R 6502   2.431   6.812   4.131 -1.7156  2.0802  1.8332
   51DOPE   H8S 6503   2.385   6.639   4.088  0.3418  0.4841 -0.0925
   51DOPE   C29 6504   2.246   6.760   4.191  0.0500  0.6674 -0.3675
   51DOPE   H9R 6505   2.162   6.693   4.168 -0.0721  0.5132  0.5091
   51DOPE  C210 6506   2.230   6.837   4.299 -0.1266 -0.4101 -0.4059
   51DOPE  H10R 6507   2.137   6.814   4.353 -0.1067 -1.8650 -0.9459
   51DOPE  C211 6508   2.322   6.938   4.357  0.1974 -0.1340 -0.2216
   51DOPE  H11R 6509   2.298   7.041   4.324 -2.7482 -1.1544 -1.6424
   51DOPE  H11S 6510   2.428   6.918   4.331  0.1346 -1.2645  0.3159
   51DOPE  C212 6511   2.304   6.929   4.511 -0.5710 -0.0718 -0.5141
   51DOPE  H12R 6512   2.199   6.935   4.547 -0.2811  0.5472  0.2401
   51DOPE  H12S 6513   2.358   7.014   4.558 -2.0482  0.4784  0.2671
   51DOPE  C213 6514   2.370   6.802   4.575 -0.3616  0.5726 -0.1241
   51DOPE  H13R 6515   2.477   6.802   4.547 -0.7409  0.0517 -1.6536
   51DOPE  H13S 6516   2.332   6.708   4.529  0.0375  0.9005 -1.1466
   51DOPE  C214 6517   2.370   6.797   4.728  0.5223 -0.4042 -0.2986
   51DOPE  H14R 6518   2.263   6.799   4.757 -0.0916 -0.2953 -2.4006
   51DOPE  H14S 6519   2.411   6.898   4.750 -0.3926  0.1125 -0.9036
   51DOPE  C215 6520   2.458   6.689   4.787 -0.5509  1.0430  0.6353
   51DOPE  H15R 6521   2.563   6.718   4.764  0.4877 -2.0901  0.9945
   51DOPE  H15S 6522   2.447   6.590   4.737 -1.7107  0.0330  2.7722
   51DOPE  C216 6523   2.429   6.665   4.937 -0.8768 -0.4452  0.7233
   51DOPE  H16R 6524   2.321   6.645   4.955 -0.6193 -2.9758 -0.0268
   51DOPE  H16S 6525   2.451   6.759   4.990  0.7905  0.6248 -1.7065
   51DOPE  C217 6526   2.501   6.546   4.997 -0.6515 -0.2835  0.1957
   51DOPE  H17R 6527   2.482   6.454   4.938  1.1054 -0.7521  0.3160
   51DOPE  H17S 6528   2.462   6.529   5.100 -0.1393  1.2172  0.6726
   51DOPE  C218 6529   2.649   6.577   5.006  0.4146  0.2624  0.9546
   51DOPE  H18R 6530   2.667   6.677   5.052 -0.6932 -0.6149  3.4712
   51DOPE  H18S 6531   2.695   6.585   4.905  3.4421  1.6601  2.3003
   51DOPE  H18T 6532   2.709   6.494   5.050 -1.4540 -0.9650  1.2870
   51DOPE   C33 6533   1.580   6.622   3.426 -0.2245  0.2629 -0.0101
   51DOPE   H3X 6534   1.511   6.570   3.356  1.4385 -4.1872  1.2450
   51DOPE   H3Y 6535   1.585   6.729   3.397 -4.5827  0.7590  0.3988
   51DOPE   C34 6536   1.514   6.614   3.557 -0.4399  0.5942  0.1532
   51DOPE   H4X 6537   1.410   6.653   3.547 -1.3412 -1.5369  0.7403
   51DOPE   H4Y 6538   1.501   6.510   3.593 -0.0713 -0.2336 -1.9502
   51DOPE   C35 6539   1.585   6.697   3.677 -0.4710 -0.1138 -0.2065
   51DOPE   H5X 6540   1.613   6.792   3.626 -0.7874  0.6385  0.9925
   51DOPE   H5Y 6541   1.676   6.646   3.715  0.8384  0.1531 -2.7226
   51DOPE   C36 6542   1.483   6.726   3.788  0.1023  0.1935 -0.0785
   51DOPE   H6X 6543   1.425   6.638   3.824 -1.8036  1.6464  0.5658
   51DOPE   H6Y 6544   1.403   6.796   3.755 -0.2826  1.4978  3.1856
   51DOPE   C37 6545   1.543   6.786   3.917  0.3460 -0.5916  0.7740
   51DOPE   H7X 6546   1.627   6.731   3.965  1.7353  1.4016  0.7700
   51DOPE   H7Y 6547   1.581   6.888   3.896  0.2955 -0.9011 -0.9796
   51DOPE   C38 6548   1.433   6.795   4.020 -0.0557  0.2871  0.0524
   51DOPE   H8X 6549   1.392   6.693   4.035  0.4933 -0.2746 -1.9164
   51DOPE   H8Y 6550   1.336   6.837   3.983 -0.3425  0.7458  1.2778
   51DOPE   C39 6551   1.455   6.869   4.154  0.0827 -0.4765 -0.0972
   51DOPE   H9X 6552   1.475   6.977   4.141  0.2636 -0.7035 -2.1547
   51DOPE  C310 6553   1.451   6.818   4.280  0.3848  0.8899 -0.7106
   51DOPE  H10X 6554   1.485   6.885   4.361  1.6806  1.5775 -1.7936
   51DOPE  C311 6555   1.436   6.674   4.327 -0.4952  0.3427 -0.4436
   51DOPE  H11X 6556   1.340   6.642   4.282  0.0160  0.1076 -1.4042
   51DOPE  H11Y 6557   1.509   6.611   4.270  0.7693 -0.0379  1.5056
   51DOPE  C312 6558   1.449   6.658   4.477  0.1601  0.4598  0.0328
   51DOPE  H12X 6559   1.371   6.706   4.540 -0.4113 -0.4265  0.0165
   51DOPE  H12Y 6560   1.546   6.701   4.511  1.3348  1.1025 -3.6451
   51DOPE  C313 6561   1.449   6.515   4.513  0.1482  0.2549  0.3933
   51DOPE  H13X 6562   1.348   6.472   4.494  0.7831 -0.6174 -1.2826
   51DOPE  H13Y 6563   1.507   6.459   4.436  0.8917  2.6487 -0.8880
   51DOPE  C314 6564   1.482   6.489   4.659 -1.1533 -0.2632  0.2500
   51DOPE  H14X 6565   1.427   6.553   4.731  1.3295  3.2302 -0.6952
   51DOPE  H14Y 6566   1.590   6.511   4.671 -0.4970 -2.1617 -1.6362
   51DOPE  C315 6567   1.477   6.340   4.703  0.6630 -0.6416 -0.0608
   51DOPE  H15X 6568   1.511   6.280   4.616 -3.3261  0.5903 -2.7736
   51DOPE  H15Y 6569   1.370   6.310   4.708 -0.2661  2.2426 -0.6493
   51DOPE  C316 6570   1.546   6.309   4.838 -0.0957  0.2563 -0.5348
   51DOPE  H16X 6571   1.525   6.381   4.919  1.4799 -0.9053  0.9694
   51DOPE  H16Y 6572   1.654   6.313   4.809  0.0378 -0.3426 -0.1222
   51DOPE  C317 6573   1.507   6.180   4.899 -0.0764 -0.0765 -0.2481
   51DOPE  H17X 6574   1.398   6.177   4.921  0.0078  3.0352  1.0410
   51DOPE  H17Y 6575   1.516   6.107   4.816 -1.6768 -1.5169  0.7535
   51DOPE  C318 6576   1.596   6.128   5.016  0.5366  0.1230  0.0003
   51DOPE  H18X 6577   1.587   6.018   5.034 -0.4066  0.5498  2.5432
   51DOPE  H18Y 6578   1.697   6.147   4.975  0.6767 -1.0428 -0.2384
   51DOPE  H18Z 6579   1.570   6.174   5.113 -0.0909 -0.3075  0.0494
   52DOPE     N 6580   1.216   3.725   3.404  0.4224  0.3133 -0.0063
   52DOPE   HN1 6581   1.142   3.653   3.397  0.6669 -0.3646  3.1208
   52DOPE   HN2 6582   1.172   3.815   3.372 -1.8172 -1.0404 -1.0102
   52DOPE   HN3 6583   1.294   3.707   3.338  0.2757  1.4057 -0.5085
   52DOPE   C12 6584   1.253   3.723   3.550 -0.5028 -0.0176  0.2522
   52DOPE  H12A 6585   1.335   3.794   3.574 -3.1243  3.2864  0.2576
   52DOPE  H12B 6586   1.293   3.624   3.580  0.5475  0.5520  0.7919
   52DOPE   C11 6587   1.145   3.781   3.638  0.6324  0.0754  0.1456
   52DOPE  H11A 6588   1.138   3.889   3.615 -0.5421  0.2640  1.2339
   52DOPE  H11B 6589   1.179   3.775   3.744 -0.9565 -3.6818  0.6000
   52DOPE     P 6590   0.947   3.651   3.721  0.1384 -0.0251 -0.3693
   52DOPE   O13 6591   1.039   3.538   3.747  0.4020 -0.7172 -0.3471
   52DOPE   O14 6592   0.808   3.634   3.690  0.0953 -0.3037 -0.2780
   52DOPE   O11 6593   0.959   3.751   3.844  0.2214 -1.2521  0.2403
   52DOPE   O12 6594   1.011   3.734   3.608 -0.2536  0.1120  0.4979
   52DOPE    C1 6595   0.864   3.860   3.860 -0.4227 -0.1173 -0.1934
   52DOPE    HA 6596   0.846   3.915   3.765 -0.1021 -2.9138 -1.9756
   52DOPE    HB 6597   0.914   3.935   3.926  0.0398 -1.5302  1.1248
   52DOPE    C2 6598   0.736   3.824   3.945 -0.1989 -0.0371 -0.2920
   52DOPE    HS 6599   0.674   3.757   3.881 -0.6568 -2.5368  2.5354
   52DOPE   O21 6600   0.669   3.939   3.992 -0.6011 -0.3559  0.5430
   52DOPE   C21 6601   0.608   4.002   3.891  0.2231  0.6890 -0.4093
   52DOPE   O22 6602   0.607   3.964   3.774 -0.1093  0.5424 -0.0841
   52DOPE   C22 6603   0.528   4.124   3.938 -0.1498 -0.2244  0.2083
   52DOPE   H2R 6604   0.457   4.152   3.858  1.4871  3.5439 -0.1242
   52DOPE   H2S 6605   0.597   4.210   3.949  0.6974 -0.9152  0.4578
   52DOPE    C3 6606   0.772   3.742   4.072  0.0801  0.0364  0.0136
   52DOPE    HX 6607   0.856   3.801   4.116  0.8464 -0.3138 -0.9318
   52DOPE    HY 6608   0.799   3.639   4.040 -2.4467 -1.2436  1.6765
   52DOPE   O31 6609   0.662   3.732   4.163  0.4923 -0.5043 -0.5303
   52DOPE   C31 6610   0.560   3.662   4.118 -0.3448  0.3717  0.3928
   52DOPE   O32 6611   0.559   3.589   4.017  0.1542  0.6245 -0.0255
   52DOPE   C32 6612   0.435   3.696   4.194 -0.5395  0.0111 -0.8196
   52DOPE   H2X 6613   0.451   3.665   4.300  1.4329  0.2117 -1.0210
   52DOPE   H2Y 6614   0.420   3.805   4.180 -1.7200 -0.0320 -0.0577
   52DOPE   C23 6615   0.435   4.096   4.059  0.2331 -0.0758 -0.3636
   52DOPE   H3R 6616   0.398   4.191   4.102 -0.2708 -0.6170  0.4221
   52DOPE   H3S 6617   0.495   4.037   4.132  2.4174 -0.9237 -2.7071
   52DOPE   C24 6618   0.312   4.010   4.018  0.1529 -0.4244  0.0342
   52DOPE   H4R 6619   0.268   3.965   4.109  0.3222  0.2898  0.4769
   52DOPE   H4S 6620   0.345   3.932   3.946  1.1944  0.1851 -0.1581
   52DOPE   C25 6621   0.205   4.100   3.951 -0.0991  0.2294  0.2877
   52DOPE   H5R 6622   0.238   4.141   3.853 -0.2947 -2.3155 -0.9247
   52DOPE   H5S 6623   0.187   4.186   4.018  0.6579  1.0782 -0.5744
   52DOPE   C26 6624   0.072   4.025   3.915  0.2500  0.0478 -0.2073
   52DOPE   H6R 6625   0.106   3.927   3.875  2.3930  0.9256 -0.6746
   52DOPE   H6S 6626   0.031   4.083   3.829  0.3051  0.3131 -0.0569
   52DOPE   C27 6627  -0.016   4.004   4.034 -0.0013  0.6174 -0.3370
   52DOPE   H7R 6628  -0.048   4.103   4.074 -2.0568  0.0826 -0.5607
   52DOPE   H7S 6629   0.030   3.941   4.113  0.8278  2.4392  0.6929
   52DOPE   C28 6630  -0.160   3.947   3.994  0.0138  0.3114  0.1750
   52DOPE   H8R 6631  -0.134   3.885   3.906  0.1347  0.0888  0.3673
   52DOPE   H8S 6632  -0.218   4.032   3.952 -0.8078  1.2304  2.9517
   52DOPE   C29 6633  -0.245   3.868   4.085  0.3667  0.5686  0.2854
   52DOPE   H9R 6634  -0.256   3.762   4.056 -0.6542  0.8462 -0.3698
   52DOPE  C210 6635  -0.296   3.903   4.199  0.2704  0.1912  0.1606
   52DOPE  H10R 6636  -0.338   3.828   4.267 -1.5461  0.8162 -0.2175
   52DOPE  C211 6637  -0.291   4.037   4.265 -0.1369 -0.4841 -1.0269
   52DOPE  H11R 6638  -0.289   4.116   4.187  1.1242  0.5048 -0.0317
   52DOPE  H11S 6639  -0.202   4.057   4.328  0.3575 -2.5127 -0.9921
   52DOPE  C212 6640  -0.420   4.068   4.350 -0.1689  0.0467 -0.0580
   52DOPE  H12R 6641  -0.506   4.022   4.297 -1.1061 -0.5250  1.8648
   52DOPE  H12S 6642  -0.430   4.179   4.351  2.3461  0.4979 -3.8364
   52DOPE  C213 6643  -0.419   4.002   4.490 -0.0863 -0.9037  0.1500
   52DOPE  H13R 6644  -0.317   4.022   4.528 -0.2895 -0.7038  0.5914
   52DOPE  H13S 6645  -0.429   3.891   4.487 -0.4311 -0.9157  1.2638
   52DOPE  C214 6646  -0.528   4.046   4.589 -0.0182 -0.5502  0.7147
   52DOPE  H14R 6647  -0.622   4.006   4.545  1.1706 -2.3490 -0.3038
   52DOPE  H14S 6648  -0.530   4.157   4.582 -4.1781 -0.4816 -0.0349
   52DOPE  C215 6649  -0.499   3.990   4.729  0.7624 -0.3634 -0.5616
   52DOPE  H15R 6650  -0.411   4.033   4.781  1.0655  2.0223 -2.8035
   52DOPE  H15S 6651  -0.473   3.883   4.718  1.0441 -0.4242  0.5705
   52DOPE  C216 6652  -0.611   4.023   4.820 -0.2197 -0.0265  0.2442
   52DOPE  H16R 6653  -0.698   3.978   4.769 -0.2058 -0.7537  0.8501
   52DOPE  H16S 6654  -0.628   4.133   4.817 -1.5019 -0.2159  0.3076
   52DOPE  C217 6655  -0.596   3.966   4.960  0.0923  0.1920  0.0143
   52DOPE  H17R 6656  -0.513   4.023   5.007 -1.6205 -0.6418  4.4646
   52DOPE  H17S 6657  -0.562   3.861   4.947  0.9559  0.6738 -1.9955
   52DOPE  C218 6658  -0.731   3.966   5.049 -0.1058  1.0448  0.2804
   52DOPE  H18R 6659  -0.797   4.046   5.009  1.5681  3.3284  1.8317
   52DOPE  H18S 6660  -0.781   3.868   5.032 -1.1134  1.9688 -2.8214
   52DOPE  H18T 6661  -0.702   3.980   5.155  0.5391 -0.8340  0.3718
   52DOPE   C33 6662   0.308   3.619   4.149 -0.1649  0.1159  0.0081
   52DOPE   H3X 6663   0.317   3.610   4.039  2.7794  2.1732 -0.0300
   52DOPE   H3Y 6664   0.227   3.690   4.178  0.6938  1.0208  0.2690
   52DOPE   C34 6665   0.300   3.476   4.196 -0.3917  0.1780 -0.1764
   52DOPE   H4X 6666   0.377   3.422   4.138  1.6231  1.5711  1.0736
   52DOPE   H4Y 6667   0.324   3.451   4.301  1.6209 -0.9671 -0.8606
   52DOPE   C35 6668   0.169   3.409   4.158 -0.3023  0.3411  0.0195
   52DOPE   H5X 6669   0.185   3.300   4.172 -0.6367  0.3989  0.9490
   52DOPE   H5Y 6670   0.145   3.434   4.053 -1.3584 -1.3927 -0.1915
   52DOPE   C36 6671   0.045   3.463   4.243 -0.1842  0.4594 -0.6797
   52DOPE   H6X 6672   0.011   3.569   4.235  0.1846  0.8049  1.6583
   52DOPE   H6Y 6673   0.082   3.444   4.346 -0.6505 -2.4668 -0.9458
   52DOPE   C37 6674  -0.085   3.371   4.227  0.6005  0.8212  0.1118
   52DOPE   H7X 6675  -0.149   3.389   4.139  1.7062  0.4009 -0.7975
   52DOPE   H7Y 6676  -0.055   3.264   4.228 -1.9983  0.0168  1.2914
   52DOPE   C38 6677  -0.168   3.401   4.351 -0.3571  0.1452 -0.2663
   52DOPE   H8X 6678  -0.185   3.509   4.372  1.4738 -0.1786  3.5603
   52DOPE   H8Y 6679  -0.112   3.379   4.444  0.1372  1.5768 -0.1968
   52DOPE   C39 6680  -0.295   3.316   4.350  0.1821  0.4856 -0.1767
   52DOPE   H9X 6681  -0.378   3.348   4.285  0.8304 -0.7455 -1.6797
   52DOPE  C310 6682  -0.307   3.194   4.410 -0.1034 -0.6655  0.0519
   52DOPE  H10X 6683  -0.401   3.139   4.391  0.8782 -1.8626 -1.5651
   52DOPE  C311 6684  -0.192   3.123   4.477  0.1196 -0.5276 -0.0619
   52DOPE  H11X 6685  -0.214   3.014   4.475  1.2550 -0.8098  1.4964
   52DOPE  H11Y 6686  -0.101   3.137   4.415  1.0373 -0.3502  1.2776
   52DOPE  C312 6687  -0.177   3.176   4.616 -0.0961  0.1090 -0.1423
   52DOPE  H12X 6688  -0.266   3.231   4.653 -1.2516 -0.2538 -2.2567
   52DOPE  H12Y 6689  -0.094   3.249   4.626 -0.7111  0.7600  0.2814
   52DOPE  C313 6690  -0.146   3.053   4.709  0.7228 -0.1904 -0.1327
   52DOPE  H13X 6691  -0.213   2.967   4.685  0.3302  0.1998 -0.4407
   52DOPE  H13Y 6692  -0.039   3.031   4.690  1.0809  0.9179  0.5329
   52DOPE  C314 6693  -0.155   3.107   4.853  0.1242 -0.3321  0.3406
   52DOPE  H14X 6694  -0.261   3.137   4.862  0.1952  0.5746 -1.3339
   52DOPE  H14Y 6695  -0.088   3.194   4.873 -1.7251  0.6282  2.9285
   52DOPE  C315 6696  -0.138   3.010   4.971  0.7269 -0.4354  0.2573
   52DOPE  H15X 6697  -0.136   3.062   5.069 -0.0930  2.0300 -0.9544
   52DOPE  H15Y 6698  -0.043   2.953   4.961  0.7344 -0.3980  0.1185
   52DOPE  C316 6699  -0.239   2.896   4.966  0.3425  0.1702 -0.1845
   52DOPE  H16X 6700  -0.218   2.829   4.879 -0.9774 -1.8588  0.9848
   52DOPE  H16Y 6701  -0.338   2.941   4.940  0.6912  0.1644 -1.6276
   52DOPE  C317 6702  -0.262   2.818   5.098 -0.2945 -0.3448  0.1270
   52DOPE  H17X 6703  -0.310   2.900   5.156  0.5205 -0.1072  0.4789
   52DOPE  H17Y 6704  -0.328   2.730   5.080 -0.7621  0.1986 -0.9270
   52DOPE  C318 6705  -0.129   2.774   5.154  0.4783 -0.1747 -0.0277
   52DOPE  H18X 6706  -0.053   2.855   5.161  0.1953  0.0038  1.1234
   52DOPE  H18Y 6707  -0.135   2.727   5.254 -2.5244 -1.6163 -0.7654
   52DOPE  H18Z 6708  -0.082   2.695   5.091 -0.5280  0.2494 -1.3823
   53DOPE     N 6709   4.980   0.186   3.393 -0.4829 -0.1669  0.4842
   53DOPE   HN1 6710   5.061   0.191   3.328 -1.7136  0.6567 -1.0641
   53DOPE   HN2 6711   4.994   0.280   3.437  0.0613  0.9908 -2.0192
   53DOPE   HN3 6712   5.005   0.117   3.467  0.7670  0.0590  0.2959
   53DOPE   C12 6713   4.851   0.172   3.325  0.2720 -1.1457 -0.7840
   53DOPE  H12A 6714   4.857   0.086   3.255  1.7148 -0.6804 -1.2540
   53DOPE  H12B 6715   4.822   0.268   3.277  0.2451  0.1724  1.7174
   53DOPE   C11 6716   4.737   0.140   3.421 -0.1487  0.9967  0.5486
   53DOPE  H11A 6717   4.722   0.224   3.492 -2.7036  1.0825  0.0085
   53DOPE  H11B 6718   4.759   0.045   3.474 -1.9799  1.3147  2.0005
   53DOPE     P 6719   4.511   0.245   3.345  0.0503 -0.1051 -0.2047
   53DOPE   O13 6720   4.412   0.210   3.240 -0.1400  0.4020  0.8762
   53DOPE   O14 6721   4.591   0.371   3.338  0.0627  0.0668 -0.0340
   53DOPE   O11 6722   4.446   0.254   3.484 -0.1739  0.0257 -0.0984
   53DOPE   O12 6723   4.616   0.122   3.345  0.4684 -0.0831  0.2202
   53DOPE    C1 6724   4.457   0.142   3.570  0.3050 -0.4257 -0.0228
   53DOPE    HA 6725   4.554   0.158   3.620  1.4371  0.3915 -2.3471
   53DOPE    HB 6726   4.457   0.043   3.520 -0.1036 -1.0122  1.1072
   53DOPE    C2 6727   4.356   0.163   3.681  0.1161  0.5708  0.4725
   53DOPE    HS 6728   4.376   0.091   3.764  1.7348 -0.3999 -0.6799
   53DOPE   O21 6729   4.219   0.146   3.638 -0.0605  0.3488 -0.8781
   53DOPE   C21 6730   4.177   0.022   3.611 -0.6778  0.4682 -0.1925
   53DOPE   O22 6731   4.244  -0.080   3.630 -0.1649 -0.2795  0.5904
   53DOPE   C22 6732   4.035   0.027   3.565 -0.1077 -0.9403 -0.1669
   53DOPE   H2R 6733   4.024   0.089   3.474 -2.4634  0.2028  0.7980
   53DOPE   H2S 6734   3.968   0.076   3.639 -2.0242 -1.9488 -1.1547
   53DOPE    C3 6735   4.370   0.294   3.758 -0.1949 -0.1186  0.4172
   53DOPE    HX 6736   4.295   0.303   3.839 -0.7023  2.9627 -0.2865
   53DOPE    HY 6737   4.337   0.370   3.685 -1.1181  0.3769  1.3227
   53DOPE   O31 6738   4.512   0.320   3.791  0.0415 -0.4828 -0.3850
   53DOPE   C31 6739   4.530   0.339   3.921 -0.5192  0.1502 -0.5310
   53DOPE   O32 6740   4.441   0.315   4.001 -0.2876  0.1184 -0.3255
   53DOPE   C32 6741   4.672   0.384   3.949  0.1892  0.3030  0.2389
   53DOPE   H2X 6742   4.684   0.471   3.881  0.4517  0.2813  0.2587
   53DOPE   H2Y 6743   4.681   0.426   4.052  0.9519 -0.3482  0.4469
   53DOPE   C23 6744   3.958  -0.102   3.530 -0.4851  0.8377  0.5714
   53DOPE   H3R 6745   4.000  -0.156   3.442 -4.6263 -0.8749 -0.6002
   53DOPE   H3S 6746   3.854  -0.076   3.502 -0.1270  0.1481 -1.6230
   53DOPE   C24 6747   3.945  -0.211   3.629  0.2972 -0.1721 -0.2599
   53DOPE   H4R 6748   3.915  -0.173   3.729  1.5019  0.4458 -0.1220
   53DOPE   H4S 6749   4.042  -0.262   3.648  0.3377 -0.8124 -2.0096
   53DOPE   C25 6750   3.837  -0.311   3.592  0.4917 -0.3746 -0.0377
   53DOPE   H5R 6751   3.736  -0.266   3.578 -0.9084 -2.8272  1.4985
   53DOPE   H5S 6752   3.816  -0.377   3.679 -2.4243 -0.2826 -0.5584
   53DOPE   C26 6753   3.874  -0.409   3.472  0.0851  0.7723 -0.6343
   53DOPE   H6R 6754   3.968  -0.466   3.491 -1.1268 -1.4875 -1.1173
   53DOPE   H6S 6755   3.893  -0.345   3.383  0.1020  2.5186  0.5754
   53DOPE   C27 6756   3.759  -0.504   3.440  0.3104  0.0267 -0.6252
   53DOPE   H7R 6757   3.782  -0.548   3.340  0.3590  0.6597 -0.8973
   53DOPE   H7S 6758   3.669  -0.439   3.432  0.8267  0.5162 -3.7154
   53DOPE   C28 6759   3.741  -0.619   3.542  0.3484 -0.6275  0.4440
   53DOPE   H8R 6760   3.655  -0.684   3.513 -0.1547  1.0619 -2.2142
   53DOPE   H8S 6761   3.717  -0.573   3.640  0.9434  0.2863  0.1704
   53DOPE   C29 6762   3.869  -0.707   3.552  0.5262  0.4785  0.2546
   53DOPE   H9R 6763   3.890  -0.766   3.461  1.1145  1.1078 -0.0235
   53DOPE  C210 6764   3.960  -0.723   3.645 -0.6672 -0.3489 -0.7609
   53DOPE  H10R 6765   4.048  -0.784   3.621 -0.4051 -0.1453 -0.3328
   53DOPE  C211 6766   3.969  -0.658   3.781 -0.5089  0.1032 -0.7569
   53DOPE  H11R 6767   3.932  -0.742   3.843  0.5471 -1.1683 -1.7997
   53DOPE  H11S 6768   3.905  -0.567   3.791 -0.8674 -0.1265 -0.9608
   53DOPE  C212 6769   4.118  -0.627   3.822  0.6590  0.6238  0.9550
   53DOPE  H12R 6770   4.164  -0.552   3.754  1.0202  0.1479  0.6682
   53DOPE  H12S 6771   4.180  -0.719   3.814  1.6563  1.3765 -0.4146
   53DOPE  C213 6772   4.139  -0.571   3.964 -0.0197 -0.3212  0.2777
   53DOPE  H13R 6773   4.247  -0.578   3.990  0.3956 -1.7587 -1.5759
   53DOPE  H13S 6774   4.075  -0.636   4.026 -0.8776 -0.7540 -1.0252
   53DOPE  C214 6775   4.090  -0.420   3.964  0.0270  1.0472 -0.1102
   53DOPE  H14R 6776   3.996  -0.425   3.904 -1.4578 -0.8384  2.1845
   53DOPE  H14S 6777   4.168  -0.359   3.915  1.5324 -0.3893  0.4137
   53DOPE  C215 6778   4.044  -0.371   4.100  0.3679  0.6190 -0.3500
   53DOPE  H15R 6779   4.125  -0.364   4.176  1.0020 -0.5210 -0.8827
   53DOPE  H15S 6780   3.968  -0.439   4.144 -0.7555  0.3522 -2.5805
   53DOPE  C216 6781   3.998  -0.229   4.075  0.3587 -0.2581  0.2920
   53DOPE  H16R 6782   3.949  -0.195   4.169  0.7671 -0.6247  0.6499
   53DOPE  H16S 6783   3.930  -0.219   3.989 -0.9929  0.1885  1.3735
   53DOPE  C217 6784   4.112  -0.128   4.064  0.3116  0.3167  0.7106
   53DOPE  H17R 6785   4.211  -0.173   4.038  0.6305  0.5745  1.4603
   53DOPE  H17S 6786   4.127  -0.082   4.164  0.6774 -0.5182  1.0526
   53DOPE  C218 6787   4.083  -0.008   3.969 -1.5246 -0.1370  0.6736
   53DOPE  H18R 6788   3.990   0.044   3.998 -0.9826  0.5881  1.1330
   53DOPE  H18S 6789   4.078  -0.039   3.862 -0.8599  1.8659  0.0164
   53DOPE  H18T 6790   4.167   0.062   3.986 -1.9767 -0.0352  2.7550
   53DOPE   C33 6791   4.781   0.279   3.924 -0.0299 -0.1453  0.1335
   53DOPE   H3X 6792   4.878   0.334   3.922  0.0384 -0.2862 -1.3150
   53DOPE   H3Y 6793   4.774   0.251   3.817 -1.8168 -0.4431  0.3081
   53DOPE   C34 6794   4.786   0.152   4.018 -0.1705  0.5550 -0.1149
   53DOPE   H4X 6795   4.705   0.083   3.986 -0.1427 -0.4166  1.7703
   53DOPE   H4Y 6796   4.885   0.103   4.002 -1.8606 -2.7387 -1.4861
   53DOPE   C35 6797   4.746   0.171   4.166 -0.3117  0.7443  0.3363
   53DOPE   H5X 6798   4.640   0.203   4.173 -0.8657 -0.7586 -0.6952
   53DOPE   H5Y 6799   4.805   0.260   4.196 -1.0762  1.4730 -0.2726
   53DOPE   C36 6800   4.768   0.048   4.255  0.6629  0.4760 -0.1321
   53DOPE   H6X 6801   4.878   0.046   4.265  0.5955  0.7485  0.7567
   53DOPE   H6Y 6802   4.732  -0.040   4.197  0.9467  0.8262 -0.8454
   53DOPE   C37 6803   4.713   0.052   4.401 -0.0349 -0.0968  0.2035
   53DOPE   H7X 6804   4.743   0.155   4.430  0.6186 -0.3764  0.5481
   53DOPE   H7Y 6805   4.605   0.039   4.380  0.2360 -0.6666 -0.9391
   53DOPE   C38 6806   4.770  -0.056   4.495  0.3262  0.4900  0.5162
   53DOPE   H8X 6807   4.761  -0.025   4.601 -1.2406  0.0235  0.5461
   53DOPE   H8Y 6808   4.881  -0.057   4.491  0.3315  0.3787  0.6758
   53DOPE   C39 6809   4.709  -0.190   4.457 -0.3985  0.0613 -0.5820
   53DOPE   H9X 6810   4.779  -0.260   4.408  1.6655 -1.0656  3.5734
   53DOPE  C310 6811   4.581  -0.221   4.483 -0.3979 -0.2336  0.0247
   53DOPE  H10X 6812   4.549  -0.325   4.468 -1.2628  0.0817 -0.4146
   53DOPE  C311 6813   4.470  -0.140   4.561 -0.7303 -0.0296  0.6141
   53DOPE  H11X 6814   4.490  -0.140   4.670  0.9458 -0.9844  0.3412
   53DOPE  H11Y 6815   4.477  -0.030   4.549  0.0391 -0.2902 -2.0378
   53DOPE  C312 6816   4.327  -0.181   4.516  0.3544  0.0350  0.6928
   53DOPE  H12X 6817   4.311  -0.291   4.518  0.1926 -0.0363 -1.8859
   53DOPE  H12Y 6818   4.304  -0.149   4.412 -1.2411 -1.9581  0.3865
   53DOPE  C313 6819   4.215  -0.104   4.593 -0.0919  0.1613  0.2596
   53DOPE  H13X 6820   4.192  -0.152   4.690 -0.2165 -1.2215 -0.4299
   53DOPE  H13Y 6821   4.243   0.004   4.592 -0.5000  0.2934 -1.9991
   53DOPE  C314 6822   4.084  -0.122   4.513 -0.5991 -0.3390  0.8517
   53DOPE  H14X 6823   4.095  -0.069   4.416 -1.4088 -0.8739  0.4537
   53DOPE  H14Y 6824   4.004  -0.074   4.575  0.3941  0.1151  1.8150
   53DOPE  C315 6825   4.050  -0.268   4.488  0.4096 -0.0707 -0.0778
   53DOPE  H15X 6826   4.070  -0.334   4.575 -1.0045 -0.7257 -0.2204
   53DOPE  H15Y 6827   4.108  -0.309   4.403  0.7328 -2.4124  1.2167
   53DOPE  C316 6828   3.895  -0.283   4.467  0.1030  0.1837 -0.7015
   53DOPE  H16X 6829   3.872  -0.220   4.378 -1.5941  1.6753  0.7369
   53DOPE  H16Y 6830   3.831  -0.232   4.542 -1.3071  0.4566 -2.0349
   53DOPE  C317 6831   3.839  -0.424   4.436 -0.0490  0.3489  1.0075
   53DOPE  H17X 6832   3.786  -0.427   4.338 -1.5691 -0.3326  1.8171
   53DOPE  H17Y 6833   3.932  -0.480   4.414  0.5452  2.2096 -1.6838
   53DOPE  C318 6834   3.759  -0.498   4.546 -0.1745  0.1643  0.7531
   53DOPE  H18X 6835   3.751  -0.604   4.513  1.4060  1.1971 -3.5469
   53DOPE  H18Y 6836   3.811  -0.471   4.641 -0.2182 -0.9316  1.1077
   53DOPE  H18Z 6837   3.660  -0.447   4.550  0.1300  0.7387  1.0229
   54DOPE     N 6838   7.413   3.055   3.307 -0.3104 -0.0468 -0.1467
   54DOPE   HN1 6839   7.507   3.099   3.320  1.5018 -3.2920 -1.2376
   54DOPE   HN2 6840   7.435   2.955   3.291  1.2093  0.1786  0.3022
   54DOPE   HN3 6841   7.375   3.095   3.219 -0.3414 -1.6152 -0.8815
   54DOPE   C12 6842   7.331   3.082   3.425  0.9082  0.6056  0.6248
   54DOPE  H12A 6843   7.235   3.028   3.411  2.3248 -1.2944 -3.4670
   54DOPE  H12B 6844   7.308   3.190   3.409 -2.0621 -0.1039 -0.6091
   54DOPE   C11 6845   7.387   3.040   3.560 -0.1428 -0.2361  0.1159
   54DOPE  H11A 6846   7.408   2.931   3.563  2.1019  0.0991 -1.0597
   54DOPE  H11B 6847   7.297   3.064   3.621 -1.0915 -0.2747 -1.2287
   54DOPE     P 6848   7.640   3.057   3.590 -0.0671 -0.1083  0.7887
   54DOPE   O13 6849   7.737   3.151   3.645 -0.1513 -0.6503 -0.2740
   54DOPE   O14 6850   7.663   3.008   3.456  0.0867 -0.3892  0.4395
   54DOPE   O11 6851   7.628   2.939   3.693  0.0521  0.3163 -0.5534
   54DOPE   O12 6852   7.499   3.123   3.599  0.2875 -0.0256 -0.6811
   54DOPE    C1 6853   7.603   2.966   3.827 -0.2266  0.1000  0.1448
   54DOPE    HA 6854   7.538   2.886   3.870 -0.8039  2.5508  4.4211
   54DOPE    HB 6855   7.539   3.057   3.831 -1.2787 -0.6314  0.2911
   54DOPE    C2 6856   7.737   2.984   3.914  0.9539 -0.0505  0.5346
   54DOPE    HS 6857   7.796   3.062   3.862  1.8385 -0.3981  0.9959
   54DOPE   O21 6858   7.811   2.863   3.912 -0.2200 -0.0827  0.3494
   54DOPE   C21 6859   7.945   2.875   3.935  0.2065  0.3011  0.9467
   54DOPE   O22 6860   8.003   2.980   3.949  0.0245 -0.2015 -0.2929
   54DOPE   C22 6861   8.009   2.728   3.918  0.3958 -0.1582 -0.0926
   54DOPE   H2R 6862   7.973   2.691   3.820  1.1590  0.5255 -0.6479
   54DOPE   H2S 6863   7.968   2.682   4.010 -0.1925  1.0252  0.2639
   54DOPE    C3 6864   7.711   3.027   4.064 -0.3109  0.5860  0.8585
   54DOPE    HX 6865   7.632   3.101   4.039 -2.6256 -2.1680 -0.6703
   54DOPE    HY 6866   7.794   3.081   4.114 -0.2885  0.2668  1.1705
   54DOPE   O31 6867   7.655   2.921   4.142  0.6277 -0.1836 -0.4287
   54DOPE   C31 6868   7.747   2.852   4.210 -0.3719  0.5372  0.0577
   54DOPE   O32 6869   7.865   2.885   4.220 -0.7463  0.4348 -0.2021
   54DOPE   C32 6870   7.689   2.730   4.274  0.5336 -0.3763  0.6494
   54DOPE   H2X 6871   7.583   2.748   4.300  0.4279 -1.5609  1.0929
   54DOPE   H2Y 6872   7.700   2.649   4.199  1.6763  0.9990 -0.7488
   54DOPE   C23 6873   8.165   2.732   3.907  0.8007 -0.0627  0.0088
   54DOPE   H3R 6874   8.181   2.821   3.842  1.7991 -0.2293  0.0096
   54DOPE   H3S 6875   8.205   2.648   3.848  2.1116  0.6444 -0.1470
   54DOPE   C24 6876   8.226   2.733   4.050  1.0460  0.0653  0.4333
   54DOPE   H4R 6877   8.177   2.809   4.115  2.1592  1.2003 -0.0063
   54DOPE   H4S 6878   8.329   2.773   4.043  0.7343  0.8092 -0.2034
   54DOPE   C25 6879   8.211   2.591   4.102  0.0238  0.0430  0.5929
   54DOPE   H5R 6880   8.312   2.547   4.108 -0.8130 -2.2406 -0.6276
   54DOPE   H5S 6881   8.151   2.531   4.029 -2.2756  2.1483  0.5962
   54DOPE   C26 6882   8.138   2.585   4.231  0.3583 -0.4160  0.2002
   54DOPE   H6R 6883   8.029   2.608   4.223  0.8349  1.5004 -1.5947
   54DOPE   H6S 6884   8.176   2.659   4.305  1.4411  1.8317 -2.4158
   54DOPE   C27 6885   8.164   2.450   4.299 -0.3441  0.4119  0.0589
   54DOPE   H7R 6886   8.140   2.372   4.224 -1.7380 -0.2670  1.1748
   54DOPE   H7S 6887   8.095   2.444   4.385  0.0068  0.4468  0.3438
   54DOPE   C28 6888   8.301   2.446   4.378  0.8891 -0.9116 -0.7863
   54DOPE   H8R 6889   8.293   2.534   4.445 -0.7973 -2.0331  0.5355
   54DOPE   H8S 6890   8.377   2.476   4.302  2.2226 -1.8335  0.1381
   54DOPE   C29 6891   8.329   2.319   4.435  0.7762  0.2742  0.2242
   54DOPE   H9R 6892   8.250   2.242   4.425  1.8617 -0.6302 -2.3979
   54DOPE  C210 6893   8.435   2.290   4.516  0.7391 -0.0125  0.3517
   54DOPE  H10R 6894   8.450   2.186   4.549  1.3460 -0.2043 -0.5070
   54DOPE  C211 6895   8.550   2.375   4.549  0.1486 -0.5705  0.4473
   54DOPE  H11R 6896   8.571   2.367   4.657  0.1280  1.5975  0.6536
   54DOPE  H11S 6897   8.527   2.481   4.527  0.6182 -0.1442  1.9488
   54DOPE  C212 6898   8.683   2.345   4.469 -0.0018  0.1796  0.8817
   54DOPE  H12R 6899   8.670   2.315   4.363 -0.6387  1.8978  0.4393
   54DOPE  H12S 6900   8.736   2.255   4.508  2.2226  0.6431 -0.8855
   54DOPE  C213 6901   8.788   2.454   4.473 -0.5464  0.5076  0.7447
   54DOPE  H13R 6902   8.761   2.544   4.413  0.8706  2.7777  3.2678
   54DOPE  H13S 6903   8.880   2.416   4.425 -1.8816 -1.1672 -0.6351
   54DOPE  C214 6904   8.816   2.519   4.613  0.4869 -0.8059 -0.2180
   54DOPE  H14R 6905   8.724   2.574   4.641  1.6921 -0.0693  2.5377
   54DOPE  H14S 6906   8.901   2.589   4.596  0.5463 -0.9036 -0.3262
   54DOPE  C215 6907   8.850   2.424   4.732 -0.4824 -0.4192  0.4670
   54DOPE  H15R 6908   8.766   2.365   4.773  1.2329 -1.3458  2.8557
   54DOPE  H15S 6909   8.860   2.496   4.816  0.6614 -1.0105  0.8586
   54DOPE  C216 6910   8.985   2.341   4.722  0.0996  0.3641 -0.1914
   54DOPE  H16R 6911   9.070   2.406   4.689  1.9716 -1.1952  1.3260
   54DOPE  H16S 6912   8.976   2.266   4.641  0.0791 -0.6173  0.6971
   54DOPE  C217 6913   9.003   2.260   4.850 -0.7355  0.1792 -0.6230
   54DOPE  H17R 6914   8.948   2.165   4.836 -1.7516  0.8598 -1.3606
   54DOPE  H17S 6915   8.958   2.310   4.939 -1.7267  1.2686 -1.7011
   54DOPE  C218 6916   9.151   2.238   4.882 -0.0461  0.2454 -0.0942
   54DOPE  H18R 6917   9.195   2.329   4.927 -0.6080 -0.5132  2.1027
   54DOPE  H18S 6918   9.206   2.229   4.786  0.7732 -0.1463  0.4034
   54DOPE  H18T 6919   9.165   2.139   4.930  0.4892 -1.3443 -3.2063
   54DOPE   C33 6920   7.770   2.691   4.393  0.5175 -0.1680 -0.5843
   54DOPE   H3X 6921   7.880   2.689   4.377  0.4472  0.6141 -1.2350
   54DOPE   H3Y 6922   7.740   2.589   4.425  4.1801 -1.6196 -1.2749
   54DOPE   C34 6923   7.744   2.786   4.513 -0.4366 -0.1811 -0.5229
   54DOPE   H4X 6924   7.797   2.880   4.489  0.5515 -0.4663  0.4591
   54DOPE   H4Y 6925   7.640   2.823   4.514  0.2668  1.9290  1.3496
   54DOPE   C35 6926   7.782   2.735   4.650 -0.6342 -1.0170 -0.4271
   54DOPE   H5X 6927   7.702   2.668   4.688 -1.0277 -0.6352 -0.5746
   54DOPE   H5Y 6928   7.779   2.823   4.717 -0.4360 -1.3785  0.0558
   54DOPE   C36 6929   7.921   2.676   4.661  0.9733 -0.7724 -0.7095
   54DOPE   H6X 6930   7.930   2.597   4.583  0.5916 -2.0921  0.5440
   54DOPE   H6Y 6931   7.932   2.628   4.761 -1.4190 -0.0162 -0.0179
   54DOPE   C37 6932   8.043   2.775   4.652 -0.4922  0.6378 -0.0353
   54DOPE   H7X 6933   8.139   2.728   4.684 -1.0830 -0.2243  0.4790
   54DOPE   H7Y 6934   8.049   2.794   4.543 -3.1407 -0.8650 -0.5232
   54DOPE   C38 6935   8.036   2.907   4.734 -0.3296 -0.1573 -0.4132
   54DOPE   H8X 6936   7.958   2.968   4.684 -0.3851 -2.1780 -2.9680
   54DOPE   H8Y 6937   8.126   2.970   4.717 -0.7753  0.3270 -1.0216
   54DOPE   C39 6938   8.010   2.893   4.885 -0.5401 -0.3154 -0.9034
   54DOPE   H9X 6939   7.907   2.864   4.910 -0.6858  1.3534  0.5734
   54DOPE  C310 6940   8.107   2.908   4.985 -0.7931  0.8209 -0.6175
   54DOPE  H10X 6941   8.078   2.912   5.091 -0.7690  0.8809 -0.6134
   54DOPE  C311 6942   8.245   2.958   4.964  0.5336 -0.4999  0.2820
   54DOPE  H11X 6943   8.306   2.956   5.056  1.2346  2.3183 -0.0346
   54DOPE  H11Y 6944   8.293   2.901   4.881 -1.1926 -3.4668  1.1467
   54DOPE  C312 6945   8.244   3.113   4.942 -1.2508 -0.2137 -0.8825
   54DOPE  H12X 6946   8.225   3.153   5.043 -0.3029 -0.6830 -0.4972
   54DOPE  H12Y 6947   8.172   3.144   4.863 -2.3497  0.6811  0.4379
   54DOPE  C313 6948   8.378   3.170   4.886 -0.1990 -0.9614 -0.3399
   54DOPE  H13X 6949   8.450   3.150   4.968 -0.4130 -1.5679 -0.2923
   54DOPE  H13Y 6950   8.404   3.120   4.791  0.3663  0.3845 -0.9233
   54DOPE  C314 6951   8.369   3.322   4.863  0.1679  0.1632 -0.5088
   54DOPE  H14X 6952   8.376   3.366   4.965  0.7432  0.2698 -0.5906
   54DOPE  H14Y 6953   8.266   3.327   4.823  1.0563  0.8591 -2.8730
   54DOPE  C315 6954   8.474   3.382   4.768 -0.0706  0.0274 -0.0892
   54DOPE  H15X 6955   8.575   3.335   4.778 -0.5200 -1.6407 -2.5061
   54DOPE  H15Y 6956   8.486   3.490   4.789 -0.3245 -0.0629  0.5383
   54DOPE  C316 6957   8.448   3.366   4.616  0.1744 -0.0472  0.2692
   54DOPE  H16X 6958   8.352   3.414   4.587  1.5860  2.6132 -0.2783
   54DOPE  H16Y 6959   8.429   3.258   4.601  0.3363 -0.3183  1.7919
   54DOPE  C317 6960   8.553   3.421   4.522  0.1160  1.4088 -0.4071
   54DOPE  H17X 6961   8.572   3.527   4.550  0.6180  1.3812 -0.6345
   54DOPE  H17Y 6962   8.646   3.366   4.548  0.1702  2.4920  1.9900
   54DOPE  C318 6963   8.531   3.422   4.368  0.0032  0.0608 -0.6503
   54DOPE  H18X 6964   8.625   3.465   4.327  1.0657 -0.7710  0.8127
   54DOPE  H18Y 6965   8.499   3.321   4.334 -0.0764 -0.8144  1.7849
   54DOPE  H18Z 6966   8.444   3.488   4.351  1.2752  2.0208  0.1383
   55DOPE     N 6967   0.634   5.027   3.323  0.0487 -0.5947  0.9315
   55DOPE   HN1 6968   0.663   5.113   3.272 -1.2197  1.5324  3.4818
   55DOPE   HN2 6969   0.537   5.041   3.360  0.3636  2.3214  0.8780
   55DOPE   HN3 6970   0.693   5.014   3.407 -0.8995 -0.5781  1.6145
   55DOPE   C12 6971   0.626   4.915   3.227 -0.5593 -0.1959  0.1441
   55DOPE  H12A 6972   0.567   4.831   3.270  0.3422 -1.3134 -0.7329
   55DOPE  H12B 6973   0.732   4.883   3.221 -0.1558  1.3235 -1.4892
   55DOPE   C11 6974   0.571   4.967   3.095 -0.2078  0.4085  0.3582
   55DOPE  H11A 6975   0.462   4.984   3.113 -0.5088 -1.2220  0.3170
   55DOPE  H11B 6976   0.590   4.886   3.021 -3.7807 -0.7196  0.4583
   55DOPE     P 6977   0.610   5.149   2.915 -0.2587 -0.1092  0.0653
   55DOPE   O13 6978   0.580   5.038   2.819  0.6050 -0.5215  0.1418
   55DOPE   O14 6979   0.720   5.241   2.877 -0.8391 -0.2646 -0.0852
   55DOPE   O11 6980   0.477   5.227   2.932 -0.1213  0.2204  0.2055
   55DOPE   O12 6981   0.639   5.086   3.055  0.2777 -0.5947 -0.1183
   55DOPE    C1 6982   0.425   5.275   3.055  0.4656 -0.1879  0.3547
   55DOPE    HA 6983   0.428   5.204   3.140 -0.3619  0.5047  0.9858
   55DOPE    HB 6984   0.316   5.283   3.036  0.4403 -0.9632  0.1283
   55DOPE    C2 6985   0.496   5.408   3.095 -0.3418  0.2462  0.5686
   55DOPE    HS 6986   0.607   5.406   3.091 -0.2062  2.4265  1.7196
   55DOPE   O21 6987   0.457   5.434   3.230  1.0226  0.1763  0.2931
   55DOPE   C21 6988   0.517   5.372   3.328  0.4745  0.2225  0.1421
   55DOPE   O22 6989   0.610   5.295   3.317  0.6394 -0.2231  0.3414
   55DOPE   C22 6990   0.454   5.406   3.461  0.2715  0.5192 -0.6062
   55DOPE   H2R 6991   0.346   5.425   3.443  0.2349  0.2440 -0.6798
   55DOPE   H2S 6992   0.503   5.498   3.502 -1.6225  0.6962  1.4793
   55DOPE    C3 6993   0.454   5.529   2.995  0.0589 -0.6894 -0.6987
   55DOPE    HX 6994   0.345   5.513   2.981  0.1648 -1.1476 -1.0269
   55DOPE    HY 6995   0.494   5.504   2.895  0.9306 -0.1206 -0.5049
   55DOPE   O31 6996   0.473   5.666   3.043  0.3887  0.3579  0.1385
   55DOPE   C31 6997   0.565   5.735   2.990  0.5398 -0.4398  0.0284
   55DOPE   O32 6998   0.646   5.701   2.901  0.4314 -0.3707 -0.2334
   55DOPE   C32 6999   0.560   5.883   3.034 -0.3663  0.1108 -0.0875
   55DOPE   H2X 7000   0.527   5.955   2.956  0.4997  1.5430  0.8424
   55DOPE   H2Y 7001   0.484   5.883   3.115  2.1075  1.9647  2.3835
   55DOPE   C23 7002   0.472   5.295   3.576  0.4850  0.3618  0.1372
   55DOPE   H3R 7003   0.581   5.273   3.588  0.9286  3.4869  4.4588
   55DOPE   H3S 7004   0.422   5.207   3.530 -2.6135  1.3559  1.3460
   55DOPE   C24 7005   0.420   5.324   3.713  0.5297  0.6572 -0.1248
   55DOPE   H4R 7006   0.312   5.350   3.703  1.3059  3.2182 -4.5853
   55DOPE   H4S 7007   0.463   5.414   3.762 -3.4716  1.9190  1.5501
   55DOPE   C25 7008   0.445   5.202   3.812 -0.0286 -0.5305  0.0994
   55DOPE   H5R 7009   0.554   5.195   3.836  0.4329 -0.2145 -1.7803
   55DOPE   H5S 7010   0.414   5.105   3.768 -0.8037  0.8860 -2.7293
   55DOPE   C26 7011   0.374   5.217   3.948 -0.1469 -0.1755  0.3843
   55DOPE   H6R 7012   0.263   5.217   3.944 -0.1335  0.8401 -0.2449
   55DOPE   H6S 7013   0.396   5.321   3.979 -0.9680 -0.0534  0.5824
   55DOPE   C27 7014   0.423   5.113   4.044  0.1559  0.7096 -0.0846
   55DOPE   H7R 7015   0.533   5.127   4.051  0.3762 -1.5032  2.5961
   55DOPE   H7S 7016   0.414   5.009   4.008 -1.1504  0.6094  0.4869
   55DOPE   C28 7017   0.360   5.116   4.185 -0.4853 -0.2191  0.1577
   55DOPE   H8R 7018   0.257   5.075   4.180 -0.5788 -0.1510  1.2748
   55DOPE   H8S 7019   0.353   5.219   4.226  1.0946  0.4212 -1.0836
   55DOPE   C29 7020   0.437   5.024   4.280  0.0915 -0.0318 -0.7608
   55DOPE   H9R 7021   0.434   4.919   4.247  0.1800  0.5123 -2.5956
   55DOPE  C210 7022   0.517   5.057   4.384  0.3615  0.0686 -0.1172
   55DOPE  H10R 7023   0.548   4.987   4.463  0.1396  0.4002  0.2694
   55DOPE  C211 7024   0.542   5.194   4.423 -0.2053  0.3088 -0.2716
   55DOPE  H11R 7025   0.492   5.266   4.355 -0.9970  2.1939  2.1610
   55DOPE  H11S 7026   0.651   5.213   4.430  0.0490 -1.3106  1.1349
   55DOPE  C212 7027   0.499   5.214   4.572 -0.7999 -0.1993 -0.1862
   55DOPE  H12R 7028   0.569   5.292   4.609 -0.1681 -1.6587  1.8540
   55DOPE  H12S 7029   0.510   5.126   4.639  0.2855  1.1154  1.4630
   55DOPE  C213 7030   0.354   5.257   4.587  0.0233 -0.6863 -1.6004
   55DOPE  H13R 7031   0.293   5.194   4.519 -1.9355 -0.8401  0.1973
   55DOPE  H13S 7032   0.352   5.364   4.557  0.7671  0.0170  0.6197
   55DOPE  C214 7033   0.303   5.247   4.728  0.2477 -0.2402 -0.3618
   55DOPE  H14R 7034   0.373   5.295   4.801  2.1439  0.3867 -2.4526
   55DOPE  H14S 7035   0.299   5.144   4.768  0.4820  0.4981  1.6988
   55DOPE  C215 7036   0.167   5.319   4.751  0.7156 -0.3073  0.2785
   55DOPE  H15R 7037   0.169   5.428   4.732 -0.3861 -0.6481 -2.1659
   55DOPE  H15S 7038   0.128   5.310   4.855  0.8676  0.1151  0.3727
   55DOPE  C216 7039   0.052   5.261   4.662 -0.1761  0.4101 -0.6079
   55DOPE  H16R 7040   0.045   5.150   4.671  0.5299  0.4393  0.3551
   55DOPE  H16S 7041   0.063   5.284   4.553  1.1751  0.5584 -0.4586
   55DOPE  C217 7042  -0.078   5.334   4.702 -0.0889 -0.3536  0.0673
   55DOPE  H17R 7043  -0.060   5.443   4.700  1.3173 -0.5510  0.8277
   55DOPE  H17S 7044  -0.104   5.308   4.807  0.3949  1.0637  0.5614
   55DOPE  C218 7045  -0.188   5.287   4.626  0.7367 -0.0069 -0.0079
   55DOPE  H18R 7046  -0.277   5.340   4.665  0.2958 -2.0530  2.0339
   55DOPE  H18S 7047  -0.204   5.179   4.645 -1.9555  0.4143  0.4445
   55DOPE  H18T 7048  -0.179   5.318   4.520  1.2847  0.7806  0.2641
   55DOPE   C33 7049   0.696   5.937   3.076  0.3022  0.1151 -0.9683
   55DOPE   H3X 7050   0.686   6.041   3.113  1.5370 -0.2687  0.5595
   55DOPE   H3Y 7051   0.768   5.928   2.991  2.1191 -0.6521  0.5883
   55DOPE   C34 7052   0.759   5.871   3.194  0.4732 -0.1967 -0.0274
   55DOPE   H4X 7053   0.772   5.764   3.165 -0.7692 -0.6120  0.8550
   55DOPE   H4Y 7054   0.856   5.923   3.210 -0.3567  1.6524 -0.6965
   55DOPE   C35 7055   0.674   5.865   3.324  1.2383 -0.5063  0.3669
   55DOPE   H5X 7056   0.574   5.818   3.318 -0.3677  2.3798  2.0239
   55DOPE   H5Y 7057   0.661   5.971   3.354  1.3716  0.4760 -2.6984
   55DOPE   C36 7058   0.738   5.789   3.445 -0.2855 -0.1110 -0.9416
   55DOPE   H6X 7059   0.835   5.840   3.468 -0.3150 -1.6574  3.5251
   55DOPE   H6Y 7060   0.742   5.683   3.412  0.2347  0.3643 -2.4996
   55DOPE   C37 7061   0.653   5.804   3.581 -0.3234  0.4407  0.2863
   55DOPE   H7X 7062   0.633   5.912   3.598 -0.3368  0.0878  2.8355
   55DOPE   H7Y 7063   0.556   5.755   3.559  0.5070 -0.2300 -2.3640
   55DOPE   C38 7064   0.721   5.735   3.697  0.3921 -1.0903 -0.2924
   55DOPE   H8X 7065   0.801   5.807   3.723  1.3960 -1.7689 -1.3833
   55DOPE   H8Y 7066   0.776   5.645   3.662 -0.3203 -1.0757 -1.5356
   55DOPE   C39 7067   0.627   5.700   3.804  0.4408  0.0481 -0.4493
   55DOPE   H9X 7068   0.563   5.620   3.765  1.7209 -0.6724 -1.1632
   55DOPE  C310 7069   0.619   5.738   3.931 -0.0865  0.0730 -0.1390
   55DOPE  H10X 7070   0.532   5.704   3.989  0.5693  1.3782  1.7270
   55DOPE  C311 7071   0.708   5.834   4.004  0.9832 -0.4951 -0.6376
   55DOPE  H11X 7072   0.761   5.776   4.083 -1.8473 -1.5780  0.6168
   55DOPE  H11Y 7073   0.788   5.880   3.943  1.0186  0.6223  0.2210
   55DOPE  C312 7074   0.630   5.958   4.045  0.8261  0.5728 -0.0762
   55DOPE  H12X 7075   0.532   5.930   4.089  0.4961  0.9447 -0.5498
   55DOPE  H12Y 7076   0.600   6.012   3.952 -0.8920  1.2797  0.8483
   55DOPE  C313 7077   0.709   6.041   4.142  0.5915 -0.1707 -0.0446
   55DOPE  H13X 7078   0.817   6.039   4.116  1.2072 -1.3513  2.2990
   55DOPE  H13Y 7079   0.671   6.145   4.138 -0.4394 -0.5311  0.1029
   55DOPE  C314 7080   0.691   5.992   4.283  0.4168 -0.1614 -0.1965
   55DOPE  H14X 7081   0.764   5.914   4.313 -1.0670 -1.1878  0.8933
   55DOPE  H14Y 7082   0.605   5.923   4.298  0.6085 -0.3615 -0.0130
   55DOPE  C315 7083   0.686   6.106   4.387  0.4391 -0.2045  0.6255
   55DOPE  H15X 7084   0.675   6.055   4.485  0.1623 -1.8367 -0.2209
   55DOPE  H15Y 7085   0.593   6.163   4.363  0.2706  0.2951  2.3170
   55DOPE  C316 7086   0.813   6.185   4.398 -0.2046 -0.5207  0.1541
   55DOPE  H16X 7087   0.841   6.236   4.303  2.9179  0.0990  1.2989
   55DOPE  H16Y 7088   0.901   6.117   4.404 -0.8334 -1.4504 -0.7844
   55DOPE  C317 7089   0.814   6.290   4.511  0.0105 -0.3488 -0.4804
   55DOPE  H17X 7090   0.914   6.339   4.503  0.3973 -1.0421  0.0044
   55DOPE  H17Y 7091   0.729   6.361   4.503  1.5306  1.7754  1.0913
   55DOPE  C318 7092   0.809   6.253   4.657 -0.5269  0.1640 -0.2552
   55DOPE  H18X 7093   0.713   6.200   4.676  0.8092 -1.6813  1.6748
   55DOPE  H18Y 7094   0.881   6.179   4.698  0.6055  2.0717  1.3471
   55DOPE  H18Z 7095   0.804   6.336   4.730 -1.4016 -0.4872  0.4423
   56DOPE     N 7096   1.372   5.074   2.847 -0.5491 -0.5107 -0.1062
   56DOPE   HN1 7097   1.452   5.010   2.866  0.6560  0.6877 -0.9577
   56DOPE   HN2 7098   1.292   5.018   2.810 -1.6148  0.4534  0.6567
   56DOPE   HN3 7099   1.389   5.136   2.766 -2.4756 -0.0792 -0.2347
   56DOPE   C12 7100   1.317   5.151   2.969  1.0364  0.3631 -0.2578
   56DOPE  H12A 7101   1.399   5.211   3.013  0.6587  1.5582 -1.1378
   56DOPE  H12B 7102   1.272   5.081   3.043  0.8516 -0.2187 -0.9120
   56DOPE   C11 7103   1.203   5.254   2.931 -0.7521  0.8977  0.2909
   56DOPE  H11A 7104   1.174   5.304   3.025  0.5842 -1.4294  2.0422
   56DOPE  H11B 7105   1.124   5.185   2.896  0.0075  0.3698 -0.4460
   56DOPE     P 7106   1.144   5.414   2.728  0.1516 -0.2697  0.0395
   56DOPE   O13 7107   1.070   5.319   2.645 -0.3379 -0.4587  0.2629
   56DOPE   O14 7108   1.210   5.512   2.639  0.0352  0.4370  0.0099
   56DOPE   O11 7109   1.035   5.492   2.822 -0.3030 -0.2629 -0.7913
   56DOPE   O12 7110   1.246   5.342   2.825  0.0983 -0.1072  0.0993
   56DOPE    C1 7111   1.060   5.629   2.854 -0.6550  0.3911 -0.4726
   56DOPE    HA 7112   0.963   5.672   2.887 -1.2110 -1.1053 -0.0590
   56DOPE    HB 7113   1.095   5.692   2.769  4.3019  0.1859  1.0984
   56DOPE    C2 7114   1.147   5.662   2.985 -0.1132  0.5480 -0.0540
   56DOPE    HS 7115   1.254   5.631   2.974 -1.1698 -3.1769 -1.2858
   56DOPE   O21 7116   1.084   5.597   3.093 -0.3426 -0.0028  0.3549
   56DOPE   C21 7117   1.156   5.549   3.191 -0.1046 -0.7496 -0.5856
   56DOPE   O22 7118   1.275   5.539   3.182 -0.2596  0.2179 -0.0505
   56DOPE   C22 7119   1.063   5.489   3.298 -0.5979  0.1734  0.0010
   56DOPE   H2R 7120   1.037   5.386   3.264  0.2471  0.0080 -0.1577
   56DOPE   H2S 7121   0.972   5.553   3.292 -1.2657 -0.5774  1.4984
   56DOPE    C3 7122   1.133   5.816   3.013  0.5450  0.4680  0.2439
   56DOPE    HX 7123   1.026   5.846   3.017  0.4310  0.1689 -0.5585
   56DOPE    HY 7124   1.178   5.857   2.921  1.1422 -1.2777 -0.2776
   56DOPE   O31 7125   1.206   5.857   3.133  0.3229 -0.2994  0.3578
   56DOPE   C31 7126   1.185   5.984   3.167  0.0910 -0.8694 -0.3918
   56DOPE   O32 7127   1.107   6.059   3.113  0.2716 -0.3711  0.3239
   56DOPE   C32 7128   1.261   6.008   3.301 -0.6796 -0.2204  0.2303
   56DOPE   H2X 7129   1.348   5.939   3.299 -0.5565 -0.0742  0.4942
   56DOPE   H2Y 7130   1.290   6.115   3.297  1.9989 -0.8693  0.5910
   56DOPE   C23 7131   1.119   5.477   3.443  0.6515 -0.2512  0.4814
   56DOPE   H3R 7132   1.221   5.432   3.449  0.8654  0.0273 -0.8766
   56DOPE   H3S 7133   1.052   5.417   3.509 -1.4252  2.2111  0.7451
   56DOPE   C24 7134   1.139   5.616   3.512 -0.1098  0.1483  0.2049
   56DOPE   H4R 7135   1.048   5.679   3.527  0.1734  0.9159 -1.1380
   56DOPE   H4S 7136   1.204   5.681   3.450  0.5932  1.1768  1.9464
   56DOPE   C25 7137   1.210   5.594   3.646 -0.6878 -0.4444 -0.1977
   56DOPE   H5R 7138   1.292   5.519   3.641  1.3370  1.5102  1.5943
   56DOPE   H5S 7139   1.135   5.550   3.716 -0.1324  0.1031  0.7556
   56DOPE   C26 7140   1.275   5.721   3.715 -0.5444  0.7104  0.0801
   56DOPE   H6R 7141   1.315   5.794   3.641 -0.0861  1.9933  1.5514
   56DOPE   H6S 7142   1.358   5.697   3.784 -0.7641  2.2242  0.9016
   56DOPE   C27 7143   1.169   5.772   3.812  0.1686  0.6876  0.3899
   56DOPE   H7R 7144   1.139   5.685   3.874  1.2922  0.6652  0.9305
   56DOPE   H7S 7145   1.079   5.804   3.755  1.4109  1.0266 -1.4730
   56DOPE   C28 7146   1.223   5.884   3.904  0.2089  0.2182 -0.4866
   56DOPE   H8R 7147   1.246   5.976   3.848 -0.8352  0.5701 -0.3536
   56DOPE   H8S 7148   1.318   5.839   3.941  0.7103 -0.2663 -2.2528
   56DOPE   C29 7149   1.121   5.916   4.013 -0.1433 -0.3148 -0.4268
   56DOPE   H9R 7150   1.022   5.942   3.973 -0.4190  0.6110  0.8165
   56DOPE  C210 7151   1.124   5.904   4.144  0.5714 -0.8601 -0.1292
   56DOPE  H10R 7152   1.032   5.939   4.191  0.4122  0.7628 -1.5638
   56DOPE  C211 7153   1.234   5.848   4.232 -0.0989  0.1016 -0.7558
   56DOPE  H11R 7154   1.327   5.821   4.177 -0.0453 -2.7163  0.5120
   56DOPE  H11S 7155   1.192   5.766   4.294 -2.4142  1.3549 -0.5591
   56DOPE  C212 7156   1.274   5.957   4.345 -0.0713  0.2300 -0.6748
   56DOPE  H12R 7157   1.192   5.968   4.419 -0.2788  3.3178 -1.2483
   56DOPE  H12S 7158   1.308   6.054   4.303  0.3999  2.0326  3.3980
   56DOPE  C213 7159   1.401   5.903   4.413  0.5456 -0.5272  0.2055
   56DOPE  H13R 7160   1.477   5.881   4.335  0.6647  0.8087 -0.0719
   56DOPE  H13S 7161   1.375   5.804   4.457 -1.6867 -0.9371 -1.8312
   56DOPE  C214 7162   1.457   6.008   4.511  0.4814 -0.8668 -0.1587
   56DOPE  H14R 7163   1.380   6.045   4.583  0.0395 -2.0676  0.0113
   56DOPE  H14S 7164   1.478   6.098   4.449  0.2148  0.5633  1.7127
   56DOPE  C215 7165   1.591   5.976   4.587 -0.2854 -0.5387 -0.5500
   56DOPE  H15R 7166   1.619   6.075   4.629  3.3842 -1.2348 -0.9616
   56DOPE  H15S 7167   1.661   5.957   4.502  0.5660  1.3456 -0.3139
   56DOPE  C216 7168   1.590   5.860   4.687 -0.1639 -0.2023  0.2261
   56DOPE  H16R 7169   1.529   5.778   4.643  1.0216 -0.9545 -0.0748
   56DOPE  H16S 7170   1.551   5.900   4.783 -0.7416 -0.3444  0.0521
   56DOPE  C217 7171   1.734   5.799   4.713  0.6946  0.2728 -0.1175
   56DOPE  H17R 7172   1.759   5.740   4.622 -3.3703 -0.1464 -1.1791
   56DOPE  H17S 7173   1.712   5.722   4.789  2.8587 -1.8048 -1.4639
   56DOPE  C218 7174   1.835   5.905   4.746  0.2944 -0.3088 -0.4145
   56DOPE  H18R 7175   1.887   5.951   4.660  1.8151  1.5035  1.3669
   56DOPE  H18S 7176   1.926   5.863   4.795  0.1710  0.0517  0.1277
   56DOPE  H18T 7177   1.792   5.984   4.810 -0.9662 -2.7740  2.0058
   56DOPE   C33 7178   1.187   5.995   3.434 -0.7599 -0.3306  0.4063
   56DOPE   H3X 7179   1.259   6.013   3.518 -1.3510  1.1831  0.6250
   56DOPE   H3Y 7180   1.136   5.897   3.444 -0.0762 -0.7125  0.1909
   56DOPE   C34 7181   1.081   6.100   3.446  0.5875 -0.2609  0.1707
   56DOPE   H4X 7182   1.128   6.197   3.417 -0.4308 -0.7313 -3.6217
   56DOPE   H4Y 7183   1.002   6.080   3.371 -0.0303  1.7843  0.2229
   56DOPE   C35 7184   1.012   6.098   3.586  0.0205  1.0763 -0.1344
   56DOPE   H5X 7185   1.082   6.136   3.663 -2.1316  0.1714  2.4314
   56DOPE   H5Y 7186   0.999   5.989   3.604  1.6670  0.5461 -1.8062
   56DOPE   C36 7187   0.880   6.181   3.577 -0.2370  0.3724  0.6661
   56DOPE   H6X 7188   0.821   6.139   3.493 -1.0103 -1.3634  2.0107
   56DOPE   H6Y 7189   0.907   6.286   3.555 -2.1034  0.9334  0.9403
   56DOPE   C37 7190   0.790   6.173   3.699  0.1707  0.0216  0.3502
   56DOPE   H7X 7191   0.775   6.064   3.716 -2.6846  0.2999 -0.0008
   56DOPE   H7Y 7192   0.845   6.214   3.786 -1.1395  0.5792  0.9342
   56DOPE   C38 7193   0.652   6.236   3.664 -0.2125 -0.6429 -0.2342
   56DOPE   H8X 7194   0.577   6.191   3.733  0.4658 -0.8365  0.3802
   56DOPE   H8Y 7195   0.619   6.196   3.565  0.8475 -3.4163  0.4503
   56DOPE   C39 7196   0.646   6.388   3.659  0.3115  0.2466  0.2029
   56DOPE   H9X 7197   0.654   6.437   3.561  0.6789 -0.0989  0.0554
   56DOPE  C310 7198   0.607   6.468   3.757 -0.0314 -0.1281  0.6993
   56DOPE  H10X 7199   0.613   6.578   3.754  2.6587 -0.2540 -1.3181
   56DOPE  C311 7200   0.570   6.407   3.893  0.6404  0.1744  0.8103
   56DOPE  H11X 7201   0.471   6.360   3.883  0.4640  0.8324 -0.9745
   56DOPE  H11Y 7202   0.638   6.322   3.915 -0.4947 -0.7108  0.9534
   56DOPE  C312 7203   0.565   6.502   4.018 -0.0994 -0.1757 -1.3577
   56DOPE  H12X 7204   0.491   6.584   4.006 -0.4556 -0.2418  0.1085
   56DOPE  H12Y 7205   0.663   6.553   4.030  0.1369 -0.9602  0.4696
   56DOPE  C313 7206   0.512   6.435   4.141  0.7139 -0.6746 -0.0527
   56DOPE  H13X 7207   0.410   6.396   4.121 -0.3080  1.2812  0.9520
   56DOPE  H13Y 7208   0.575   6.348   4.167  0.2666 -1.1451 -0.5047
   56DOPE  C314 7209   0.488   6.536   4.255  0.0390 -0.1736  0.0696
   56DOPE  H14X 7210   0.411   6.612   4.229  0.1534  1.7664  4.4644
   56DOPE  H14Y 7211   0.582   6.595   4.259 -0.4301  0.5561  0.4743
   56DOPE  C315 7212   0.458   6.479   4.393 -0.0220  0.0779 -0.0641
   56DOPE  H15X 7213   0.544   6.421   4.433  0.0267 -0.3372 -0.7601
   56DOPE  H15Y 7214   0.370   6.413   4.384 -0.0384  0.3006 -1.9026
   56DOPE  C316 7215   0.410   6.592   4.486  0.2734 -0.3575 -0.4913
   56DOPE  H16X 7216   0.322   6.631   4.432 -0.2316 -2.2456 -1.1138
   56DOPE  H16Y 7217   0.491   6.665   4.510 -2.1378  1.8240  1.4681
   56DOPE  C317 7218   0.362   6.526   4.617  0.1983 -0.5004  0.1381
   56DOPE  H17X 7219   0.311   6.603   4.678 -0.2614 -1.1310  0.5577
   56DOPE  H17Y 7220   0.294   6.439   4.607  0.8820 -0.9256 -1.1170
   56DOPE  C318 7221   0.471   6.450   4.697 -0.5855 -0.5671 -0.6087
   56DOPE  H18X 7222   0.440   6.430   4.801  1.6784 -0.2239  0.1883
   56DOPE  H18Y 7223   0.504   6.350   4.660  1.9625 -0.4348  1.0438
   56DOPE  H18Z 7224   0.567   6.506   4.704 -0.7884 -0.3488  0.5751
   57DOPE     N 7225   2.297   2.799   3.217  0.0828 -1.1303  0.4824
   57DOPE   HN1 7226   2.316   2.729   3.142  1.8085 -3.0502  2.5507
   57DOPE   HN2 7227   2.337   2.888   3.182 -2.4159 -0.1827 -0.1790
   57DOPE   HN3 7228   2.355   2.776   3.301  0.6927 -2.0776 -0.1787
   57DOPE   C12 7229   2.157   2.830   3.248 -0.3208  0.1622  0.1831
   57DOPE  H12A 7230   2.102   2.827   3.151  0.9407  0.1965 -0.5548
   57DOPE  H12B 7231   2.155   2.935   3.285 -2.3236  0.4929 -0.7427
   57DOPE   C11 7232   2.098   2.732   3.346 -0.2308  0.0181  0.7195
   57DOPE  H11A 7233   2.010   2.780   3.394 -0.3972 -0.6426  1.0958
   57DOPE  H11B 7234   2.181   2.696   3.410  1.0737 -0.4830 -1.1584
   57DOPE     P 7235   2.032   2.476   3.329 -0.0544 -0.2926  0.0189
   57DOPE   O13 7236   2.073   2.372   3.233 -0.0407 -0.1199  0.6320
   57DOPE   O14 7237   1.891   2.467   3.379 -0.2132 -0.4216  0.2861
   57DOPE   O11 7238   2.131   2.469   3.447 -0.1343 -0.4621 -0.0269
   57DOPE   O12 7239   2.055   2.620   3.272 -0.2429 -0.0569  0.2454
   57DOPE    C1 7240   2.074   2.444   3.573 -0.2875  0.0295 -0.3600
   57DOPE    HA 7241   2.038   2.339   3.563 -1.5594  0.6029 -2.4130
   57DOPE    HB 7242   1.996   2.518   3.601  1.5598  0.8764  3.0106
   57DOPE    C2 7243   2.181   2.466   3.685  0.3552  1.1025  0.0961
   57DOPE    HS 7244   2.198   2.575   3.677  1.1265  0.8659 -2.0914
   57DOPE   O21 7245   2.296   2.388   3.673  0.2196  0.4552  0.4061
   57DOPE   C21 7246   2.408   2.452   3.647  0.0560  0.4417  0.0609
   57DOPE   O22 7247   2.425   2.573   3.654 -0.2040 -0.1851  0.0890
   57DOPE   C22 7248   2.521   2.358   3.593  0.1500  0.3094 -0.2636
   57DOPE   H2R 7249   2.571   2.417   3.514  0.5531 -1.0729 -1.0809
   57DOPE   H2S 7250   2.456   2.274   3.558 -0.1159  1.2037 -2.0589
   57DOPE    C3 7251   2.129   2.420   3.821 -0.0408 -0.3735 -0.3665
   57DOPE    HX 7252   2.211   2.439   3.893  1.5442 -0.5417 -2.0497
   57DOPE    HY 7253   2.102   2.313   3.813 -1.8431 -0.1855  2.0250
   57DOPE   O31 7254   2.022   2.507   3.861  0.2262 -0.0964 -0.3288
   57DOPE   C31 7255   1.902   2.456   3.893 -0.2095  0.2422 -0.3925
   57DOPE   O32 7256   1.877   2.333   3.901 -0.7161 -0.3178 -0.7723
   57DOPE   C32 7257   1.803   2.572   3.929 -0.3405  0.3368  0.3372
   57DOPE   H2X 7258   1.856   2.669   3.923  0.7382 -0.2586 -0.1558
   57DOPE   H2Y 7259   1.733   2.580   3.843 -1.2904  1.0978  1.1673
   57DOPE   C23 7260   2.622   2.316   3.704 -0.0516 -1.2550 -0.0927
   57DOPE   H3R 7261   2.668   2.405   3.751 -0.2824 -1.9161  1.4373
   57DOPE   H3S 7262   2.696   2.256   3.646  1.2246 -1.0487  1.2689
   57DOPE   C24 7263   2.552   2.236   3.811 -1.0421 -0.3375 -0.3847
   57DOPE   H4R 7264   2.499   2.152   3.761  0.5209 -0.4548 -1.9266
   57DOPE   H4S 7265   2.485   2.298   3.874  1.1567 -0.0251  1.7737
   57DOPE   C25 7266   2.660   2.187   3.910  0.2693  0.2934 -0.0950
   57DOPE   H5R 7267   2.723   2.273   3.940 -0.6476  1.6639 -1.9018
   57DOPE   H5S 7268   2.729   2.120   3.854 -0.1430  0.2531 -0.5655
   57DOPE   C26 7269   2.600   2.123   4.042 -0.5302 -0.2740  0.6589
   57DOPE   H6R 7270   2.531   2.042   4.010  0.9078 -1.3571  0.1916
   57DOPE   H6S 7271   2.541   2.197   4.100 -0.5212 -0.6215  1.1251
   57DOPE   C27 7272   2.714   2.064   4.139 -0.0514 -0.2813 -0.4281
   57DOPE   H7R 7273   2.784   2.142   4.178 -0.8724  0.7283 -0.9232
   57DOPE   H7S 7274   2.780   2.007   4.071 -0.9455 -1.6343 -0.1828
   57DOPE   C28 7275   2.654   1.993   4.263  0.0546 -0.6061 -0.5179
   57DOPE   H8R 7276   2.734   1.951   4.327 -1.5637 -2.1239  0.6322
   57DOPE   H8S 7277   2.602   1.900   4.232  0.8101 -2.2504  2.6796
   57DOPE   C29 7278   2.558   2.076   4.344  0.1900 -0.0294 -0.4141
   57DOPE   H9R 7279   2.469   2.101   4.285  1.0890 -0.2288 -1.8977
   57DOPE  C210 7280   2.574   2.119   4.470  0.3139 -0.1790 -0.2613
   57DOPE  H10R 7281   2.488   2.167   4.518  1.6578  0.4657  1.6074
   57DOPE  C211 7282   2.692   2.102   4.562  0.0315  0.1271 -0.3801
   57DOPE  H11R 7283   2.735   2.197   4.601 -0.4098 -0.3829  1.4215
   57DOPE  H11S 7284   2.777   2.068   4.499  0.9250  1.3515  0.1253
   57DOPE  C212 7285   2.663   1.995   4.672  0.1291 -0.0421 -0.3984
   57DOPE  H12R 7286   2.762   1.980   4.721 -0.0179 -1.7070 -0.5450
   57DOPE  H12S 7287   2.647   1.892   4.632 -0.1323 -0.7241  1.3421
   57DOPE  C213 7288   2.568   2.029   4.783 -0.4304  0.8045 -0.2770
   57DOPE  H13R 7289   2.467   2.056   4.745  0.7050  4.5688 -1.0388
   57DOPE  H13S 7290   2.607   2.118   4.837  0.4109  0.2067  0.1244
   57DOPE  C214 7291   2.548   1.924   4.888  0.8167 -0.6504  0.6081
   57DOPE  H14R 7292   2.648   1.885   4.917  0.9025 -0.5640  0.4302
   57DOPE  H14S 7293   2.490   1.840   4.844  0.4327  0.2979 -0.7845
   57DOPE  C215 7294   2.496   1.970   5.022 -0.1694  0.3976 -0.3439
   57DOPE  H15R 7295   2.400   2.025   5.015  1.4180  3.2661 -1.3775
   57DOPE  H15S 7296   2.567   2.049   5.055 -0.0567  0.0042  0.3724
   57DOPE  C216 7297   2.501   1.871   5.136  0.2919 -0.6912 -0.2449
   57DOPE  H16R 7298   2.480   1.928   5.229  3.5050  0.6507 -0.2105
   57DOPE  H16S 7299   2.604   1.831   5.128  0.8136  0.7369 -1.1140
   57DOPE  C217 7300   2.401   1.762   5.125  0.1852  0.3699 -0.2757
   57DOPE  H17R 7301   2.401   1.710   5.026 -0.5910  0.9916 -0.6118
   57DOPE  H17S 7302   2.302   1.809   5.140  0.7787  1.1142  1.4572
   57DOPE  C218 7303   2.431   1.668   5.239  0.4918 -0.9328  0.1694
   57DOPE  H18R 7304   2.395   1.716   5.333  0.8325 -2.0290  0.8814
   57DOPE  H18S 7305   2.537   1.646   5.260  0.5951  0.6245  1.4714
   57DOPE  H18T 7306   2.385   1.567   5.227 -0.3075 -0.3845 -1.9364
   57DOPE   C33 7307   1.742   2.557   4.059  0.1214 -0.2206 -1.1866
   57DOPE   H3X 7308   1.810   2.539   4.145 -1.0836 -0.5459 -0.2759
   57DOPE   H3Y 7309   1.685   2.462   4.056  0.9567 -0.7534 -0.7858
   57DOPE   C34 7310   1.646   2.670   4.105 -0.2435 -0.9215 -0.5589
   57DOPE   H4X 7311   1.709   2.761   4.113  0.1788 -1.2581  0.0379
   57DOPE   H4Y 7312   1.572   2.685   4.024  0.4040 -1.7849 -1.3270
   57DOPE   C35 7313   1.574   2.655   4.238 -0.4707 -0.4296  0.9006
   57DOPE   H5X 7314   1.647   2.633   4.318  0.5656  0.0157  0.0993
   57DOPE   H5Y 7315   1.506   2.567   4.227  0.8875 -1.4030  0.0554
   57DOPE   C36 7316   1.495   2.772   4.300 -0.0643  0.5377 -0.6313
   57DOPE   H6X 7317   1.412   2.796   4.230  1.1083 -0.0871 -2.2954
   57DOPE   H6Y 7318   1.557   2.863   4.314  1.2032 -0.3386 -0.3749
   57DOPE   C37 7319   1.444   2.737   4.446 -0.5331  0.4069 -0.3297
   57DOPE   H7X 7320   1.363   2.660   4.444 -0.7927  0.6860 -0.6121
   57DOPE   H7Y 7321   1.533   2.697   4.499 -1.6028 -1.2125  0.3574
   57DOPE   C38 7322   1.373   2.854   4.519 -0.6918 -0.3660  0.0119
   57DOPE   H8X 7323   1.320   2.799   4.599  2.9521 -1.4347  1.9053
   57DOPE   H8Y 7324   1.300   2.900   4.449 -0.6129 -2.0339 -1.2177
   57DOPE   C39 7325   1.473   2.954   4.571  0.0656 -0.0098 -0.4015
   57DOPE   H9X 7326   1.525   3.021   4.502 -2.7947  1.9606 -0.8227
   57DOPE  C310 7327   1.496   2.979   4.700 -0.2923 -0.2364  0.4225
   57DOPE  H10X 7328   1.571   3.056   4.720 -2.2565  2.1450 -0.9261
   57DOPE  C311 7329   1.447   2.892   4.815  0.1488 -0.8312 -0.0955
   57DOPE  H11X 7330   1.421   2.966   4.894  0.7781 -1.7385  0.9860
   57DOPE  H11Y 7331   1.359   2.830   4.787  0.2562 -0.1465 -2.0583
   57DOPE  C312 7332   1.548   2.798   4.887  0.0332  0.2398 -0.4553
   57DOPE  H12X 7333   1.498   2.767   4.981  3.0978 -1.4088  0.7776
   57DOPE  H12Y 7334   1.644   2.848   4.912 -0.3075  0.6525  0.0389
   57DOPE  C313 7335   1.580   2.676   4.802  0.1273  0.5112 -0.2304
   57DOPE  H13X 7336   1.483   2.623   4.788 -0.4171  1.4573 -0.1790
   57DOPE  H13Y 7337   1.628   2.714   4.709  1.8416 -1.6280 -0.2947
   57DOPE  C314 7338   1.675   2.576   4.864  0.1616 -0.4717  0.4846
   57DOPE  H14X 7339   1.654   2.476   4.820 -0.7131 -1.1119  2.2394
   57DOPE  H14Y 7340   1.664   2.566   4.974  0.4421  1.2396  0.6953
   57DOPE  C315 7341   1.824   2.597   4.845  0.2933 -0.0024  0.3796
   57DOPE  H15X 7342   1.841   2.707   4.846 -2.8244  0.6257 -1.5535
   57DOPE  H15Y 7343   1.837   2.560   4.741 -1.0364 -1.0059  0.5443
   57DOPE  C316 7344   1.915   2.534   4.944  0.3161 -0.2013 -0.1413
   57DOPE  H16X 7345   2.020   2.571   4.932 -0.2017  1.1886 -0.6232
   57DOPE  H16Y 7346   1.913   2.424   4.932 -0.7214 -0.2489  0.3838
   57DOPE  C317 7347   1.885   2.568   5.094  0.2498 -0.5649 -0.3434
   57DOPE  H17X 7348   1.841   2.670   5.099 -0.9679 -1.1203  1.1261
   57DOPE  H17Y 7349   1.796   2.509   5.124  0.4376 -1.1525 -0.9345
   57DOPE  C318 7350   1.998   2.535   5.192  0.4875 -0.5820  0.3724
   57DOPE  H18X 7351   1.966   2.545   5.298 -0.5647  1.3989 -0.0791
   57DOPE  H18Y 7352   2.046   2.436   5.179  0.6494 -0.4274 -0.2354
   57DOPE  H18Z 7353   2.078   2.612   5.182  1.3235 -1.1998  1.9686
   58DOPE     N 7354   6.690   7.417   2.838  0.2205  0.7209 -0.3985
   58DOPE   HN1 7355   6.698   7.516   2.807  1.1642  0.9524  0.5261
   58DOPE   HN2 7356   6.783   7.368   2.838 -0.9279 -1.6699  1.0983
   58DOPE   HN3 7357   6.639   7.371   2.760  0.6899 -0.0901 -0.2419
   58DOPE   C12 7358   6.631   7.394   2.974 -0.4738 -0.4763 -0.0845
   58DOPE  H12A 7359   6.532   7.442   2.989 -0.3246  0.0689 -0.8446
   58DOPE  H12B 7360   6.705   7.439   3.043 -2.5243  1.3339  1.0883
   58DOPE   C11 7361   6.621   7.244   3.005  0.2316  0.0532  0.0636
   58DOPE  H11A 7362   6.587   7.233   3.110  1.3500  1.4312  0.5932
   58DOPE  H11B 7363   6.723   7.199   3.002  0.4435  0.4675  0.7035
   58DOPE     P 7364   6.379   7.190   2.933 -0.4899 -0.0678  0.0580
   58DOPE   O13 7365   6.321   7.069   2.863 -0.2022  0.2432 -0.6713
   58DOPE   O14 7366   6.346   7.321   2.888  0.1130 -0.8325 -0.2105
   58DOPE   O11 7367   6.352   7.178   3.092 -0.7078 -0.3878 -0.3406
   58DOPE   O12 7368   6.533   7.178   2.926  0.0203  0.4170 -1.1848
   58DOPE    C1 7369   6.329   7.048   3.155  0.1557  0.4035  0.1509
   58DOPE    HA 7370   6.424   6.991   3.160 -1.0435 -1.6573  0.2482
   58DOPE    HB 7371   6.257   6.986   3.099  1.7353 -1.7182  0.3539
   58DOPE    C2 7372   6.268   7.079   3.297  0.4714 -0.0184  0.7158
   58DOPE    HS 7373   6.203   7.168   3.286  1.0075  0.0897 -2.1962
   58DOPE   O21 7374   6.376   7.103   3.385  0.3569 -0.2362  0.4704
   58DOPE   C21 7375   6.355   7.188   3.478 -0.4209 -0.5251 -0.6019
   58DOPE   O22 7376   6.255   7.250   3.509  0.1699 -0.3423  0.0737
   58DOPE   C22 7377   6.482   7.209   3.554  0.8501  0.0178  0.6969
   58DOPE   H2R 7378   6.467   7.293   3.625 -1.7304 -0.1605  0.4568
   58DOPE   H2S 7379   6.556   7.241   3.477 -0.0510  2.0268  0.5937
   58DOPE    C3 7380   6.169   6.963   3.335  0.4883 -0.3108 -0.1531
   58DOPE    HX 7381   6.230   6.872   3.320 -0.7177 -1.0599 -0.6704
   58DOPE    HY 7382   6.086   6.968   3.262 -0.1516 -0.8792  0.5137
   58DOPE   O31 7383   6.116   6.980   3.464 -0.5284  0.4373 -0.2463
   58DOPE   C31 7384   6.019   7.070   3.480  0.0022  0.0792  0.1673
   58DOPE   O32 7385   5.978   7.154   3.400 -0.5092 -0.1434  0.1574
   58DOPE   C32 7386   5.967   7.044   3.623  0.0056  0.4224  0.6144
   58DOPE   H2X 7387   5.908   6.951   3.623 -2.0317  1.6553  1.0575
   58DOPE   H2Y 7388   6.053   7.033   3.693  0.2414 -0.5269  0.1875
   58DOPE   C23 7389   6.516   7.080   3.630  0.5624 -0.0141  0.4238
   58DOPE   H3R 7390   6.606   7.120   3.681  1.9785 -1.1960 -1.0373
   58DOPE   H3S 7391   6.556   7.000   3.564 -1.7540 -0.9227  0.0268
   58DOPE   C24 7392   6.410   7.039   3.732  0.3904  0.0164  0.5462
   58DOPE   H4R 7393   6.318   7.000   3.683 -0.0728  1.7719 -0.0432
   58DOPE   H4S 7394   6.379   7.129   3.790 -0.7338  1.8147 -2.6362
   58DOPE   C25 7395   6.462   6.932   3.823 -0.1152  0.4653  0.0302
   58DOPE   H5R 7396   6.555   6.970   3.870 -0.1622 -1.4332  1.7954
   58DOPE   H5S 7397   6.477   6.833   3.773 -2.3120 -0.6896  1.4914
   58DOPE   C26 7398   6.369   6.907   3.936  0.0057 -0.2566 -0.2597
   58DOPE   H6R 7399   6.272   6.880   3.889  0.4106 -1.4197 -0.4613
   58DOPE   H6S 7400   6.372   7.005   3.988  2.4585  0.8987 -2.3208
   58DOPE   C27 7401   6.427   6.797   4.030 -0.3004  0.0998 -0.5392
   58DOPE   H7R 7402   6.538   6.802   4.034 -0.0814 -0.5631 -3.2771
   58DOPE   H7S 7403   6.408   6.698   3.983  0.2554 -0.7933  1.0724
   58DOPE   C28 7404   6.368   6.796   4.167  0.7240  1.3276  0.0562
   58DOPE   H8R 7405   6.268   6.844   4.156  0.3787  0.4978 -0.4959
   58DOPE   H8S 7406   6.435   6.853   4.235  2.1388  0.4576 -0.5580
   58DOPE   C29 7407   6.350   6.657   4.233 -0.0772 -0.5636  0.1427
   58DOPE   H9R 7408   6.435   6.590   4.212  0.8447  0.7879 -0.5320
   58DOPE  C210 7409   6.247   6.615   4.317 -0.3864  0.9405 -0.6314
   58DOPE  H10R 7410   6.258   6.515   4.362  1.5972  0.0898 -2.7897
   58DOPE  C211 7411   6.134   6.698   4.365  0.0140 -0.1581 -0.0801
   58DOPE  H11R 7412   6.046   6.645   4.323 -1.2388  1.3230  0.6253
   58DOPE  H11S 7413   6.130   6.799   4.320 -0.3913 -0.1032  0.0803
   58DOPE  C212 7414   6.133   6.705   4.518 -0.5451 -0.3689 -0.0913
   58DOPE  H12R 7415   6.049   6.777   4.528 -0.4983 -0.1288 -1.2982
   58DOPE  H12S 7416   6.228   6.755   4.549  1.1196  0.2281 -5.1287
   58DOPE  C213 7417   6.112   6.574   4.599  0.1790 -0.3173 -0.1738
   58DOPE  H13R 7418   6.197   6.508   4.571 -0.6423 -0.7965 -1.6060
   58DOPE  H13S 7419   6.013   6.538   4.565  0.0984 -0.5450  0.2893
   58DOPE  C214 7420   6.097   6.596   4.752  0.8691  0.1213  0.7013
   58DOPE  H14R 7421   6.093   6.499   4.806  1.5028  0.4387  1.3602
   58DOPE  H14S 7422   5.996   6.634   4.776  0.5465 -0.0219 -0.4203
   58DOPE  C215 7423   6.203   6.689   4.817 -0.3494 -0.3468 -0.3459
   58DOPE  H15R 7424   6.164   6.721   4.916 -0.4776 -1.3101 -0.0750
   58DOPE  H15S 7425   6.232   6.782   4.763 -0.1635 -1.1341 -1.6334
   58DOPE  C216 7426   6.330   6.605   4.851  0.4590  0.4777 -0.0952
   58DOPE  H16R 7427   6.350   6.574   4.747 -0.9991 -1.3732  0.1138
   58DOPE  H16S 7428   6.317   6.513   4.912 -0.6448  1.0532  0.5842
   58DOPE  C217 7429   6.453   6.671   4.895  0.2023 -0.0056  0.2940
   58DOPE  H17R 7430   6.535   6.598   4.909 -0.4259 -0.6311  0.7449
   58DOPE  H17S 7431   6.424   6.698   4.998 -0.3469 -1.5575  0.5724
   58DOPE  C218 7432   6.498   6.784   4.808 -0.1320 -0.0572  0.3084
   58DOPE  H18R 7433   6.562   6.762   4.719  0.1106  3.1380 -0.4317
   58DOPE  H18S 7434   6.550   6.864   4.865 -0.8576  0.0238  0.8716
   58DOPE  H18T 7435   6.416   6.841   4.759  0.3571  0.5445  0.1734
   58DOPE   C33 7436   5.877   7.157   3.667  0.0377 -0.5079 -0.4819
   58DOPE   H3X 7437   5.801   7.106   3.730 -0.7208  1.7546  0.5558
   58DOPE   H3Y 7438   5.813   7.202   3.589 -1.3916  0.6139  1.2454
   58DOPE   C34 7439   5.940   7.268   3.755 -0.0415  0.5368  0.6568
   58DOPE   H4X 7440   5.988   7.208   3.835  2.7165 -1.0683 -1.9842
   58DOPE   H4Y 7441   6.020   7.303   3.687 -1.3798 -0.5917 -1.5950
   58DOPE   C35 7442   5.837   7.372   3.795  0.5242 -0.1970  0.7341
   58DOPE   H5X 7443   5.758   7.314   3.846 -1.9644 -0.0747 -2.6322
   58DOPE   H5Y 7444   5.786   7.409   3.703  1.9287  1.0789  0.4302
   58DOPE   C36 7445   5.889   7.493   3.870 -0.0796 -0.5378  0.1558
   58DOPE   H6X 7446   5.803   7.564   3.879  1.0084  0.9447 -0.6666
   58DOPE   H6Y 7447   5.972   7.538   3.812  1.2793 -3.2792 -0.1760
   58DOPE   C37 7448   5.917   7.472   4.019  0.4721 -0.1187  0.7101
   58DOPE   H7X 7449   5.822   7.424   4.051 -0.7133  1.2423 -0.6114
   58DOPE   H7Y 7450   5.999   7.407   4.056  0.3698 -0.2190  0.7588
   58DOPE   C38 7451   5.935   7.605   4.105  0.2185 -0.2034  0.2402
   58DOPE   H8X 7452   6.016   7.662   4.056 -1.4448  1.5401 -0.6331
   58DOPE   H8Y 7453   5.965   7.577   4.208 -0.2526 -1.2502  0.1150
   58DOPE   C39 7454   5.815   7.697   4.115 -0.7157 -0.5105  0.1949
   58DOPE   H9X 7455   5.812   7.760   4.025 -0.4795  0.8838  1.1329
   58DOPE  C310 7456   5.737   7.722   4.226 -0.3230 -0.4733 -0.6337
   58DOPE  H10X 7457   5.649   7.787   4.216  0.8033  1.5540  1.7192
   58DOPE  C311 7458   5.758   7.668   4.362  0.8483  0.0198 -0.4233
   58DOPE  H11X 7459   5.668   7.689   4.423  1.2447  0.7375 -0.0737
   58DOPE  H11Y 7460   5.778   7.559   4.360 -1.9375 -0.5857  0.7942
   58DOPE  C312 7461   5.874   7.735   4.439  0.4706  0.4149  0.1234
   58DOPE  H12X 7462   5.968   7.744   4.380 -0.1305  0.3493 -0.8659
   58DOPE  H12Y 7463   5.901   7.662   4.517  2.3667  1.1492  0.2225
   58DOPE  C313 7464   5.855   7.885   4.485 -0.5416  0.4936  0.0709
   58DOPE  H13X 7465   5.892   7.951   4.404  0.2853 -1.3404 -1.1049
   58DOPE  H13Y 7466   5.746   7.899   4.495 -0.5182  0.3549  0.5783
   58DOPE  C314 7467   5.937   7.917   4.602 -0.1810 -0.3315 -0.4616
   58DOPE  H14X 7468   6.042   7.887   4.584  0.2390  0.8368 -0.0554
   58DOPE  H14Y 7469   5.919   7.847   4.686  2.7703 -1.4443 -0.6439
   58DOPE  C315 7470   5.918   8.057   4.653 -0.5510 -0.3648  0.3033
   58DOPE  H15X 7471   5.813   8.068   4.688 -0.7861 -0.0158 -0.5039
   58DOPE  H15Y 7472   5.945   8.129   4.573 -0.0975 -0.1068  0.6778
   58DOPE  C316 7473   6.019   8.086   4.770  0.0378  0.4985  0.3277
   58DOPE  H16X 7474   6.124   8.074   4.735 -0.1988 -0.8608  0.0223
   58DOPE  H16Y 7475   6.007   8.007   4.847  1.3129 -0.4062 -0.3608
   58DOPE  C317 7476   6.002   8.226   4.836 -0.1710  0.4747 -0.3769
   58DOPE  H17X 7477   6.050   8.209   4.935 -1.6854 -1.0968  0.1348
   58DOPE  H17Y 7478   6.062   8.301   4.781  0.1877  1.3981  1.1926
   58DOPE  C318 7479   5.867   8.283   4.850 -0.3325  0.5423  0.7582
   58DOPE  H18X 7480   5.811   8.250   4.940  1.4560 -2.8037  0.8044
   58DOPE  H18Y 7481   5.866   8.394   4.857 -2.3114  0.7344 -1.2773
   58DOPE  H18Z 7482   5.807   8.251   4.762  2.2008 -2.4006 -0.1017
   59DOPE     N 7483   1.627   2.434   3.260  0.6692 -0.5993 -0.4974
   59DOPE   HN1 7484   1.581   2.519   3.299 -1.2229 -0.9168 -1.8544
   59DOPE   HN2 7485   1.726   2.428   3.290  0.3656 -0.3221  0.6019
   59DOPE   HN3 7486   1.636   2.440   3.156  1.2801  2.7713 -0.3579
   59DOPE   C12 7487   1.542   2.312   3.306 -0.4573  0.2282 -0.0242
   59DOPE  H12A 7488   1.476   2.279   3.223 -3.7314 -1.4103  2.9669
   59DOPE  H12B 7489   1.484   2.347   3.394  0.0126  1.0629 -0.0403
   59DOPE   C11 7490   1.644   2.201   3.335 -0.2927  0.6145 -0.1887
   59DOPE  H11A 7491   1.594   2.112   3.379  0.4810  2.0153  4.0311
   59DOPE  H11B 7492   1.717   2.243   3.407  2.1790  1.0228 -2.7569
   59DOPE     P 7493   1.666   2.083   3.097 -0.2081 -0.1493 -0.1390
   59DOPE   O13 7494   1.783   2.053   3.014 -0.4857 -0.5954  0.1027
   59DOPE   O14 7495   1.548   2.143   3.036  0.8972  0.1428 -0.0134
   59DOPE   O11 7496   1.626   1.942   3.167 -0.3669  0.5059 -0.4763
   59DOPE   O12 7497   1.720   2.167   3.220 -0.3244  0.7715 -0.0644
   59DOPE    C1 7498   1.726   1.857   3.222  0.0668 -0.7106 -0.6421
   59DOPE    HA 7499   1.783   1.912   3.300 -1.5400 -1.8160  1.4106
   59DOPE    HB 7500   1.788   1.825   3.136  2.9796 -0.4227  1.2146
   59DOPE    C2 7501   1.672   1.731   3.306 -0.0748 -0.0656 -0.3389
   59DOPE    HS 7502   1.746   1.729   3.389 -1.1395 -0.2548  0.6419
   59DOPE   O21 7503   1.676   1.614   3.218 -0.0254 -0.3312 -0.3274
   59DOPE   C21 7504   1.798   1.567   3.190 -0.3412 -0.3759 -0.5329
   59DOPE   O22 7505   1.902   1.614   3.238  0.1405  0.0586 -0.1269
   59DOPE   C22 7506   1.785   1.437   3.101 -0.1910  0.3612  0.0304
   59DOPE   H2R 7507   1.873   1.430   3.033 -0.3564 -2.3597  0.0011
   59DOPE   H2S 7508   1.688   1.437   3.047  0.5137  2.9937 -1.3871
   59DOPE    C3 7509   1.529   1.748   3.364 -0.3986 -0.3933 -0.6037
   59DOPE    HX 7510   1.454   1.752   3.281 -0.8499 -1.6454 -0.2943
   59DOPE    HY 7511   1.525   1.834   3.433  0.8513 -0.7788 -0.0292
   59DOPE   O31 7512   1.495   1.633   3.438  0.1527 -0.5078  0.0962
   59DOPE   C31 7513   1.366   1.614   3.460  0.3211 -0.4838  1.1816
   59DOPE   O32 7514   1.279   1.695   3.438  0.4072  0.1209 -0.1991
   59DOPE   C32 7515   1.350   1.490   3.532 -0.2073  0.0827 -0.7663
   59DOPE   H2X 7516   1.361   1.410   3.455 -2.5193 -1.0274 -0.0276
   59DOPE   H2Y 7517   1.428   1.492   3.611  0.9561  1.5775 -1.9001
   59DOPE   C23 7518   1.796   1.305   3.187  0.1256  0.7086  0.5290
   59DOPE   H3R 7519   1.900   1.285   3.221 -0.0123 -2.0475 -0.3906
   59DOPE   H3S 7520   1.769   1.222   3.119 -0.6522  1.8675 -0.6244
   59DOPE   C24 7521   1.696   1.299   3.300 -0.8226  0.4458  0.5053
   59DOPE   H4R 7522   1.596   1.314   3.253  0.3310  2.6252 -1.5110
   59DOPE   H4S 7523   1.694   1.384   3.372 -1.3915  0.5666  0.3518
   59DOPE   C25 7524   1.712   1.172   3.381 -0.3082  0.1319  0.0535
   59DOPE   H5R 7525   1.800   1.184   3.448 -0.7555  0.5966  0.5713
   59DOPE   H5S 7526   1.736   1.086   3.315  1.0445  0.6268 -0.1303
   59DOPE   C26 7527   1.588   1.149   3.469  0.0056  0.1264  0.0875
   59DOPE   H6R 7528   1.502   1.120   3.404  0.7537 -1.9047 -0.0849
   59DOPE   H6S 7529   1.562   1.245   3.518 -0.2566 -0.4389  1.0731
   59DOPE   C27 7530   1.636   1.046   3.576 -0.0179 -0.6328  0.2439
   59DOPE   H7R 7531   1.739   1.075   3.608  0.2451 -0.0603 -1.0198
   59DOPE   H7S 7532   1.651   0.948   3.526  0.1586  0.9105 -3.0477
   59DOPE   C28 7533   1.554   1.027   3.704 -0.2721  0.3739 -0.1343
   59DOPE   H8R 7534   1.574   1.120   3.763 -0.1081  1.4233 -1.7740
   59DOPE   H8S 7535   1.586   0.936   3.758 -0.4198  0.8029  0.7036
   59DOPE   C29 7536   1.409   1.016   3.681 -0.6195 -0.3147 -0.2493
   59DOPE   H9R 7537   1.379   1.087   3.602 -0.6380  2.1884  1.8764
   59DOPE  C210 7538   1.316   0.930   3.724  0.4014 -0.9292  0.1479
   59DOPE  H10R 7539   1.211   0.933   3.693  0.6392 -0.5703 -0.6488
   59DOPE  C211 7540   1.341   0.814   3.821 -0.1235  0.5585  0.8423
   59DOPE  H11R 7541   1.448   0.785   3.820 -0.8043 -2.4961 -1.8610
   59DOPE  H11S 7542   1.300   0.722   3.775  3.9077 -2.1480  2.0966
   59DOPE  C212 7543   1.282   0.827   3.958  0.6977 -0.7234 -0.1328
   59DOPE  H12R 7544   1.336   0.903   4.018  1.9929 -1.5283 -0.2537
   59DOPE  H12S 7545   1.311   0.735   4.014  1.8063  0.7246  1.8294
   59DOPE  C213 7546   1.123   0.846   3.965 -0.5336  0.6095  0.3591
   59DOPE  H13R 7547   1.076   0.759   3.914 -0.3132 -0.4845  1.9481
   59DOPE  H13S 7548   1.098   0.940   3.912 -0.9457  0.4622  0.2902
   59DOPE  C214 7549   1.068   0.856   4.106  0.7488 -0.1069  0.1475
   59DOPE  H14R 7550   0.962   0.887   4.099  0.8342  0.0071 -0.8488
   59DOPE  H14S 7551   1.126   0.932   4.162  0.7352  0.3298 -0.4185
   59DOPE  C215 7552   1.077   0.719   4.177  0.3448 -0.4677  0.8105
   59DOPE  H15R 7553   1.184   0.702   4.201  0.3906  0.1892  1.0960
   59DOPE  H15S 7554   1.035   0.641   4.110 -1.3460  1.3517 -0.3755
   59DOPE  C216 7555   0.997   0.722   4.307  0.6149  0.4826 -0.3301
   59DOPE  H16R 7556   0.997   0.617   4.342  0.2385 -0.7471 -3.6293
   59DOPE  H16S 7557   0.890   0.741   4.282 -0.6765 -2.7685  2.0177
   59DOPE  C217 7558   1.051   0.818   4.417  0.1753  0.1205 -0.0291
   59DOPE  H17R 7559   0.992   0.814   4.512  1.0361  0.2785  0.5180
   59DOPE  H17S 7560   1.057   0.922   4.379  0.6030 -0.6653 -2.2428
   59DOPE  C218 7561   1.193   0.782   4.459 -0.0426  0.3305 -0.0962
   59DOPE  H18R 7562   1.184   0.684   4.509 -0.4492  0.7767  0.7111
   59DOPE  H18S 7563   1.233   0.855   4.533 -2.6640  0.2235  1.5475
   59DOPE  H18T 7564   1.272   0.771   4.381  0.8199  0.4216  0.7438
   59DOPE   C33 7565   1.209   1.473   3.596 -0.4598  0.6339  0.3620
   59DOPE   H3X 7566   1.126   1.475   3.522 -0.3897 -2.4733  0.0669
   59DOPE   H3Y 7567   1.187   1.549   3.674 -1.8174 -0.7490  1.3916
   59DOPE   C34 7568   1.189   1.340   3.670 -0.1069  0.3127  0.3603
   59DOPE   H4X 7569   1.195   1.253   3.600  0.9828 -0.0518  0.8765
   59DOPE   H4Y 7570   1.281   1.327   3.731  0.4969 -1.1540 -0.7753
   59DOPE   C35 7571   1.067   1.332   3.767 -0.5508  0.3252 -0.4935
   59DOPE   H5X 7572   0.967   1.303   3.729 -0.0111 -1.1444 -0.8709
   59DOPE   H5Y 7573   1.048   1.433   3.810 -2.9649 -0.6834  0.9760
   59DOPE   C36 7574   1.090   1.233   3.886 -0.2576 -0.0469  0.5569
   59DOPE   H6X 7575   1.194   1.250   3.921  0.4664  1.7036 -2.1498
   59DOPE   H6Y 7576   1.095   1.138   3.829  0.1556  2.2747 -3.6948
   59DOPE   C37 7577   0.987   1.225   3.991  0.3131  0.1598  0.7694
   59DOPE   H7X 7578   0.885   1.238   3.950  0.6096  2.0955  0.5589
   59DOPE   H7Y 7579   0.991   1.121   4.031 -1.7280 -0.9359 -1.6082
   59DOPE   C38 7580   1.008   1.320   4.111  0.4243  0.6542 -0.1108
   59DOPE   H8X 7581   0.976   1.423   4.085  2.0962  1.1178 -0.4641
   59DOPE   H8Y 7582   1.117   1.330   4.130  0.4142 -0.5646  0.6922
   59DOPE   C39 7583   0.931   1.269   4.236  0.6285  0.2396 -0.0901
   59DOPE   H9X 7584   0.824   1.243   4.222  1.2115 -2.5248 -0.0407
   59DOPE  C310 7585   0.984   1.234   4.355  0.0046  0.8154  0.3998
   59DOPE  H10X 7586   0.924   1.211   4.444  0.0417  1.0619  0.4905
   59DOPE  C311 7587   1.124   1.249   4.403 -0.5736 -0.2327 -0.6470
   59DOPE  H11X 7588   1.135   1.184   4.493 -0.1804 -0.9557 -1.2146
   59DOPE  H11Y 7589   1.186   1.201   4.325  0.2663 -1.7887  0.8937
   59DOPE  C312 7590   1.163   1.394   4.439  0.2032  0.5792 -0.5617
   59DOPE  H12X 7591   1.166   1.464   4.353 -0.9567 -0.7628 -1.7540
   59DOPE  H12Y 7592   1.263   1.393   4.489 -0.3205 -0.0033  0.5099
   59DOPE  C313 7593   1.064   1.456   4.541  0.6158 -0.1326 -0.1206
   59DOPE  H13X 7594   0.968   1.478   4.489  0.4701  1.7216  0.8291
   59DOPE  H13Y 7595   1.050   1.390   4.629  2.8390  0.7263  0.9726
   59DOPE  C314 7596   1.116   1.594   4.588  0.0146 -0.1621 -0.3257
   59DOPE  H14X 7597   1.042   1.645   4.654  0.6217  0.4706 -0.1229
   59DOPE  H14Y 7598   1.135   1.646   4.492  1.9211  0.6480  0.4446
   59DOPE  C315 7599   1.245   1.597   4.669 -0.0173 -0.3899  0.2977
   59DOPE  H15X 7600   1.330   1.590   4.597 -0.8789 -3.0238 -0.5731
   59DOPE  H15Y 7601   1.250   1.510   4.738  2.6232 -0.4463  0.1668
   59DOPE  C316 7602   1.259   1.729   4.744  0.0876  0.4027  0.4032
   59DOPE  H16X 7603   1.181   1.741   4.822 -1.7688  1.8200 -1.5483
   59DOPE  H16Y 7604   1.242   1.814   4.675 -0.4454  1.2282  1.5216
   59DOPE  C317 7605   1.403   1.743   4.809 -0.0352  0.2139  0.0082
   59DOPE  H17X 7606   1.431   1.661   4.879 -2.5058 -1.0451 -0.3840
   59DOPE  H17Y 7607   1.470   1.738   4.721  0.6134  1.5079  0.4066
   59DOPE  C318 7608   1.419   1.886   4.869 -0.4739 -0.1981 -0.4509
   59DOPE  H18X 7609   1.376   1.959   4.797 -1.6622  0.2216  0.6450
   59DOPE  H18Y 7610   1.384   1.894   4.974 -0.7767  1.2042 -0.6482
   59DOPE  H18Z 7611   1.528   1.908   4.878 -0.2694 -1.4570  0.3576
   60DOPE     N 7612   7.257   5.426   2.723  0.8179  0.6828 -0.5249
   60DOPE   HN1 7613   7.285   5.477   2.636 -1.1148  1.3634 -0.7920
   60DOPE   HN2 7614   7.327   5.354   2.750 -1.4407 -1.0746  1.0513
   60DOPE   HN3 7615   7.170   5.376   2.696  1.2186  1.5049 -3.6966
   60DOPE   C12 7616   7.230   5.527   2.837 -0.0416 -0.2531 -0.3064
   60DOPE  H12A 7617   7.214   5.456   2.921  0.2231 -1.9901 -1.6492
   60DOPE  H12B 7618   7.139   5.583   2.807  0.2149 -0.4610 -1.5527
   60DOPE   C11 7619   7.353   5.626   2.860  0.6162  0.5329 -0.1962
   60DOPE  H11A 7620   7.444   5.577   2.902 -0.2691 -2.6179 -1.6661
   60DOPE  H11B 7621   7.329   5.694   2.945  2.7001  2.2688 -0.8980
   60DOPE     P 7622   7.309   5.835   2.713  0.0276  0.3771 -0.1651
   60DOPE   O13 7623   7.181   5.835   2.774 -0.1859  0.1448 -0.2326
   60DOPE   O14 7624   7.313   5.859   2.571 -0.0783  0.1153 -0.2588
   60DOPE   O11 7625   7.389   5.952   2.781  0.6795  0.4399 -0.0458
   60DOPE   O12 7626   7.394   5.704   2.751  0.1861 -0.7918  0.0064
   60DOPE    C1 7627   7.534   5.950   2.787  0.0842  0.8672  0.1171
   60DOPE    HA 7628   7.569   6.054   2.772  0.2107  0.6359 -1.2660
   60DOPE    HB 7629   7.580   5.885   2.709 -1.3186  0.2637 -0.2319
   60DOPE    C2 7630   7.595   5.896   2.920 -0.3697  0.3168  0.1099
   60DOPE    HS 7631   7.554   5.794   2.930  1.1260 -0.1961  1.4299
   60DOPE   O21 7632   7.547   5.979   3.027  0.3031  0.0646  0.5458
   60DOPE   C21 7633   7.515   5.925   3.137  0.5398 -0.0763 -1.2124
   60DOPE   O22 7634   7.527   5.807   3.163  0.5137 -0.2058 -0.2809
   60DOPE   C22 7635   7.481   6.047   3.232  0.1245 -0.1690 -1.2619
   60DOPE   H2R 7636   7.377   6.082   3.216  0.4184  1.3551 -0.0923
   60DOPE   H2S 7637   7.553   6.129   3.209  3.6843 -2.5043  0.5531
   60DOPE    C3 7638   7.747   5.886   2.926  0.0128 -0.9981  0.7495
   60DOPE    HX 7639   7.792   5.972   2.872 -2.5022 -0.0644 -0.0244
   60DOPE    HY 7640   7.783   5.806   2.858 -1.0766 -1.2084  0.4006
   60DOPE   O31 7641   7.814   5.871   3.052  0.7135 -0.1079  0.4391
   60DOPE   C31 7642   7.829   5.746   3.093 -0.7871  0.7629 -0.2118
   60DOPE   O32 7643   7.797   5.646   3.027 -0.4753 -0.0090 -0.3500
   60DOPE   C32 7644   7.897   5.740   3.232 -0.7561 -0.1277  0.6463
   60DOPE   H2X 7645   7.999   5.702   3.210  0.3386  3.2376 -0.7912
   60DOPE   H2Y 7646   7.904   5.839   3.281  0.8902  0.3429 -0.4397
   60DOPE   C23 7647   7.505   6.012   3.383  0.0685  0.7125 -0.6120
   60DOPE   H3R 7648   7.595   5.949   3.398  0.5793  1.3726 -0.8605
   60DOPE   H3S 7649   7.414   5.957   3.417  0.1034  0.8487 -0.3022
   60DOPE   C24 7650   7.507   6.133   3.474 -0.0462 -0.3786  0.2999
   60DOPE   H4R 7651   7.422   6.198   3.445  0.4506 -0.2348 -0.8900
   60DOPE   H4S 7652   7.600   6.189   3.450  0.0463 -0.6006  0.1417
   60DOPE   C25 7653   7.501   6.097   3.624 -0.4032 -0.5154  0.7041
   60DOPE   H5R 7654   7.590   6.033   3.640 -0.7108 -1.1936 -0.2131
   60DOPE   H5S 7655   7.408   6.039   3.642 -0.7723  0.2515  1.3333
   60DOPE   C26 7656   7.501   6.218   3.729 -0.1921 -0.1049  0.9623
   60DOPE   H6R 7657   7.449   6.308   3.690  1.7094  0.2794 -0.8611
   60DOPE   H6S 7658   7.608   6.247   3.732 -0.6015  1.6615 -0.2279
   60DOPE   C27 7659   7.449   6.181   3.872 -0.1030  0.2742  0.7058
   60DOPE   H7R 7660   7.525   6.105   3.900  1.0191  1.0197 -0.2170
   60DOPE   H7S 7661   7.348   6.137   3.857  0.6855 -1.6971  0.9291
   60DOPE   C28 7662   7.432   6.289   3.975 -0.5265  0.5684 -0.4865
   60DOPE   H8R 7663   7.348   6.354   3.945 -1.6716 -0.9983 -0.8096
   60DOPE   H8S 7664   7.521   6.355   3.987  0.9499 -1.5212  0.7851
   60DOPE   C29 7665   7.402   6.231   4.114  0.4428  0.5544 -0.0854
   60DOPE   H9R 7666   7.493   6.198   4.166  0.2546 -1.3914 -0.8916
   60DOPE  C210 7667   7.282   6.222   4.173 -0.2930  0.4757 -0.0330
   60DOPE  H10R 7668   7.272   6.193   4.279 -0.7262 -1.4012 -0.5420
   60DOPE  C211 7669   7.154   6.262   4.109  0.1277 -0.4200 -0.0298
   60DOPE  H11R 7670   7.144   6.210   4.011 -2.8232  0.1068 -0.1095
   60DOPE  H11S 7671   7.155   6.372   4.098  0.1670 -0.0139  3.1463
   60DOPE  C212 7672   7.035   6.214   4.191 -0.2344  0.1117 -0.4714
   60DOPE  H12R 7673   7.030   6.103   4.202  0.4403 -0.0582 -1.6124
   60DOPE  H12S 7674   6.943   6.240   4.135  0.0359 -0.1758 -1.0684
   60DOPE  C213 7675   7.027   6.288   4.325 -0.1662 -0.1598 -0.6496
   60DOPE  H13R 7676   7.004   6.396   4.315 -0.6071 -0.3521 -1.8581
   60DOPE  H13S 7677   7.126   6.286   4.375  0.4760  1.6674 -1.7485
   60DOPE  C214 7678   6.923   6.238   4.427 -0.0994 -0.2753  0.9585
   60DOPE  H14R 7679   6.829   6.218   4.371 -0.5560 -0.3343  1.7204
   60DOPE  H14S 7680   6.896   6.319   4.498  1.1933  2.0152 -1.0488
   60DOPE  C215 7681   6.942   6.101   4.481 -0.4011  0.4673 -0.1375
   60DOPE  H15R 7682   7.046   6.104   4.521 -0.5148  0.8373  0.1338
   60DOPE  H15S 7683   6.938   6.012   4.415  0.1461 -0.6725  1.2805
   60DOPE  C216 7684   6.853   6.078   4.605  0.1949 -0.3382 -0.3196
   60DOPE  H16R 7685   6.849   6.173   4.661  2.0149 -0.4342  0.0140
   60DOPE  H16S 7686   6.889   5.999   4.675 -0.1496 -2.2835 -2.2119
   60DOPE  C217 7687   6.709   6.032   4.575 -0.4972  0.2471  1.3269
   60DOPE  H17R 7688   6.720   5.937   4.518 -2.8347 -0.4475  1.9289
   60DOPE  H17S 7689   6.654   6.105   4.512  0.6811  0.4089  0.4413
   60DOPE  C218 7690   6.626   6.023   4.699  0.1726  0.0971  0.0120
   60DOPE  H18R 7691   6.659   6.091   4.781 -2.7349 -0.0948  1.4692
   60DOPE  H18S 7692   6.625   5.920   4.741 -2.2167 -0.6824 -1.7603
   60DOPE  H18T 7693   6.524   6.064   4.683 -0.4856 -2.2865 -2.7173
   60DOPE   C33 7694   7.821   5.642   3.319  0.0332  0.6049 -0.0243
   60DOPE   H3X 7695   7.844   5.537   3.293  0.1707  1.2711 -3.0100
   60DOPE   H3Y 7696   7.712   5.659   3.302  0.1897  1.7736  0.0457
   60DOPE   C34 7697   7.831   5.667   3.473  0.1955 -0.0418  0.8949
   60DOPE   H4X 7698   7.934   5.680   3.512  1.3258 -0.8980 -1.5976
   60DOPE   H4Y 7699   7.764   5.753   3.494 -1.5415 -1.5053  1.5757
   60DOPE   C35 7700   7.777   5.550   3.563  0.1843 -0.2514 -0.2013
   60DOPE   H5X 7701   7.865   5.489   3.591  1.5233  2.1044  1.0390
   60DOPE   H5Y 7702   7.708   5.478   3.513  3.0767 -4.3037  1.1518
   60DOPE   C36 7703   7.721   5.607   3.685 -0.2624 -1.1238 -0.3415
   60DOPE   H6X 7704   7.681   5.523   3.746  0.2872 -2.1909 -1.4202
   60DOPE   H6Y 7705   7.631   5.666   3.656  0.2996 -0.3340 -0.5144
   60DOPE   C37 7706   7.810   5.698   3.768  0.1607  0.2621  0.0346
   60DOPE   H7X 7707   7.857   5.769   3.697  0.4801 -0.6543 -0.6790
   60DOPE   H7Y 7708   7.754   5.746   3.851 -1.4308  0.0942 -0.8989
   60DOPE   C38 7709   7.928   5.627   3.838  0.0175  0.1959 -0.3870
   60DOPE   H8X 7710   7.996   5.704   3.880  1.4705 -1.2730  0.0480
   60DOPE   H8Y 7711   8.000   5.590   3.761  0.2334  1.0107 -0.5828
   60DOPE   C39 7712   7.887   5.520   3.933 -0.0753  0.8188  0.4264
   60DOPE   H9X 7713   7.834   5.432   3.892  3.6774 -2.4276  1.9186
   60DOPE  C310 7714   7.898   5.521   4.062 -0.1553  1.0967  0.6021
   60DOPE  H10X 7715   7.876   5.428   4.117 -0.4064  0.0632 -1.1894
   60DOPE  C311 7716   7.970   5.619   4.145  0.0474  0.2270  0.2599
   60DOPE  H11X 7717   8.029   5.690   4.083  2.0050 -0.3605  1.3704
   60DOPE  H11Y 7718   7.890   5.672   4.202 -1.2333 -0.3849 -0.9147
   60DOPE  C312 7719   8.066   5.544   4.237  0.7108  0.6969 -0.3185
   60DOPE  H12X 7720   8.146   5.494   4.178 -0.2581 -0.2590 -0.8584
   60DOPE  H12Y 7721   8.010   5.464   4.290  2.2963 -1.9576 -2.3579
   60DOPE  C313 7722   8.113   5.648   4.339  0.0451  0.3834  0.3657
   60DOPE  H13X 7723   8.176   5.726   4.291 -0.1683  0.8177  0.7817
   60DOPE  H13Y 7724   8.032   5.694   4.399 -0.4007  1.3457 -0.9311
   60DOPE  C314 7725   8.214   5.584   4.428 -0.0955  0.4370  0.1124
   60DOPE  H14X 7726   8.299   5.561   4.361  0.3692  2.5866 -0.0980
   60DOPE  H14Y 7727   8.167   5.486   4.454 -0.0285  0.6225  0.9429
   60DOPE  C315 7728   8.254   5.673   4.549  0.8250  0.2175 -1.1604
   60DOPE  H15X 7729   8.155   5.702   4.591  1.0770 -1.2409  0.5919
   60DOPE  H15Y 7730   8.297   5.767   4.509 -1.6300  1.4050 -1.1430
   60DOPE  C316 7731   8.332   5.611   4.664  0.3795 -0.5926 -0.1903
   60DOPE  H16X 7732   8.432   5.573   4.634  1.2847  1.2474  0.3032
   60DOPE  H16Y 7733   8.281   5.527   4.716  0.4617 -0.0790  0.7367
   60DOPE  C317 7734   8.358   5.709   4.781  0.0822 -0.3357 -0.6348
   60DOPE  H17X 7735   8.401   5.806   4.747 -2.4903  0.9254 -0.5853
   60DOPE  H17Y 7736   8.263   5.740   4.830  0.2017 -0.7096 -0.1658
   60DOPE  C318 7737   8.430   5.646   4.894 -0.1197 -0.4919 -0.2589
   60DOPE  H18X 7738   8.508   5.582   4.848  0.2950 -1.0419  1.1530
   60DOPE  H18Y 7739   8.482   5.718   4.961  0.6884  1.3271 -2.6858
   60DOPE  H18Z 7740   8.364   5.577   4.951  2.5751 -2.2616  0.9164
   6123SM     N 7741   4.174   3.451   7.777  0.0578  0.2620 -0.1786
   6123SM   C15 7742   4.254   3.427   7.897  0.6371 -0.5041 -0.4174
   6123SM  H15A 7743   4.359   3.440   7.877  0.7752 -2.5730 -1.3413
   6123SM  H15B 7744   4.221   3.334   7.942  1.2248  0.1195  1.3805
   6123SM  H15C 7745   4.233   3.498   7.975 -0.3885 -1.0638 -0.1691
   6123SM   C14 7746   4.032   3.477   7.808 -0.0903  0.2345 -0.2612
   6123SM  H14A 7747   3.970   3.479   7.719  0.8507 -1.0462 -0.9827
   6123SM  H14B 7748   4.024   3.571   7.859 -0.1935  0.3219 -0.4356
   6123SM  H14C 7749   3.996   3.406   7.881 -0.0884  0.3186 -0.1786
   6123SM   C13 7750   4.225   3.569   7.707  0.4895 -0.1495 -0.4517
   6123SM  H13A 7751   4.333   3.575   7.707  0.4264  1.1846 -0.6148
   6123SM  H13B 7752   4.184   3.654   7.760  1.3039  0.5200 -0.8708
   6123SM  H13C 7753   4.184   3.585   7.608 -3.1267 -1.2057  0.7107
   6123SM   C12 7754   4.190   3.325   7.684 -0.4749  0.7666  0.8154
   6123SM  H12A 7755   4.291   3.327   7.644 -1.0490 -0.0664 -0.7287
   6123SM  H12B 7756   4.138   3.342   7.591 -0.7791 -2.5662  0.2487
   6123SM   C11 7757   4.149   3.183   7.737  0.2403  0.8028 -0.2547
   6123SM  H11A 7758   4.206   3.175   7.831 -1.9781  1.8547  1.2578
   6123SM  H11B 7759   4.186   3.112   7.659 -0.9505  0.7095 -0.7636
   6123SM     P 7760   3.906   3.122   7.652 -0.0025 -0.2532 -0.4848
   6123SM   O13 7761   3.799   3.049   7.724 -0.3547  0.1681  0.2963
   6123SM   O14 7762   3.859   3.240   7.571  0.4185 -0.1497  0.2219
   6123SM   O11 7763   3.985   3.025   7.549 -0.4732  0.5487 -0.7410
   6123SM   O12 7764   4.010   3.168   7.761  0.5063 -0.5245 -0.6143
   6123SM   C1S 7765   3.911   2.979   7.438  0.0151 -0.2113  0.3182
   6123SM   H1S 7766   3.801   2.989   7.450  0.1023  0.5663  0.4976
   6123SM   H1T 7767   3.934   2.871   7.427  2.3049  0.3136 -0.6571
   6123SM    NF 7768   3.879   2.973   7.196 -0.4178 -0.2048 -0.0526
   6123SM   HNF 7769   3.939   2.906   7.153  1.3211  1.7854 -0.9173
   6123SM   C2S 7770   3.948   3.046   7.303  0.0320 -0.7017 -0.0194
   6123SM   H2S 7771   3.907   3.149   7.309  0.7210 -0.3153 -1.5884
   6123SM   C3S 7772   4.108   3.054   7.293 -0.3247 -0.0537  0.1908
   6123SM   H3S 7773   4.163   2.958   7.292  3.7575  2.0400  1.2812
   6123SM    O3 7774   4.171   3.126   7.399 -0.2991  0.1210 -0.2193
   6123SM   HO3 7775   4.099   3.126   7.463  0.8847 -0.6753  1.1854
   6123SM   C4S 7776   4.144   3.113   7.159 -0.0672  0.3184 -0.6309
   6123SM   H4S 7777   4.210   3.054   7.094  0.2315 -0.4886  0.3683
   6123SM   C5S 7778   4.143   3.248   7.132  0.8689  0.2728  0.4876
   6123SM   H5S 7779   4.104   3.323   7.202  0.6805  2.4216 -1.7981
   6123SM   C6S 7780   4.201   3.308   7.005  0.3747 -0.1788 -0.7899
   6123SM   H6S 7781   4.252   3.233   6.941 -1.2396 -0.1503 -2.2099
   6123SM   H6T 7782   4.266   3.394   7.033  1.4133 -1.5140  1.1027
   6123SM   C7S 7783   4.087   3.357   6.913  0.6909 -0.2363 -0.5919
   6123SM   H7S 7784   4.014   3.420   6.969  0.0142 -1.9423  0.4974
   6123SM   H7T 7785   4.029   3.269   6.878  1.1479 -0.1559 -1.5980
   6123SM   C8S 7786   4.136   3.422   6.784  0.7937 -0.2347 -0.4340
   6123SM   H8S 7787   4.223   3.362   6.750 -0.2582 -1.9978 -0.1628
   6123SM   H8T 7788   4.159   3.528   6.808 -0.1408 -0.3725  1.2038
   6123SM   C9S 7789   4.023   3.435   6.680  0.5395  0.4031 -0.5753
   6123SM   H9S 7790   3.923   3.459   6.722  0.2531 -1.5152 -0.0569
   6123SM   H9T 7791   4.023   3.329   6.647  1.0640  0.6075 -1.2619
   6123SM  C10S 7792   4.044   3.531   6.567  0.0696 -0.7848 -0.1609
   6123SM  H10S 7793   4.151   3.531   6.535  0.2326  0.7478  0.2908
   6123SM  H10T 7794   4.027   3.636   6.600  0.7604 -0.8537  0.4760
   6123SM  C11S 7795   3.945   3.489   6.451  0.1557 -0.2055  0.0964
   6123SM  H11S 7796   3.849   3.543   6.469 -0.2748 -0.5979 -0.9803
   6123SM  H11T 7797   3.919   3.382   6.437 -0.7370 -0.1994  1.4822
   6123SM  C12S 7798   3.998   3.542   6.316  0.4868  0.0859  0.0247
   6123SM  H12S 7799   4.092   3.487   6.296  0.7743  0.5355  0.1243
   6123SM  H12T 7800   4.022   3.650   6.325 -1.0314  0.6353 -1.8861
   6123SM  C13S 7801   3.892   3.523   6.204  0.0164  0.4181 -0.7416
   6123SM  H13S 7802   3.790   3.551   6.236  0.9321  1.2341  1.6647
   6123SM  H13T 7803   3.891   3.417   6.170  1.5162 -0.4411  1.6859
   6123SM  C14S 7804   3.921   3.613   6.080 -0.3100 -0.2734  0.4586
   6123SM  H14S 7805   3.989   3.565   6.006 -1.2129 -0.9837  0.0716
   6123SM  H14T 7806   3.961   3.711   6.116 -1.5138  0.3466  0.1762
   6123SM  C15S 7807   3.795   3.656   6.002 -0.0328  0.1319  0.3499
   6123SM  H15S 7808   3.808   3.740   5.931 -0.1133 -0.4466 -0.3673
   6123SM  H15T 7809   3.710   3.684   6.067  1.1858  0.9699  1.6305
   6123SM  C16S 7810   3.743   3.540   5.900 -0.2380 -0.7805 -0.3778
   6123SM  H16S 7811   3.637   3.560   5.873 -0.2359  0.8847  0.7048
   6123SM  H16T 7812   3.729   3.446   5.959 -1.8723  1.1090  2.4988
   6123SM  C17S 7813   3.825   3.529   5.773  0.8371  0.2442 -1.1152
   6123SM  H17S 7814   3.777   3.438   5.732 -0.2596 -0.1502  0.9030
   6123SM  H17T 7815   3.932   3.515   5.802  0.2808 -1.9562  0.0816
   6123SM  C18S 7816   3.803   3.644   5.681 -0.3847 -0.3567  0.2181
   6123SM  H18S 7817   3.823   3.611   5.577 -0.3461  0.3087  0.0087
   6123SM  H18T 7818   3.865   3.731   5.713 -2.6056  1.0894  0.7743
   6123SM  H18U 7819   3.697   3.676   5.672 -0.6026 -0.2892  2.3676
   6123SM   C1F 7820   3.750   2.987   7.166 -0.3642 -0.1240 -0.1880
   6123SM    OF 7821   3.684   3.059   7.237  0.7535 -0.3332 -0.4797
   6123SM   C2F 7822   3.691   2.915   7.050  0.0610 -1.0210  0.1461
   6123SM   H2F 7823   3.580   2.918   7.053  0.0017 -2.9623  1.5130
   6123SM   H2G 7824   3.718   2.808   7.055 -0.1546 -1.1462 -1.1944
   6123SM   C3F 7825   3.727   2.987   6.912 -0.4869  0.2665 -0.1397
   6123SM   H3F 7826   3.675   2.925   6.836  1.4197 -1.1014 -0.4007
   6123SM   H3G 7827   3.834   2.961   6.902 -0.3236  0.5268  0.8436
   6123SM   C4F 7828   3.691   3.135   6.903 -0.1843 -0.0558 -0.3365
   6123SM   H4F 7829   3.751   3.182   6.985 -0.4809 -3.2934  1.8897
   6123SM   H4G 7830   3.583   3.138   6.928  0.0488 -1.3960  0.9506
   6123SM   C5F 7831   3.731   3.198   6.765  0.2284 -0.5006  0.4395
   6123SM   H5F 7832   3.830   3.155   6.738  0.8121  0.8324  0.3732
   6123SM   H5G 7833   3.755   3.306   6.769 -2.4260  0.1628  0.3377
   6123SM   C6F 7834   3.628   3.174   6.650 -0.4324  0.0918 -0.1014
   6123SM   H6F 7835   3.538   3.236   6.672 -0.0914  0.7476 -0.5110
   6123SM   H6G 7836   3.598   3.069   6.632 -2.0316  0.8393 -2.2932
   6123SM   C7F 7837   3.685   3.230   6.519  0.2492 -0.1016  0.4467
   6123SM   H7F 7838   3.765   3.164   6.479 -0.3708 -0.3266 -0.4470
   6123SM   H7G 7839   3.731   3.330   6.538 -1.0981  0.6136  0.0346
   6123SM   C8F 7840   3.581   3.231   6.408 -0.7868 -0.5609 -0.3913
   6123SM   H8F 7841   3.501   3.299   6.444 -1.7021 -1.7952 -0.0111
   6123SM   H8G 7842   3.532   3.132   6.398  0.2429 -1.2655  1.2708
   6123SM   C9F 7843   3.638   3.278   6.276  0.2120  0.0642  0.4541
   6123SM   H9F 7844   3.713   3.205   6.237 -0.8474 -2.2423  2.4449
   6123SM   H9G 7845   3.690   3.376   6.283 -1.2559  1.1293 -2.1588
   6123SM  C10F 7846   3.533   3.297   6.164  0.3123 -0.2186  0.9482
   6123SM  H10F 7847   3.580   3.347   6.076 -0.0329 -0.1924  0.7754
   6123SM  H10G 7848   3.446   3.356   6.200 -0.3811 -0.6122 -0.0326
   6123SM  C11F 7849   3.474   3.163   6.112  0.6681 -0.2564  0.6220
   6123SM  H11F 7850   3.423   3.108   6.194 -1.0450  0.3054 -0.0382
   6123SM  H11G 7851   3.552   3.092   6.076  0.0875 -0.3028 -0.5827
   6123SM  C12F 7852   3.375   3.176   5.988  0.4534 -0.1461  0.0447
   6123SM  H12F 7853   3.305   3.260   6.008  1.5598  0.5414  1.2171
   6123SM  H12G 7854   3.329   3.077   5.968  0.7814 -0.3520  0.2825
   6123SM  C13F 7855   3.446   3.204   5.854  0.2987 -0.5845 -0.0451
   6123SM  H13F 7856   3.511   3.117   5.830  0.7133 -0.6044  1.1025
   6123SM  H13G 7857   3.509   3.295   5.871 -0.0183 -0.3248 -0.2524
   6123SM  C14F 7858   3.347   3.214   5.738 -0.4314  0.1815  0.1871
   6123SM  H14F 7859   3.278   3.128   5.747  0.0518 -0.0708  2.0925
   6123SM  H14G 7860   3.385   3.196   5.636 -0.8769 -2.7216  0.4539
   6123SM  C15F 7861   3.263   3.341   5.746  0.3402  0.5139  0.0889
   6123SM  H15F 7862   3.232   3.373   5.848  1.1700  0.0636  0.4865
   6123SM  H15G 7863   3.175   3.336   5.678  0.8840  1.1985 -0.6885
   6123SM  C16F 7864   3.346   3.460   5.690  0.4530 -0.5080 -0.0516
   6123SM  H16F 7865   3.431   3.471   5.762  0.6800  0.9215 -0.5055
   6123SM  H16G 7866   3.290   3.555   5.695 -1.8663 -1.7998 -0.1382
   6123SM  C17F 7867   3.412   3.441   5.554  0.2075 -0.1907 -0.3521
   6123SM  H17F 7868   3.337   3.424   5.474 -1.9278  1.0956  1.2870
   6123SM  H17G 7869   3.475   3.350   5.563  1.2201  0.5509  0.2312
   6123SM  C18F 7870   3.491   3.571   5.516  0.3899 -0.2431  0.3218
   6123SM  H18F 7871   3.577   3.565   5.586  1.0114 -3.4510 -0.5604
   6123SM  H18G 7872   3.431   3.662   5.536 -1.5608 -1.4558  0.3256
   6123SM  C19F 7873   3.540   3.568   5.373 -0.1066  0.1641 -0.4130
   6123SM  H19F 7874   3.598   3.476   5.350 -0.1465 -0.1028  0.5296
   6123SM  H19G 7875   3.621   3.644   5.365 -0.9850  0.9963 -1.7738
   6123SM  C20F 7876   3.432   3.599   5.266 -0.3345  0.0418  0.0514
   6123SM  H20F 7877   3.378   3.695   5.282  0.8294  0.6604  0.4504
   6123SM  H20G 7878   3.364   3.512   5.258 -0.3557  0.1682 -1.5035
   6123SM  C21F 7879   3.496   3.613   5.120 -0.0152  0.4708  0.4742
   6123SM  H21F 7880   3.546   3.516   5.100 -1.0045 -0.0123  0.3128
   6123SM  H21G 7881   3.573   3.693   5.122  0.0655  0.4592 -0.9983
   6123SM  C22F 7882   3.399   3.651   5.004  0.5223  0.9920 -0.0167
   6123SM  H22F 7883   3.315   3.578   5.012 -1.1890  2.9864  1.4466
   6123SM  H22G 7884   3.444   3.636   4.904  2.8258  0.6251  1.0026
   6123SM  C23F 7885   3.349   3.787   5.013  0.2422  0.3624  0.0312
   6123SM  H23F 7886   3.322   3.809   5.118 -2.8636 -1.0031 -0.3662
   6123SM  H23G 7887   3.258   3.805   4.952 -0.1180 -0.2056  0.3907
   6123SM  H23H 7888   3.429   3.856   4.979 -0.5581  1.4118  0.2345
   6223SM     N 7889   4.052   2.829   7.906 -0.9358 -0.0590  0.0301
   6223SM   C15 7890   3.972   2.709   7.929 -0.1521 -0.5199 -0.5017
   6223SM  H15A 7891   3.877   2.719   7.878  0.1078 -1.2088 -1.1411
   6223SM  H15B 7892   3.954   2.694   8.034  0.2262  0.5228 -0.2800
   6223SM  H15C 7893   4.020   2.624   7.882  0.9138 -0.1590 -0.0883
   6223SM   C14 7894   3.977   2.943   7.961 -0.5867 -0.5843 -0.0912
   6223SM  H14A 7895   4.035   3.034   7.948  0.7031 -0.9147  2.6770
   6223SM  H14B 7896   3.942   2.937   8.062 -2.3248  0.9534 -0.5428
   6223SM  H14C 7897   3.889   2.961   7.901  0.3514 -0.5370 -1.5137
   6223SM   C13 7898   4.182   2.817   7.977 -0.2822  0.0198 -0.0144
   6223SM  H13A 7899   4.165   2.782   8.077  0.0465  0.0977  0.0701
   6223SM  H13B 7900   4.224   2.917   7.978 -0.4026  0.2890 -3.8948
   6223SM  H13C 7901   4.250   2.753   7.922 -2.4445 -0.8959 -1.7632
   6223SM   C12 7902   4.079   2.851   7.760 -0.1881 -0.0483 -0.3869
   6223SM  H12A 7903   4.142   2.937   7.746 -0.1594 -0.3861 -2.7694
   6223SM  H12B 7904   3.986   2.871   7.709 -0.0608  0.5704 -0.3799
   6223SM   C11 7905   4.146   2.734   7.677 -0.2644  0.2494 -0.9119
   6223SM  H11A 7906   4.129   2.758   7.570  0.1393  2.5784 -0.5141
   6223SM  H11B 7907   4.114   2.629   7.692  2.0387 -0.4314 -0.2484
   6223SM     P 7908   4.380   2.627   7.625 -0.6002  0.5003  0.1408
   6223SM   O13 7909   4.515   2.616   7.691  0.0562 -0.7359 -0.0738
   6223SM   O14 7910   4.315   2.494   7.622 -0.0396 -0.1050  0.0990
   6223SM   O11 7911   4.382   2.690   7.491 -0.1924  0.3209  0.0090
   6223SM   O12 7912   4.289   2.728   7.707  0.1897 -0.2715  0.2574
   6223SM   C1S 7913   4.320   2.625   7.380 -0.1164 -0.0720 -0.7130
   6223SM   H1S 7914   4.210   2.616   7.392 -0.3657  2.3659 -0.6202
   6223SM   H1T 7915   4.367   2.525   7.369 -0.1497 -0.2404  0.5681
   6223SM    NF 7916   4.276   2.650   7.134 -0.2815 -0.0587 -0.0568
   6223SM   HNF 7917   4.323   2.597   7.064  0.3184  2.0352 -1.3461
   6223SM   C2S 7918   4.346   2.714   7.251 -0.1749  1.1538 -0.0402
   6223SM   H2S 7919   4.315   2.814   7.288  2.2575  0.9715  2.8530
   6223SM   C3S 7920   4.496   2.734   7.225 -0.3381 -0.1324  0.7706
   6223SM   H3S 7921   4.532   2.635   7.188 -2.3568 -0.0181 -1.8327
   6223SM    O3 7922   4.577   2.770   7.336 -0.2986  0.0823  0.1584
   6223SM   HO3 7923   4.514   2.763   7.409 -0.4198 -0.6166 -0.0084
   6223SM   C4S 7924   4.506   2.837   7.112 -0.0716  0.1455  0.2231
   6223SM   H4S 7925   4.517   2.783   7.017 -2.7406  1.3199 -0.8427
   6223SM   C5S 7926   4.505   2.968   7.120 -0.6347  0.0175 -0.8240
   6223SM   H5S 7927   4.486   3.021   7.215  1.5062  1.1288 -0.9630
   6223SM   C6S 7928   4.506   3.064   7.009 -0.1012  0.6955  0.0556
   6223SM   H6S 7929   4.611   3.098   7.004  0.0059  0.2633 -0.6832
   6223SM   H6T 7930   4.446   3.156   7.028 -1.6755 -0.1777 -0.5341
   6223SM   C7S 7931   4.479   3.013   6.871  0.0468  0.1850 -0.0983
   6223SM   H7S 7932   4.379   2.969   6.853  0.0734  0.3904 -0.7590
   6223SM   H7T 7933   4.550   2.931   6.849  0.3995  0.6539 -0.7389
   6223SM   C8S 7934   4.488   3.124   6.770 -0.3964  0.2727  0.0741
   6223SM   H8S 7935   4.572   3.190   6.803 -0.4613 -0.0791  0.9542
   6223SM   H8T 7936   4.398   3.188   6.777 -0.9267 -0.5127  0.4968
   6223SM   C9S 7937   4.510   3.077   6.633  0.4095  0.6849  0.0096
   6223SM   H9S 7938   4.429   3.002   6.624  0.6039  0.5019 -0.2298
   6223SM   H9T 7939   4.602   3.016   6.619  1.7682  2.6358  0.0638
   6223SM  C10S 7940   4.501   3.191   6.532 -0.0909 -0.7213  0.0313
   6223SM  H10S 7941   4.593   3.248   6.554  0.0186 -0.7196 -0.4178
   6223SM  H10T 7942   4.409   3.252   6.541  1.1956  1.1353  1.0650
   6223SM  C11S 7943   4.512   3.139   6.390  0.5014  0.0981  0.6826
   6223SM  H11S 7944   4.454   3.046   6.372 -0.7971  0.8974  0.5749
   6223SM  H11T 7945   4.617   3.110   6.368  0.6802  1.6625 -0.8211
   6223SM  C12S 7946   4.464   3.246   6.285  0.5594 -0.2413  0.1886
   6223SM  H12S 7947   4.515   3.344   6.279  0.0725  0.0292  0.4349
   6223SM  H12T 7948   4.365   3.267   6.330  0.4950  0.9818 -0.5032
   6223SM  C13S 7949   4.452   3.186   6.138 -0.0916 -0.7570  0.0447
   6223SM  H13S 7950   4.417   3.274   6.081 -0.8514  0.0490  1.6941
   6223SM  H13T 7951   4.375   3.106   6.133 -0.6237 -0.2553  0.2247
   6223SM  C14S 7952   4.586   3.139   6.079  0.2270  0.0338 -0.4919
   6223SM  H14S 7953   4.592   3.029   6.089  2.1965  0.2175  0.7354
   6223SM  H14T 7954   4.665   3.191   6.136  0.1360  1.3956 -1.5387
   6223SM  C15S 7955   4.602   3.195   5.931  0.2958 -1.2162  0.2030
   6223SM  H15S 7956   4.589   3.305   5.922  1.0171 -0.9841  1.6598
   6223SM  H15T 7957   4.525   3.162   5.858  0.3139 -1.3041  0.2239
   6223SM  C16S 7958   4.743   3.161   5.877 -0.4749 -0.7179 -0.3652
   6223SM  H16S 7959   4.756   3.053   5.857 -2.8933 -1.7008  2.5781
   6223SM  H16T 7960   4.825   3.177   5.950 -1.0461 -0.4745  0.2380
   6223SM  C17S 7961   4.790   3.248   5.755  0.1277  0.2805 -0.4161
   6223SM  H17S 7962   4.753   3.352   5.766 -0.4039  0.0136  0.4027
   6223SM  H17T 7963   4.744   3.216   5.659  0.4242  3.8863 -1.9500
   6223SM  C18S 7964   4.943   3.258   5.736 -0.1720 -0.3528 -0.1205
   6223SM  H18S 7965   4.990   3.328   5.808  2.0687 -1.5078 -0.4056
   6223SM  H18T 7966   4.971   3.298   5.636 -0.6611 -0.1592 -0.1884
   6223SM  H18U 7967   4.992   3.159   5.743  1.7641  0.6078  0.7407
   6223SM   C1F 7968   4.143   2.647   7.123  0.3735  0.2260  0.1412
   6223SM    OF 7969   4.078   2.702   7.203 -0.0462 -0.0374  0.1930
   6223SM   C2F 7970   4.074   2.568   7.017  0.1992  0.0998  0.2768
   6223SM   H2F 7971   4.004   2.495   7.063  0.5766  0.3252  1.2247
   6223SM   H2G 7972   4.151   2.501   6.972  0.8165  0.7470  0.3427
   6223SM   C3F 7973   4.008   2.656   6.908 -0.4764 -0.2658  0.0208
   6223SM   H3F 7974   3.934   2.717   6.966  2.0464  2.3036  0.7874
   6223SM   H3G 7975   3.960   2.588   6.835  0.3422 -0.6137 -0.2005
   6223SM   C4F 7976   4.102   2.754   6.834  0.3836  0.2623  0.2068
   6223SM   H4F 7977   4.209   2.723   6.833  0.4437  0.4627 -1.0454
   6223SM   H4G 7978   4.105   2.848   6.893 -1.1238  0.5212 -0.0860
   6223SM   C5F 7979   4.046   2.793   6.701  0.1771  0.3495  0.4025
   6223SM   H5F 7980   3.943   2.827   6.724 -0.6276 -1.0307 -0.9705
   6223SM   H5G 7981   4.035   2.711   6.627  0.2666 -1.3669  2.2160
   6223SM   C6F 7982   4.126   2.908   6.633  0.4667  0.6331 -0.0995
   6223SM   H6F 7983   4.229   2.875   6.606  0.8696  1.5384  0.2739
   6223SM   H6G 7984   4.134   2.992   6.705  1.6750 -0.5429  1.1965
   6223SM   C7F 7985   4.053   2.968   6.508  0.2022  0.0937  0.1400
   6223SM   H7F 7986   3.966   3.029   6.541 -1.3702 -1.5403 -0.8165
   6223SM   H7G 7987   4.014   2.885   6.445  0.8970 -1.1796  1.3421
   6223SM   C8F 7988   4.139   3.054   6.422 -0.7891 -1.1410  0.0354
   6223SM   H8F 7989   4.205   2.989   6.360  1.6775  0.2114  1.0768
   6223SM   H8G 7990   4.200   3.128   6.478  2.4289 -0.9292 -3.3078
   6223SM   C9F 7991   4.062   3.136   6.319 -0.4316 -0.5393  0.3296
   6223SM   H9F 7992   4.126   3.206   6.261  1.4049 -2.5274 -0.1429
   6223SM   H9G 7993   3.988   3.194   6.379 -0.1016 -2.6084  2.8907
   6223SM  C10F 7994   3.997   3.048   6.210  0.2036  0.0223  0.4509
   6223SM  H10F 7995   3.908   3.107   6.181  0.1470 -1.6628 -3.3540
   6223SM  H10G 7996   3.955   2.954   6.252 -1.4834  1.0866  1.2316
   6223SM  C11F 7997   4.084   3.025   6.085  0.5197 -0.2475 -0.3161
   6223SM  H11F 7998   4.173   2.969   6.120  1.1461  1.6269  1.3073
   6223SM  H11G 7999   4.128   3.119   6.046 -1.6304 -0.4251 -3.4995
   6223SM  C12F 8000   4.007   2.948   5.981 -0.4124 -0.0429  0.0072
   6223SM  H12F 8001   3.926   3.018   5.952  0.1378  0.9195  0.7435
   6223SM  H12G 8002   3.943   2.869   6.024 -2.2278  1.7022  0.6500
   6223SM  C13F 8003   4.086   2.921   5.857  0.1741  0.1149 -0.1573
   6223SM  H13F 8004   4.020   2.875   5.781  1.4677 -0.5754 -0.8828
   6223SM  H13G 8005   4.162   2.843   5.878  0.3566 -0.2681 -2.1073
   6223SM  C14F 8006   4.146   3.055   5.801 -0.1301 -0.3936  0.3209
   6223SM  H14F 8007   4.231   3.089   5.863 -0.3440 -1.8041  1.4534
   6223SM  H14G 8008   4.072   3.136   5.820 -0.1111 -0.1559 -0.5824
   6223SM  C15F 8009   4.169   3.043   5.649 -0.3522 -0.8667 -0.1211
   6223SM  H15F 8010   4.204   3.139   5.605  1.8396 -1.6608 -0.2111
   6223SM  H15G 8011   4.072   3.009   5.607 -1.8472 -0.2190  2.5139
   6223SM  C16F 8012   4.283   2.952   5.601 -0.2680 -0.0827 -0.1059
   6223SM  H16F 8013   4.267   2.852   5.646 -0.5828 -0.6526 -1.4476
   6223SM  H16G 8014   4.383   2.977   5.642  1.7842 -3.6645 -2.4246
   6223SM  C17F 8015   4.285   2.931   5.451 -0.6329  0.2205 -0.5947
   6223SM  H17F 8016   4.327   3.023   5.406 -1.4402  1.0582  0.3262
   6223SM  H17G 8017   4.183   2.900   5.420 -1.5970  0.0954  2.3584
   6223SM  C18F 8018   4.387   2.822   5.418 -0.1498 -0.6220  0.0774
   6223SM  H18F 8019   4.348   2.728   5.461  0.0797 -0.1118  1.4573
   6223SM  H18G 8020   4.488   2.842   5.459 -0.6494 -1.3823  1.7447
   6223SM  C19F 8021   4.391   2.814   5.265 -0.4498 -0.5091  0.1423
   6223SM  H19F 8022   4.424   2.909   5.217 -1.0885  0.3373  1.3409
   6223SM  H19G 8023   4.288   2.796   5.229 -1.2467  1.5585  1.2134
   6223SM  C20F 8024   4.479   2.694   5.221  0.3564 -0.2469  0.2873
   6223SM  H20F 8025   4.440   2.673   5.119  1.7580 -0.2529 -0.2668
   6223SM  H20G 8026   4.468   2.606   5.287  0.1414  0.2493  0.9231
   6223SM  C21F 8027   4.622   2.731   5.195 -0.1327  0.3920 -0.1627
   6223SM  H21F 8028   4.682   2.641   5.220  0.5306  0.5248 -1.2041
   6223SM  H21G 8029   4.657   2.813   5.261 -0.5331  0.4524 -0.0240
   6223SM  C22F 8030   4.651   2.762   5.045  0.5148  0.2741 -0.6396
   6223SM  H22F 8031   4.609   2.859   5.009  1.2970 -0.0719 -2.6165
   6223SM  H22G 8032   4.610   2.693   4.968 -2.2805 -1.2415  2.0121
   6223SM  C23F 8033   4.803   2.770   5.034 -0.6955  0.5164  0.1934
   6223SM  H23F 8034   4.846   2.670   5.012 -3.4788 -0.1189 -3.2684
   6223SM  H23G 8035   4.860   2.802   5.124  1.2865 -1.3009 -0.3466
   6223SM  H23H 8036   4.833   2.829   4.945  2.8375 -1.8880 -0.4253
   6323SM     N 8037   4.182   5.944   7.104  0.1086  0.1666 -0.0516
   6323SM   C15 8038   4.064   5.868   7.148  0.0769  0.8379  0.1105
   6323SM  H15A 8039   3.984   5.883   7.076 -0.5868  1.5090  0.9686
   6323SM  H15B 8040   4.024   5.909   7.240  1.3446 -0.2686  1.1899
   6323SM  H15C 8041   4.078   5.763   7.167 -0.2820  0.6589 -0.5818
   6323SM   C14 8042   4.148   6.084   7.114 -0.3701 -0.3590 -0.1947
   6323SM  H14A 8043   4.234   6.147   7.099 -1.3028  0.4673 -2.6138
   6323SM  H14B 8044   4.106   6.103   7.212 -0.6437 -2.0907  0.0557
   6323SM  H14C 8045   4.077   6.114   7.038 -0.3819 -1.5373 -0.6745
   6323SM   C13 8046   4.296   5.907   7.197  0.4565  0.0286 -0.0768
   6323SM  H13A 8047   4.279   5.940   7.299  1.9812  0.1824  0.1492
   6323SM  H13B 8048   4.392   5.941   7.162 -0.9574  1.4917 -2.8535
   6323SM  H13C 8049   4.305   5.801   7.212  0.9279  0.2973  1.9073
   6323SM   C12 8050   4.210   5.917   6.957 -0.8800 -0.3262 -0.3834
   6323SM  H12A 8051   4.298   5.970   6.922 -2.7503  2.5975 -1.0832
   6323SM  H12B 8052   4.134   5.960   6.894 -2.2470 -1.1892  0.6420
   6323SM   C11 8053   4.224   5.765   6.928  0.9563  0.1496  0.7007
   6323SM  H11A 8054   4.260   5.761   6.822  2.2889  0.4265  1.1271
   6323SM  H11B 8055   4.130   5.705   6.928  0.5297  0.7865 -0.2590
   6323SM     P 8056   4.313   5.553   7.068 -0.1853  0.4940  0.0835
   6323SM   O13 8057   4.439   5.519   7.138 -0.0301 -0.3445  0.6585
   6323SM   O14 8058   4.185   5.532   7.139  0.5631  0.4078  0.0321
   6323SM   O11 8059   4.306   5.466   6.941 -0.1404  0.5768 -0.0515
   6323SM   O12 8060   4.325   5.702   7.011  0.5282  0.1662 -0.4757
   6323SM   C1S 8061   4.406   5.487   6.837 -0.1859  0.2819  0.0521
   6323SM   H1S 8062   4.504   5.445   6.867 -0.0730  1.3035  1.1907
   6323SM   H1T 8063   4.411   5.596   6.815 -0.7100  0.9478  2.8370
   6323SM    NF 8064   4.443   5.442   6.591  0.2644 -0.2878 -0.0237
   6323SM   HNF 8065   4.427   5.517   6.528  2.6277 -0.0229 -0.3978
   6323SM   C2S 8066   4.351   5.425   6.702 -0.1616 -0.3758 -0.1917
   6323SM   H2S 8067   4.332   5.318   6.725 -2.4696  0.1307  0.5349
   6323SM   C3S 8068   4.208   5.485   6.666 -0.2658 -0.6673 -0.2932
   6323SM   H3S 8069   4.230   5.594   6.661  1.8658 -0.9832  0.8547
   6323SM    O3 8070   4.114   5.475   6.771  0.0589 -0.0130  0.0613
   6323SM   HO3 8071   4.182   5.465   6.838  0.3043 -2.5505 -0.4867
   6323SM   C4S 8072   4.148   5.445   6.531  0.0747 -0.5777 -0.1228
   6323SM   H4S 8073   4.195   5.507   6.453 -0.0309 -1.2910 -0.7773
   6323SM   C5S 8074   4.046   5.355   6.506  0.0302 -0.5090 -0.5030
   6323SM   H5S 8075   4.012   5.294   6.591  1.9778 -0.0598  0.6594
   6323SM   C6S 8076   3.992   5.319   6.368 -0.4515  0.0431 -0.6725
   6323SM   H6S 8077   3.898   5.258   6.373 -1.1993  1.2591  2.7875
   6323SM   H6T 8078   4.062   5.249   6.317  1.3898  1.4414 -0.1706
   6323SM   C7S 8079   3.962   5.442   6.272  0.6652  0.2396 -0.2644
   6323SM   H7S 8080   3.945   5.396   6.172 -0.9585 -0.5190  0.3335
   6323SM   H7T 8081   4.048   5.512   6.274 -0.1710  1.3626 -1.6642
   6323SM   C8S 8082   3.841   5.519   6.324  0.1064 -0.0898  0.1524
   6323SM   H8S 8083   3.869   5.557   6.425 -1.3523 -1.3254  1.0706
   6323SM   H8T 8084   3.758   5.448   6.342  1.3243 -1.3662  0.9489
   6323SM   C9S 8085   3.808   5.639   6.235 -0.7437  0.3881 -0.3194
   6323SM   H9S 8086   3.810   5.610   6.128  0.1070  0.7322 -0.3994
   6323SM   H9T 8087   3.902   5.696   6.242 -2.1811  2.6954  1.6468
   6323SM  C10S 8088   3.692   5.717   6.264  0.8055  0.2806 -0.2802
   6323SM  H10S 8089   3.692   5.822   6.228  0.2616  0.3848  0.0130
   6323SM  H10T 8090   3.698   5.708   6.375  2.4099  2.9475 -0.0495
   6323SM  C11S 8091   3.560   5.654   6.208 -0.4681  0.4201 -1.0001
   6323SM  H11S 8092   3.485   5.719   6.257  1.6302  1.9802  0.2747
   6323SM  H11T 8093   3.552   5.550   6.246  4.0290  0.4296  0.4786
   6323SM  C12S 8094   3.559   5.645   6.056 -0.4116 -0.3097 -0.8433
   6323SM  H12S 8095   3.629   5.567   6.020  1.5631  1.7144 -1.6165
   6323SM  H12T 8096   3.591   5.744   6.018  0.3945 -0.9548 -1.8851
   6323SM  C13S 8097   3.412   5.642   6.006  0.2898 -0.2922 -0.2226
   6323SM  H13S 8098   3.366   5.732   6.051 -0.7543 -0.0317 -1.7298
   6323SM  H13T 8099   3.361   5.548   6.037  0.0636 -0.9122 -2.2667
   6323SM  C14S 8100   3.399   5.649   5.848 -0.2060 -1.0706  0.2365
   6323SM  H14S 8101   3.460   5.734   5.810  3.7469 -3.2056  1.3213
   6323SM  H14T 8102   3.298   5.686   5.818  0.2285  1.2282  1.3937
   6323SM  C15S 8103   3.453   5.531   5.773  0.7706  0.2903  0.3467
   6323SM  H15S 8104   3.416   5.440   5.825  1.3491 -0.5143 -0.6021
   6323SM  H15T 8105   3.562   5.517   5.788  0.1211 -4.3442  2.4248
   6323SM  C16S 8106   3.411   5.517   5.623  0.2969 -0.2436 -0.2329
   6323SM  H16S 8107   3.436   5.615   5.576 -0.2379 -0.4174 -0.9007
   6323SM  H16T 8108   3.301   5.505   5.625 -0.1942  3.1044 -0.9184
   6323SM  C17S 8109   3.477   5.406   5.545  0.0331  0.8105  0.3148
   6323SM  H17S 8110   3.587   5.419   5.542  0.2213 -0.7341 -0.1664
   6323SM  H17T 8111   3.438   5.409   5.441 -0.2274  2.0099  0.4261
   6323SM  C18S 8112   3.453   5.276   5.608 -0.4929  0.7654 -0.5674
   6323SM  H18S 8113   3.350   5.262   5.646 -0.0595  1.7337  1.1010
   6323SM  H18T 8114   3.520   5.256   5.695  1.6430 -1.9694 -2.6300
   6323SM  H18U 8115   3.474   5.191   5.539  0.9034  1.3979 -0.9552
   6323SM   C1F 8116   4.566   5.390   6.591  0.5521  1.0083  0.9681
   6323SM    OF 8117   4.589   5.293   6.667 -1.2319 -0.3079 -0.0701
   6323SM   C2F 8118   4.650   5.425   6.473 -0.4390 -0.2108  0.3166
   6323SM   H2F 8119   4.607   5.516   6.426  0.5199  0.2960  0.3966
   6323SM   H2G 8120   4.661   5.339   6.404 -0.5928  0.8145 -1.0487
   6323SM   C3F 8121   4.791   5.473   6.523  0.2430 -0.6049 -0.4977
   6323SM   H3F 8122   4.830   5.394   6.589  0.8157  0.6665  0.7330
   6323SM   H3G 8123   4.783   5.559   6.593  1.3403 -1.4621  0.7067
   6323SM   C4F 8124   4.880   5.507   6.407 -0.1997  0.5428 -0.0094
   6323SM   H4F 8125   4.844   5.591   6.343  0.7719 -1.0421 -2.8021
   6323SM   H4G 8126   4.885   5.412   6.350 -0.3907 -0.5015  1.6387
   6323SM   C5F 8127   5.030   5.530   6.439  0.8117 -0.1602  0.0197
   6323SM   H5F 8128   5.060   5.436   6.490  1.0077 -0.0152  0.1728
   6323SM   H5G 8129   5.036   5.607   6.518 -0.2823 -1.3189  1.2782
   6323SM   C6F 8130   5.120   5.562   6.317 -0.5872 -0.0750  0.1814
   6323SM   H6F 8131   5.128   5.488   6.235 -0.4460  0.0855  0.0481
   6323SM   H6G 8132   5.218   5.570   6.368  0.2196 -0.1176 -1.2939
   6323SM   C7F 8133   5.082   5.700   6.248 -0.7010  0.3071 -0.4147
   6323SM   H7F 8134   5.073   5.779   6.325  0.6664 -0.5231  0.6560
   6323SM   H7G 8135   4.979   5.680   6.213 -1.8116  1.2312  2.0628
   6323SM   C8F 8136   5.177   5.745   6.135  0.2079  0.5902  0.0206
   6323SM   H8F 8137   5.266   5.782   6.191  0.6744  0.6619 -0.7591
   6323SM   H8G 8138   5.144   5.842   6.091  1.0463  0.5257 -0.7846
   6323SM   C9F 8139   5.213   5.637   6.037  0.2031 -0.0250 -0.0695
   6323SM   H9F 8140   5.123   5.572   6.022  0.2222 -0.6313  2.0335
   6323SM   H9G 8141   5.282   5.568   6.091 -1.2969 -2.4957 -1.1096
   6323SM  C10F 8142   5.263   5.692   5.903  0.1787 -0.2570 -0.7531
   6323SM  H10F 8143   5.312   5.612   5.843 -0.0939 -0.6347 -0.4823
   6323SM  H10G 8144   5.344   5.765   5.919 -0.5731  0.8180 -1.6589
   6323SM  C11F 8145   5.158   5.754   5.813 -0.7238  0.5417  0.3911
   6323SM  H11F 8146   5.080   5.808   5.872 -2.5010 -0.7307 -0.6847
   6323SM  H11G 8147   5.105   5.679   5.751 -0.5415 -0.3276  1.2771
   6323SM  C12F 8148   5.220   5.857   5.714 -0.3112 -0.4346 -0.5491
   6323SM  H12F 8149   5.285   5.797   5.648 -0.1356 -1.3053  0.3919
   6323SM  H12G 8150   5.292   5.923   5.768 -2.0708  2.0153 -1.0346
   6323SM  C13F 8151   5.124   5.942   5.635  0.2891  0.4667  0.3821
   6323SM  H13F 8152   5.189   6.021   5.592  2.2751 -1.5605 -0.5338
   6323SM  H13G 8153   5.051   5.985   5.708 -0.5644 -1.2852  0.6010
   6323SM  C14F 8154   5.054   5.853   5.526  0.5080  0.6097  0.0824
   6323SM  H14F 8155   4.991   5.929   5.474  0.8354  1.6634  1.1815
   6323SM  H14G 8156   4.997   5.776   5.581 -0.4332 -0.5710 -2.3927
   6323SM  C15F 8157   5.140   5.782   5.423 -0.5431 -0.5220  0.2485
   6323SM  H15F 8158   5.200   5.705   5.476 -1.1749 -2.0060 -1.1015
   6323SM  H15G 8159   5.207   5.845   5.361 -2.4327 -1.5885 -3.1376
   6323SM  C16F 8160   5.064   5.691   5.327  0.6142 -0.2775  0.1735
   6323SM  H16F 8161   4.990   5.627   5.380  1.0639 -3.8044 -2.9980
   6323SM  H16G 8162   5.139   5.621   5.283  0.8135 -1.1602  1.8435
   6323SM  C17F 8163   4.989   5.758   5.214 -0.4928  0.0247 -0.3680
   6323SM  H17F 8164   5.058   5.785   5.132 -0.4910  1.8594  0.2118
   6323SM  H17G 8165   4.934   5.848   5.248 -1.5356 -0.5536 -0.4706
   6323SM  C18F 8166   4.878   5.669   5.148  0.2755 -0.0165 -0.3115
   6323SM  H18F 8167   4.784   5.660   5.206  0.8255 -0.0170  0.5921
   6323SM  H18G 8168   4.923   5.567   5.141  2.9886  1.0432  0.5803
   6323SM  C19F 8169   4.844   5.712   5.007  0.4004 -0.7061  0.4956
   6323SM  H19F 8170   4.928   5.730   4.936 -0.6343 -0.3495 -0.6886
   6323SM  H19G 8171   4.798   5.814   5.013  1.4899 -0.2124  0.6326
   6323SM  C20F 8172   4.757   5.613   4.925 -0.0408  0.6572  0.0602
   6323SM  H20F 8173   4.665   5.580   4.978  0.3268 -1.7290 -0.6512
   6323SM  H20G 8174   4.816   5.519   4.922  0.1825  0.5857  3.0450
   6323SM  C21F 8175   4.732   5.659   4.782 -0.2860  0.2142  0.7378
   6323SM  H21F 8176   4.828   5.682   4.732 -0.8803  1.8729  0.2723
   6323SM  H21G 8177   4.678   5.756   4.771 -0.2315  0.1460 -0.1895
   6323SM  C22F 8178   4.657   5.555   4.693  0.3745  0.4066 -0.1978
   6323SM  H22F 8179   4.562   5.542   4.748  0.2909  0.7345 -0.2667
   6323SM  H22G 8180   4.712   5.458   4.686  0.4916  0.5278 -1.0443
   6323SM  C23F 8181   4.612   5.598   4.546  0.2806 -0.6923  0.2716
   6323SM  H23F 8182   4.571   5.701   4.555 -0.4219 -0.9429  0.0017
   6323SM  H23G 8183   4.542   5.524   4.503  1.5136 -1.4307 -0.5219
   6323SM  H23H 8184   4.700   5.593   4.479  0.0356 -2.2074  0.0378
   6423SM     N 8185   4.269   5.159   7.230  0.7563 -0.1238 -0.2083
   6423SM   C15 8186   4.396   5.222   7.275 -0.2685  0.7279  0.6588
   6423SM  H15A 8187   4.404   5.307   7.209 -1.9246  0.4781  0.0984
   6423SM  H15B 8188   4.473   5.146   7.270 -2.7467 -1.8976 -1.9788
   6423SM  H15C 8189   4.395   5.262   7.376  3.0848 -1.8372  1.9013
   6423SM   C14 8190   4.155   5.255   7.250  0.4010 -0.1240 -0.1727
   6423SM  H14A 8191   4.075   5.203   7.199  1.9582 -0.4936 -2.3741
   6423SM  H14B 8192   4.176   5.347   7.198 -0.3317  0.2835  0.2445
   6423SM  H14C 8193   4.133   5.265   7.355  0.2294 -0.0417 -0.2153
   6423SM   C13 8194   4.272   5.121   7.089 -0.1082 -0.0370  0.2368
   6423SM  H13A 8195   4.183   5.079   7.046  0.2396 -0.6609  0.1175
   6423SM  H13B 8196   4.348   5.048   7.068 -1.0824 -0.4610 -2.1407
   6423SM  H13C 8197   4.302   5.207   7.031  1.2853 -0.4314  0.3279
   6423SM   C12 8198   4.248   5.030   7.317 -0.1103  0.0471 -0.3155
   6423SM  H12A 8199   4.155   4.977   7.302  0.7315 -1.3936 -0.6514
   6423SM  H12B 8200   4.237   5.063   7.419 -4.5249  0.5413 -0.7287
   6423SM   C11 8201   4.357   4.921   7.311 -0.5068 -0.4451 -0.3036
   6423SM  H11A 8202   4.331   4.837   7.379  2.6555 -0.1353  1.5052
   6423SM  H11B 8203   4.447   4.970   7.352 -0.8223  1.1568 -1.4439
   6423SM     P 8204   4.519   4.790   7.161  0.6627  0.4621  0.1385
   6423SM   O13 8205   4.624   4.877   7.208  0.0948  0.5882  0.1738
   6423SM   O14 8206   4.521   4.651   7.215  0.2058 -0.1138  0.4899
   6423SM   O11 8207   4.519   4.788   6.999 -0.0593 -0.1042 -0.7620
   6423SM   O12 8208   4.377   4.861   7.189 -0.2015  0.3504 -0.0999
   6423SM   C1S 8209   4.582   4.908   6.935 -0.2201  0.0876  0.5602
   6423SM   H1S 8210   4.692   4.906   6.952 -0.1262 -1.8629 -0.0739
   6423SM   H1T 8211   4.536   5.000   6.976 -0.5944  0.2408 -0.1838
   6423SM    NF 8212   4.644   5.016   6.725  0.0846  0.2776  0.0023
   6423SM   HNF 8213   4.609   5.109   6.719  0.1959  0.3646  0.6458
   6423SM   C2S 8214   4.551   4.920   6.786  0.0948  0.1279  0.7409
   6423SM   H2S 8215   4.575   4.822   6.739 -2.1644 -0.2002  0.1787
   6423SM   C3S 8216   4.399   4.960   6.772 -0.3881 -0.0075 -0.0850
   6423SM   H3S 8217   4.388   5.069   6.792 -0.2190  0.0390 -0.2415
   6423SM    O3 8218   4.316   4.887   6.862  0.0232  0.2454  0.0098
   6423SM   HO3 8219   4.378   4.835   6.913  0.0276  1.1112  0.9214
   6423SM   C4S 8220   4.353   4.918   6.635  0.2497  0.1273 -0.6610
   6423SM   H4S 8221   4.322   4.813   6.627 -1.7593  0.6500 -0.2106
   6423SM   C5S 8222   4.347   4.998   6.530  0.2056  0.5157 -0.3927
   6423SM   H5S 8223   4.372   5.104   6.544  1.2663 -0.0752  3.0145
   6423SM   C6S 8224   4.299   4.958   6.390  0.1571 -0.6882 -0.0724
   6423SM   H6S 8225   4.231   5.035   6.346  0.3074 -0.5645 -0.0898
   6423SM   H6T 8226   4.261   4.854   6.383 -0.8905 -0.1950 -3.3988
   6423SM   C7S 8227   4.423   4.967   6.290 -0.1359  0.5329 -0.0512
   6423SM   H7S 8228   4.383   4.926   6.195  0.0532  1.9893 -0.7927
   6423SM   H7T 8229   4.493   4.893   6.334 -0.4588  1.2066  1.6929
   6423SM   C8S 8230   4.477   5.109   6.273 -0.2429 -0.3731  0.6563
   6423SM   H8S 8231   4.532   5.096   6.178  0.0368 -0.5100  0.8367
   6423SM   H8T 8232   4.542   5.155   6.350  1.1594 -2.2217  0.6288
   6423SM   C9S 8233   4.368   5.215   6.246 -0.7723  0.7742  0.1118
   6423SM   H9S 8234   4.316   5.237   6.341 -1.2132 -0.9475  0.2921
   6423SM   H9T 8235   4.294   5.190   6.167 -0.8948  2.8032 -0.4685
   6423SM  C10S 8236   4.438   5.337   6.188  0.1633  0.0997 -0.1084
   6423SM  H10S 8237   4.482   5.315   6.088  1.5157 -1.1579  0.7283
   6423SM  H10T 8238   4.517   5.383   6.251 -0.1532  0.1207  0.2778
   6423SM  C11S 8239   4.326   5.446   6.166 -0.3791 -0.8300  0.0984
   6423SM  H11S 8240   4.287   5.465   6.268 -0.1487 -2.9283  0.6315
   6423SM  H11T 8241   4.249   5.398   6.101 -0.7836 -1.7906  1.2398
   6423SM  C12S 8242   4.373   5.573   6.097  0.0033  0.4511  0.1133
   6423SM  H12S 8243   4.415   5.535   6.001  1.8272 -2.7224  1.9974
   6423SM  H12T 8244   4.456   5.625   6.150  0.8197  1.0965 -1.7205
   6423SM  C13S 8245   4.271   5.684   6.096 -0.1457 -0.3676  0.1363
   6423SM  H13S 8246   4.242   5.710   6.200  2.6062 -1.6794  1.3341
   6423SM  H13T 8247   4.184   5.643   6.039  0.7214  0.2948 -1.7271
   6423SM  C14S 8248   4.320   5.813   6.030  0.2359 -0.0220  0.0797
   6423SM  H14S 8249   4.428   5.831   6.047  0.4733 -0.8451 -0.4371
   6423SM  H14T 8250   4.269   5.896   6.083  1.7654  0.6154  0.6074
   6423SM  C15S 8251   4.292   5.816   5.880  0.1079  0.4767  0.8993
   6423SM  H15S 8252   4.182   5.823   5.867  0.0715  0.2655  1.0766
   6423SM  H15T 8253   4.319   5.726   5.820 -0.0981  1.2358 -0.3686
   6423SM  C16S 8254   4.356   5.941   5.827 -0.0277  0.5603 -1.0092
   6423SM  H16S 8255   4.444   5.923   5.762  0.4124  1.8128 -0.7904
   6423SM  H16T 8256   4.397   6.004   5.909 -0.8573 -0.0947 -0.0713
   6423SM  C17S 8257   4.257   6.018   5.746 -0.7698 -0.5212  0.1982
   6423SM  H17S 8258   4.175   6.058   5.810 -1.1447 -0.0603 -0.5582
   6423SM  H17T 8259   4.226   5.952   5.662  0.8942  0.3639 -1.1813
   6423SM  C18S 8260   4.314   6.149   5.696  0.2327  0.4702  0.0627
   6423SM  H18S 8261   4.398   6.127   5.627 -0.0466 -0.2621 -0.0470
   6423SM  H18T 8262   4.356   6.214   5.776  1.3298 -0.9801  0.6994
   6423SM  H18U 8263   4.240   6.214   5.644 -2.8573 -0.6646  2.7173
   6423SM   C1F 8264   4.777   4.992   6.701  0.4914  0.0414 -0.7526
   6423SM    OF 8265   4.811   4.875   6.715 -0.3477  0.0314  0.3577
   6423SM   C2F 8266   4.868   5.105   6.677 -0.6827  0.0489  0.6735
   6423SM   H2F 8267   4.952   5.100   6.749  1.2167 -2.9135 -1.5370
   6423SM   H2G 8268   4.808   5.199   6.673 -1.1894 -0.3005 -0.7755
   6423SM   C3F 8269   4.950   5.091   6.544  0.0255  0.2173 -1.1758
   6423SM   H3F 8270   4.986   4.986   6.533 -0.3822  0.1822 -2.3477
   6423SM   H3G 8271   5.037   5.158   6.563 -1.0030  0.6473  3.0896
   6423SM   C4F 8272   4.870   5.123   6.417 -0.2562  0.2994 -0.3324
   6423SM   H4F 8273   4.828   5.226   6.423 -0.2294  0.3520 -1.0247
   6423SM   H4G 8274   4.786   5.051   6.410 -0.4422 -0.3386  4.7248
   6423SM   C5F 8275   4.952   5.106   6.287 -0.2527 -0.8899  0.8285
   6423SM   H5F 8276   4.995   5.004   6.294  1.3206 -0.1730  2.2820
   6423SM   H5G 8277   5.034   5.181   6.297 -1.6344  0.6341  1.3025
   6423SM   C6F 8278   4.872   5.128   6.158 -0.0825  0.7129 -0.2996
   6423SM   H6F 8279   4.773   5.079   6.172 -0.9614  1.6037 -2.8720
   6423SM   H6G 8280   4.939   5.079   6.084 -2.0366  0.0050 -1.6854
   6423SM   C7F 8281   4.864   5.268   6.120 -0.1797  0.4162 -0.6729
   6423SM   H7F 8282   4.950   5.334   6.145 -0.1746 -0.2244  1.1681
   6423SM   H7G 8283   4.777   5.316   6.169  1.4606  1.5327  1.3214
   6423SM   C8F 8284   4.823   5.281   5.970 -0.3302 -0.5958  0.0211
   6423SM   H8F 8285   4.728   5.223   5.960 -1.0646  0.3590  1.1359
   6423SM   H8G 8286   4.900   5.223   5.916  1.2019  1.6074 -0.2739
   6423SM   C9F 8287   4.815   5.424   5.917  0.9537  0.2912 -0.0371
   6423SM   H9F 8288   4.921   5.457   5.914  0.9625  0.2005 -2.4617
   6423SM   H9G 8289   4.747   5.487   5.978  2.5239  1.9580  0.0871
   6423SM  C10F 8290   4.756   5.431   5.772  0.0517 -0.6479 -0.4920
   6423SM  H10F 8291   4.647   5.425   5.790  0.3036  0.8190  2.0700
   6423SM  H10G 8292   4.803   5.345   5.720  2.6232 -0.2858  1.0718
   6423SM  C11F 8293   4.788   5.564   5.710  0.7172 -0.7669 -0.1278
   6423SM  H11F 8294   4.897   5.584   5.705  0.5111  0.4443 -0.0841
   6423SM  H11G 8295   4.736   5.644   5.767 -2.0234 -0.6883 -2.4903
   6423SM  C12F 8296   4.744   5.573   5.568 -0.5044 -0.4779 -0.1513
   6423SM  H12F 8297   4.805   5.502   5.509 -0.0534  0.1180 -0.4142
   6423SM  H12G 8298   4.763   5.679   5.540  1.5954 -0.3075  1.6568
   6423SM  C13F 8299   4.597   5.550   5.541  0.6759 -0.2100  0.0874
   6423SM  H13F 8300   4.550   5.615   5.618 -1.1283  0.5707 -1.5895
   6423SM  H13G 8301   4.558   5.447   5.559  0.2358  0.2678  2.1252
   6423SM  C14F 8302   4.554   5.590   5.401  0.7393  0.7409  0.4429
   6423SM  H14F 8303   4.630   5.659   5.359  0.4862  1.9136  1.8304
   6423SM  H14G 8304   4.457   5.645   5.404 -0.7097 -1.6577  0.8334
   6423SM  C15F 8305   4.528   5.462   5.321 -0.6724 -0.7103  0.0648
   6423SM  H15F 8306   4.511   5.496   5.217  0.4902 -2.8494 -0.8811
   6423SM  H15G 8307   4.429   5.414   5.336 -1.6749  0.1385 -3.1570
   6423SM  C16F 8308   4.633   5.351   5.316 -0.6274  0.3126  0.6668
   6423SM  H16F 8309   4.601   5.278   5.394 -1.5777  0.7446  0.6832
   6423SM  H16G 8310   4.734   5.392   5.339 -1.2998  2.1132  0.5469
   6423SM  C17F 8311   4.649   5.289   5.173  0.7450  0.2343 -0.0553
   6423SM  H17F 8312   4.745   5.233   5.162  0.9853  0.7983 -0.8697
   6423SM  H17G 8313   4.656   5.378   5.108 -0.9430  0.2508 -0.2510
   6423SM  C18F 8314   4.530   5.192   5.134  0.5887 -0.4791  0.3491
   6423SM  H18F 8315   4.442   5.248   5.096  0.1153 -1.9924 -0.8973
   6423SM  H18G 8316   4.505   5.136   5.227 -0.6128  0.7759  0.8144
   6423SM  C19F 8317   4.580   5.091   5.019  0.1026  0.1342 -0.1789
   6423SM  H19F 8318   4.506   5.008   5.020  0.5790 -0.3853 -2.4310
   6423SM  H19G 8319   4.678   5.049   5.047  0.2590  0.1490 -0.6926
   6423SM  C20F 8320   4.571   5.159   4.882 -0.8729  0.9535  0.3079
   6423SM  H20F 8321   4.646   5.240   4.895  1.7681 -1.4207  0.8218
   6423SM  H20G 8322   4.473   5.204   4.856 -0.6399  0.9924 -0.5323
   6423SM  C21F 8323   4.620   5.080   4.762 -0.2683 -0.3225  0.1006
   6423SM  H21F 8324   4.545   5.006   4.727 -2.7683  1.7337  0.7751
   6423SM  H21G 8325   4.711   5.025   4.796 -1.0467 -0.8775  1.3984
   6423SM  C22F 8326   4.645   5.158   4.633 -0.1761 -0.7981 -0.2331
   6423SM  H22F 8327   4.715   5.240   4.660 -1.2093  0.0620 -0.0698
   6423SM  H22G 8328   4.547   5.204   4.607  0.8665  2.5146  1.2293
   6423SM  C23F 8329   4.707   5.077   4.522  0.7710  0.0770  1.0929
   6423SM  H23F 8330   4.639   4.990   4.510 -0.1399  0.7695  1.1258
   6423SM  H23G 8331   4.807   5.037   4.549  0.2927 -0.6819  1.7751
   6423SM  H23H 8332   4.719   5.131   4.425 -0.7070 -0.5441  0.5409
   6523SM     N 8333   6.076   5.174   7.342  0.6567  0.6361  0.4058
   6523SM   C15 8334   6.149   5.056   7.401  0.6985 -0.1195  0.0348
   6523SM  H15A 8335   6.156   5.064   7.508  0.1758  1.5973 -0.0387
   6523SM  H15B 8336   6.245   5.037   7.354 -0.1592 -1.8148 -1.1776
   6523SM  H15C 8337   6.084   4.972   7.380 -1.3980  1.7655 -1.4855
   6523SM   C14 8338   5.941   5.182   7.406  0.0058  0.3738  0.2655
   6523SM  H14A 8339   5.905   5.283   7.393  1.5032  0.8593 -0.3236
   6523SM  H14B 8340   5.942   5.157   7.511  0.8385 -0.5344  0.0538
   6523SM  H14C 8341   5.876   5.108   7.362 -0.1432  0.3928  0.4524
   6523SM   C13 8342   6.150   5.290   7.375 -0.7553  0.0750  0.1167
   6523SM  H13A 8343   6.110   5.381   7.333  0.3296  1.6223  2.2645
   6523SM  H13B 8344   6.254   5.296   7.346 -1.2700  0.1593 -1.8412
   6523SM  H13C 8345   6.158   5.297   7.482 -1.8875  0.7651  0.1732
   6523SM   C12 8346   6.078   5.160   7.194  0.2064 -0.5513  0.5125
   6523SM  H12A 8347   6.025   5.069   7.171  0.8094 -0.5547 -0.9728
   6523SM  H12B 8348   6.176   5.152   7.151  1.0464  1.0756  2.0138
   6523SM   C11 8349   6.010   5.261   7.112  0.3267 -0.3106  0.2451
   6523SM  H11A 8350   6.039   5.262   7.005  0.9597 -1.4118  0.3939
   6523SM  H11B 8351   6.019   5.364   7.152  0.9164 -0.7302  1.2259
   6523SM     P 8352   5.797   5.128   7.023  0.0307 -0.2218 -0.1637
   6523SM   O13 8353   5.848   4.992   7.047 -0.3873 -0.1329  0.7365
   6523SM   O14 8354   5.648   5.136   7.034 -0.6990 -0.0707 -0.1162
   6523SM   O11 8355   5.852   5.164   6.882 -0.2638 -0.5006 -0.4427
   6523SM   O12 8356   5.868   5.232   7.117 -0.8966 -0.2138  0.4870
   6523SM   C1S 8357   5.795   5.269   6.811 -0.5935 -0.3043  0.4843
   6523SM   H1S 8358   5.826   5.359   6.867  1.6554 -0.6311 -0.1065
   6523SM   H1T 8359   5.686   5.255   6.800 -0.9054  2.1594 -0.0508
   6523SM    NF 8360   5.801   5.404   6.603  0.1062 -0.4173 -0.3566
   6523SM   HNF 8361   5.709   5.402   6.563  0.0349 -0.2980 -0.2039
   6523SM   C2S 8362   5.837   5.275   6.665 -0.0619 -0.2466  0.7484
   6523SM   H2S 8363   5.948   5.267   6.657 -0.0435  0.5254  0.0168
   6523SM   C3S 8364   5.787   5.151   6.587  0.1784  0.8587 -0.3348
   6523SM   H3S 8365   5.678   5.167   6.575  0.1021  1.0316  0.4902
   6523SM    O3 8366   5.801   5.018   6.645  0.0230 -0.6834  0.1574
   6523SM   HO3 8367   5.860   5.033   6.719  0.7959 -0.7748 -0.4168
   6523SM   C4S 8368   5.842   5.158   6.446 -1.1728 -0.9465 -0.1292
   6523SM   H4S 8369   5.774   5.195   6.368 -0.5149  0.3567 -0.1181
   6523SM   C5S 8370   5.958   5.116   6.402 -0.5946  0.0308 -0.3784
   6523SM   H5S 8371   6.029   5.067   6.471  2.2606  2.3506 -1.4924
   6523SM   C6S 8372   5.997   5.103   6.258 -0.4711 -0.6351 -0.1971
   6523SM   H6S 8373   5.932   5.030   6.204 -0.8373  1.9342 -3.5881
   6523SM   H6T 8374   6.095   5.051   6.264 -0.1606  0.1307  1.9458
   6523SM   C7S 8375   5.993   5.223   6.163  0.2075 -0.2355 -0.3721
   6523SM   H7S 8376   6.055   5.300   6.213  0.1575  0.2225 -1.0032
   6523SM   H7T 8377   5.894   5.273   6.154  0.2870  0.1445  0.7522
   6523SM   C8S 8378   6.052   5.209   6.022  0.6151 -0.0706  0.1420
   6523SM   H8S 8379   6.160   5.192   6.043  0.7465  1.9799  1.3374
   6523SM   H8T 8380   6.046   5.302   5.963  0.7917  0.0480  0.3106
   6523SM   C9S 8381   5.984   5.101   5.936  0.0336  0.0873 -0.2093
   6523SM   H9S 8382   5.986   5.006   5.993 -0.6830  0.8603  1.1609
   6523SM   H9T 8383   6.045   5.081   5.846  1.0452 -0.9668  0.6804
   6523SM  C10S 8384   5.840   5.137   5.891 -0.8067 -0.2423 -0.1007
   6523SM  H10S 8385   5.838   5.241   5.851 -2.8551  0.1756  0.9196
   6523SM  H10T 8386   5.770   5.143   5.978 -2.9741  1.1762 -1.8463
   6523SM  C11S 8387   5.783   5.054   5.783  0.4173  0.4112  0.3052
   6523SM  H11S 8388   5.676   5.072   5.762  0.2072  0.1230  1.1195
   6523SM  H11T 8389   5.787   4.945   5.803  0.4430  0.0843 -1.3726
   6523SM  C12S 8390   5.858   5.075   5.648  0.3912  0.6349 -0.2183
   6523SM  H12S 8391   5.953   5.017   5.657 -1.7822 -3.0826  0.9178
   6523SM  H12T 8392   5.887   5.181   5.635  2.5065 -0.1475 -3.0761
   6523SM  C13S 8393   5.774   5.046   5.528  0.5157 -0.4487 -0.2823
   6523SM  H13S 8394   5.829   5.072   5.435  1.3437 -0.0754  0.3102
   6523SM  H13T 8395   5.685   5.111   5.538  1.7795  1.1895  0.7921
   6523SM  C14S 8396   5.728   4.899   5.511  0.0325  0.3973  0.0579
   6523SM  H14S 8397   5.642   4.882   5.579  1.2549 -0.4665  1.4464
   6523SM  H14T 8398   5.805   4.827   5.545 -1.1117 -0.4136  1.0276
   6523SM  C15S 8399   5.686   4.871   5.365  0.6337 -0.2644 -0.0849
   6523SM  H15S 8400   5.779   4.876   5.304  0.9074 -0.1520  0.3366
   6523SM  H15T 8401   5.612   4.952   5.346  0.1080 -1.2551 -2.6633
   6523SM  C16S 8402   5.616   4.728   5.345 -0.3808 -0.4244  0.9078
   6523SM  H16S 8403   5.628   4.713   5.236 -1.1047 -0.8038  0.8727
   6523SM  H16T 8404   5.508   4.744   5.369 -0.2557  0.8643  0.7034
   6523SM  C17S 8405   5.692   4.612   5.413  0.4904 -0.0058  0.4571
   6523SM  H17S 8406   5.629   4.523   5.391  1.0735 -0.3098 -0.0204
   6523SM  H17T 8407   5.676   4.619   5.523 -1.2215  0.0399  0.2311
   6523SM  C18S 8408   5.840   4.596   5.370  0.1718  0.0577 -0.7738
   6523SM  H18S 8409   5.838   4.588   5.259 -0.6020 -1.3917 -0.6867
   6523SM  H18T 8410   5.881   4.502   5.415  0.6934  1.1420  1.1458
   6523SM  H18U 8411   5.900   4.684   5.401 -1.1402  0.7840 -0.2237
   6523SM   C1F 8412   5.868   5.525   6.650 -0.0788 -0.2141 -0.1487
   6523SM    OF 8413   5.969   5.526   6.722 -0.3462  0.0933 -0.2380
   6523SM   C2F 8414   5.797   5.649   6.602  0.5510 -0.4843  0.4373
   6523SM   H2F 8415   5.872   5.729   6.582  1.3067 -1.2486  0.1260
   6523SM   H2G 8416   5.729   5.681   6.684 -1.4493 -0.1665 -1.2346
   6523SM   C3F 8417   5.714   5.632   6.476  0.2650 -0.2014  0.0937
   6523SM   H3F 8418   5.681   5.736   6.456  1.1914 -0.0821 -0.9234
   6523SM   H3G 8419   5.619   5.579   6.497  0.1904  0.8554  2.7959
   6523SM   C4F 8420   5.782   5.588   6.345  0.1710 -0.5527 -0.3990
   6523SM   H4F 8421   5.813   5.481   6.339  0.1548 -0.5744 -0.1301
   6523SM   H4G 8422   5.868   5.654   6.323  0.6354 -1.5149 -1.5818
   6523SM   C5F 8423   5.688   5.595   6.227  0.1588 -0.1648 -0.1529
   6523SM   H5F 8424   5.656   5.700   6.212 -2.8189 -0.8647  0.7772
   6523SM   H5G 8425   5.593   5.541   6.248  0.0655  0.5482  1.3934
   6523SM   C6F 8426   5.738   5.525   6.098  0.1791  0.0484 -0.3015
   6523SM   H6F 8427   5.736   5.414   6.107 -0.4344  0.0829  0.0760
   6523SM   H6G 8428   5.841   5.560   6.078  0.5090 -0.0895  1.0292
   6523SM   C7F 8429   5.661   5.566   5.986  0.1141  0.4517  0.8279
   6523SM   H7F 8430   5.645   5.675   6.000 -2.2623 -0.0278  2.4586
   6523SM   H7G 8431   5.560   5.522   6.000  0.2043  0.2025  0.7084
   6523SM   C8F 8432   5.722   5.538   5.849  0.4084 -0.0454  0.2453
   6523SM   H8F 8433   5.734   5.430   5.823  0.1531  0.2461 -1.1522
   6523SM   H8G 8434   5.826   5.578   5.852  0.8877 -1.1975 -0.0893
   6523SM   C9F 8435   5.646   5.613   5.746 -0.0782  0.2844 -0.0471
   6523SM   H9F 8436   5.658   5.722   5.764  1.6684  0.4228 -1.6767
   6523SM   H9G 8437   5.539   5.584   5.755  0.0164 -0.7673 -1.7470
   6523SM  C10F 8438   5.696   5.600   5.601  0.1623  0.1395 -0.6083
   6523SM  H10F 8439   5.804   5.626   5.608 -0.3359  2.0352  0.5035
   6523SM  H10G 8440   5.636   5.678   5.549 -2.0624 -0.6017  0.7190
   6523SM  C11F 8441   5.662   5.464   5.539  1.1861 -0.1915 -0.6687
   6523SM  H11F 8442   5.561   5.438   5.578  1.4873 -1.5426 -0.7231
   6523SM  H11G 8443   5.721   5.378   5.576 -0.4953 -0.2751  2.1494
   6523SM  C12F 8444   5.647   5.452   5.388 -0.1144  0.0112  0.3724
   6523SM  H12F 8445   5.550   5.500   5.360 -0.0341  0.1335  0.2988
   6523SM  H12G 8446   5.642   5.346   5.358 -3.5231  0.2586 -0.3512
   6523SM  C13F 8447   5.761   5.522   5.320  0.3717 -0.3313 -0.8245
   6523SM  H13F 8448   5.860   5.485   5.355  1.4011  2.4069 -0.6450
   6523SM  H13G 8449   5.750   5.628   5.349  0.7925 -0.4021 -0.3962
   6523SM  C14F 8450   5.751   5.495   5.167  0.1426 -0.1385 -0.1917
   6523SM  H14F 8451   5.648   5.512   5.132 -0.2937  0.1696  1.1880
   6523SM  H14G 8452   5.770   5.388   5.141 -0.9729 -0.8397  1.6713
   6523SM  C15F 8453   5.832   5.600   5.095 -0.0081  0.2431 -0.3232
   6523SM  H15F 8454   5.941   5.577   5.097  0.3739  1.8137 -0.9925
   6523SM  H15G 8455   5.833   5.696   5.152  0.3235  1.3211 -2.0591
   6523SM  C16F 8456   5.791   5.623   4.945  0.4136 -0.7450 -0.4238
   6523SM  H16F 8457   5.837   5.716   4.904 -2.7711  1.7461  1.1105
   6523SM  H16G 8458   5.684   5.651   4.937  0.5870  0.3161  0.5913
   6523SM  C17F 8459   5.835   5.514   4.852 -0.3154  0.5153 -0.0027
   6523SM  H17F 8460   5.811   5.411   4.886 -0.1063  0.5319  0.1964
   6523SM  H17G 8461   5.945   5.511   4.840 -0.4770 -1.8397 -1.5270
   6523SM  C18F 8462   5.782   5.547   4.715 -0.3258 -0.3802 -0.4624
   6523SM  H18F 8463   5.869   5.547   4.646 -0.7657 -3.7695 -1.1920
   6523SM  H18G 8464   5.736   5.648   4.713 -0.2605 -0.3279 -3.2947
   6523SM  C19F 8465   5.674   5.447   4.674 -0.6998 -0.2809  0.3995
   6523SM  H19F 8466   5.586   5.458   4.741 -0.6605 -0.5279  0.4917
   6523SM  H19G 8467   5.716   5.345   4.689 -1.5831 -0.8042 -0.5327
   6523SM  C20F 8468   5.629   5.454   4.526  0.1969 -0.2796 -0.0417
   6523SM  H20F 8469   5.720   5.450   4.463  1.9642  0.3382  2.2965
   6523SM  H20G 8470   5.569   5.548   4.522 -0.1537 -0.4938  0.1189
   6523SM  C21F 8471   5.541   5.330   4.475 -0.5062 -0.7438 -0.9193
   6523SM  H21F 8472   5.624   5.258   4.454  1.6808  0.9350  1.3792
   6523SM  H21G 8473   5.490   5.351   4.378 -0.1582 -2.6449 -1.5713
   6523SM  C22F 8474   5.436   5.283   4.574  0.3148  0.3716  0.0907
   6523SM  H22F 8475   5.360   5.364   4.586  0.4459  0.5219 -0.1066
   6523SM  H22G 8476   5.486   5.262   4.671  1.7992  0.9410 -0.5224
   6523SM  C23F 8477   5.364   5.160   4.522  0.1499  0.0660  0.4124
   6523SM  H23F 8478   5.295   5.103   4.589 -0.3096 -1.3038 -1.1429
   6523SM  H23G 8479   5.440   5.087   4.488  0.1282  0.8639 -1.4494
   6523SM  H23H 8480   5.306   5.179   4.429 -2.5479 -1.6229  1.6264
   6623SM     N 8481   3.155   1.454   7.132  0.2790  0.6869 -0.8755
   6623SM   C15 8482   3.047   1.531   7.059 -0.8322 -0.1112  0.0805
   6623SM  H15A 8483   2.963   1.472   7.026 -1.6465 -0.1769  2.1738
   6623SM  H15B 8484   3.096   1.575   6.973  0.8416 -2.6737 -0.3706
   6623SM  H15C 8485   2.999   1.610   7.115 -2.9119 -0.8478 -0.5404
   6623SM   C14 8486   3.087   1.414   7.269 -0.0561  0.5305 -0.1984
   6623SM  H14A 8487   3.037   1.495   7.319  0.2010  1.4144 -1.3282
   6623SM  H14B 8488   3.158   1.372   7.338 -0.9344 -1.7593 -0.5810
   6623SM  H14C 8489   3.010   1.340   7.251  1.7996 -1.1542 -1.7206
   6623SM   C13 8490   3.194   1.328   7.048  0.3302  0.1895 -0.3016
   6623SM  H13A 8491   3.242   1.364   6.958  0.8232 -1.8685 -0.8983
   6623SM  H13B 8492   3.107   1.266   7.033  1.2460 -1.2515  0.1523
   6623SM  H13C 8493   3.271   1.269   7.095  1.1469 -0.2645 -2.1092
   6623SM   C12 8494   3.276   1.546   7.164 -0.1233 -0.8082 -0.6791
   6623SM  H12A 8495   3.338   1.489   7.231  0.1433 -0.1966 -0.4059
   6623SM  H12B 8496   3.236   1.632   7.215  1.0478 -1.1986  0.9548
   6623SM   C11 8497   3.360   1.589   7.047 -0.5277 -0.1058  0.5812
   6623SM  H11A 8498   3.380   1.490   7.001  1.0540  0.1332  0.6986
   6623SM  H11B 8499   3.457   1.630   7.082 -1.2311  0.5312  1.8599
   6623SM     P 8500   3.263   1.814   6.983  0.2029 -0.1587  0.1761
   6623SM   O13 8501   3.128   1.831   7.039 -0.5610  0.5077  0.4205
   6623SM   O14 8502   3.373   1.877   7.057  0.0496  0.2178  0.1661
   6623SM   O11 8503   3.254   1.884   6.839 -0.1007  0.1181 -0.0813
   6623SM   O12 8504   3.290   1.667   6.955  0.5611 -0.4111 -0.0938
   6623SM   C1S 8505   3.351   1.870   6.746 -1.3096 -1.3784  0.2582
   6623SM   H1S 8506   3.361   1.765   6.712  2.1937 -0.7338 -1.0720
   6623SM   H1T 8507   3.452   1.898   6.782 -0.6728 -2.3599 -0.7059
   6623SM    NF 8508   3.444   1.965   6.534  0.4863 -0.2033 -0.1911
   6623SM   HNF 8509   3.517   2.032   6.546  2.1156 -2.0543  0.6477
   6623SM   C2S 8510   3.327   1.970   6.622  0.1583 -0.1629 -0.4548
   6623SM   H2S 8511   3.235   1.930   6.574 -0.3789  0.6536 -0.1276
   6623SM   C3S 8512   3.293   2.108   6.672 -0.0962 -0.1898 -0.4955
   6623SM   H3S 8513   3.375   2.159   6.727  1.2045  1.1920 -3.4872
   6623SM    O3 8514   3.170   2.119   6.747 -0.3430  0.5662 -0.0826
   6623SM   HO3 8515   3.168   2.033   6.789  3.3827 -0.7930 -2.2331
   6623SM   C4S 8516   3.277   2.196   6.548 -0.1988  0.8515  0.0963
   6623SM   H4S 8517   3.223   2.146   6.465 -1.3718  2.2780 -0.0388
   6623SM   C5S 8518   3.332   2.312   6.520  0.5247 -0.4776 -0.5882
   6623SM   H5S 8519   3.388   2.366   6.598 -2.2986  0.1266  1.1677
   6623SM   C6S 8520   3.332   2.374   6.389  0.6110 -0.1070  0.8151
   6623SM   H6S 8521   3.429   2.423   6.364  0.1482  0.8339  0.8430
   6623SM   H6T 8522   3.242   2.438   6.395  0.7003  0.0372  0.6476
   6623SM   C7S 8523   3.304   2.271   6.283  0.0936  0.1218  0.4526
   6623SM   H7S 8524   3.198   2.237   6.290 -0.0111  0.3619  0.0801
   6623SM   H7T 8525   3.372   2.185   6.297 -0.6634 -0.3874  1.0848
   6623SM   C8S 8526   3.327   2.309   6.136 -0.2433 -0.2562 -0.4668
   6623SM   H8S 8527   3.269   2.401   6.116  0.9379  0.7147  0.4160
   6623SM   H8T 8528   3.296   2.227   6.067  2.2727 -1.9781  0.2923
   6623SM   C9S 8529   3.475   2.338   6.099 -0.0786  1.1792 -0.3233
   6623SM   H9S 8530   3.544   2.270   6.153 -1.5921 -0.1722 -0.0127
   6623SM   H9T 8531   3.494   2.445   6.124 -1.7152  1.2763  0.6618
   6623SM  C10S 8532   3.503   2.335   5.950  0.9367  0.4778  0.2025
   6623SM  H10S 8533   3.446   2.414   5.897 -1.4424 -2.4576 -1.9770
   6623SM  H10T 8534   3.455   2.246   5.904 -0.6404  1.5387 -0.2817
   6623SM  C11S 8535   3.650   2.336   5.913 -0.1766 -0.2337  0.1981
   6623SM  H11S 8536   3.698   2.253   5.970 -0.3090 -0.2080  0.3475
   6623SM  H11T 8537   3.694   2.436   5.933 -0.4684 -0.4577  2.2493
   6623SM  C12S 8538   3.669   2.324   5.758  0.0087 -0.4688  0.6838
   6623SM  H12S 8539   3.587   2.375   5.703 -0.8290 -0.8012  1.6153
   6623SM  H12T 8540   3.655   2.221   5.718  0.9039  0.0064 -0.9860
   6623SM  C13S 8541   3.808   2.374   5.709 -0.6713  0.2625  0.2117
   6623SM  H13S 8542   3.886   2.296   5.722 -0.1146  1.0764  2.0124
   6623SM  H13T 8543   3.832   2.461   5.772  1.5162  1.5171 -2.1668
   6623SM  C14S 8544   3.809   2.419   5.563  0.3653 -0.3570  0.1716
   6623SM  H14S 8545   3.709   2.464   5.545  0.7472  0.8855  1.0087
   6623SM  H14T 8546   3.803   2.337   5.489 -1.9511 -0.2337  0.1461
   6623SM  C15S 8547   3.913   2.527   5.533 -0.2157 -0.1983  0.0202
   6623SM  H15S 8548   3.907   2.609   5.608 -0.7797 -2.2011  2.3222
   6623SM  H15T 8549   3.879   2.577   5.440 -2.9083  0.2782  1.1607
   6623SM  C16S 8550   4.050   2.467   5.518 -0.5528 -0.2389  1.0427
   6623SM  H16S 8551   4.089   2.521   5.430 -2.8048  0.5659  0.4882
   6623SM  H16T 8552   4.032   2.358   5.505  1.4384 -0.5976  0.8546
   6623SM  C17S 8553   4.138   2.492   5.651  0.1222 -0.7548 -0.5846
   6623SM  H17S 8554   4.093   2.432   5.733  1.5564 -1.4916 -0.2996
   6623SM  H17T 8555   4.126   2.600   5.673 -1.5738 -0.5568 -2.2033
   6623SM  C18S 8556   4.280   2.443   5.635 -0.4245  0.2332  0.2287
   6623SM  H18S 8557   4.274   2.345   5.582 -0.9933 -0.2612  1.1704
   6623SM  H18T 8558   4.324   2.429   5.736 -0.2854 -0.4000  0.0856
   6623SM  H18U 8559   4.338   2.519   5.578  1.8908 -1.5471  0.0718
   6623SM   C1F 8560   3.449   1.853   6.459 -0.2185  0.1144  0.7786
   6623SM    OF 8561   3.365   1.767   6.452  0.4560  0.2638 -0.5215
   6623SM   C2F 8562   3.577   1.835   6.385  0.3313  0.0535  0.0100
   6623SM   H2F 8563   3.594   1.725   6.375 -0.0864 -0.0482  0.3807
   6623SM   H2G 8564   3.661   1.870   6.450 -0.0389  0.7407  0.1165
   6623SM   C3F 8565   3.591   1.906   6.252  0.2517 -0.1476 -0.1067
   6623SM   H3F 8566   3.547   2.008   6.244 -1.2989 -0.6714  1.2620
   6623SM   H3G 8567   3.530   1.841   6.186  0.6241 -1.3375  0.6898
   6623SM   C4F 8568   3.732   1.916   6.191  0.0929 -0.0203  0.3832
   6623SM   H4F 8569   3.773   1.816   6.216 -0.2524 -0.2545  0.0002
   6623SM   H4G 8570   3.788   1.993   6.249  3.9307 -1.6027 -0.9056
   6623SM   C5F 8571   3.734   1.960   6.047 -0.5039  0.4062 -0.4529
   6623SM   H5F 8572   3.688   2.061   6.038  1.2611  1.6693  2.7209
   6623SM   H5G 8573   3.677   1.893   5.980 -1.6454 -1.4589  2.2089
   6623SM   C6F 8574   3.877   1.941   6.002  0.1247 -0.5045 -0.2362
   6623SM   H6F 8575   3.909   1.836   6.023 -2.2767 -0.8475  2.1656
   6623SM   H6G 8576   3.948   2.009   6.054 -0.7216  0.6529 -0.5567
   6623SM   C7F 8577   3.888   1.986   5.852 -0.7198  0.3730  0.3112
   6623SM   H7F 8578   3.857   2.091   5.830  1.5439  1.5582  2.3841
   6623SM   H7G 8579   3.826   1.918   5.791  0.4598 -0.0140 -0.5020
   6623SM   C8F 8580   4.034   1.984   5.808 -0.4674 -0.0841 -0.2182
   6623SM   H8F 8581   4.087   1.892   5.841  1.2931  0.9304 -0.1441
   6623SM   H8G 8582   4.080   2.067   5.866  1.8347 -2.1937  1.1524
   6623SM   C9F 8583   4.059   2.012   5.659  0.0086 -0.3771 -0.9025
   6623SM   H9F 8584   4.168   2.021   5.640 -0.1073  0.4076 -1.2559
   6623SM   H9G 8585   4.015   2.107   5.620  2.2063  0.7718 -0.7638
   6623SM  C10F 8586   4.019   1.890   5.580  0.5121 -0.2502 -0.4051
   6623SM  H10F 8587   3.914   1.865   5.604  1.0062 -1.6207  0.3941
   6623SM  H10G 8588   4.093   1.810   5.600  1.7333  0.8474 -0.3506
   6623SM  C11F 8589   4.020   1.922   5.429 -0.6538  0.2698 -0.2999
   6623SM  H11F 8590   4.121   1.966   5.410 -0.3622 -0.6762 -1.0034
   6623SM  H11G 8591   3.945   2.000   5.407  1.0023  1.8305 -0.6870
   6623SM  C12F 8592   4.006   1.804   5.335 -0.0002  0.4834  0.4881
   6623SM  H12F 8593   3.902   1.767   5.346 -0.0876  1.0383  1.7858
   6623SM  H12G 8594   4.076   1.722   5.361  0.4554  1.4388  2.4913
   6623SM  C13F 8595   4.030   1.852   5.198  0.3296 -0.7189 -0.1550
   6623SM  H13F 8596   4.130   1.900   5.188  0.5552 -0.7074  1.7686
   6623SM  H13G 8597   3.961   1.937   5.181  0.2369 -1.4420 -4.3991
   6623SM  C14F 8598   3.993   1.746   5.093 -0.4585  0.1786 -0.3258
   6623SM  H14F 8599   3.885   1.722   5.099 -0.3835 -0.1122 -0.0994
   6623SM  H14G 8600   4.057   1.662   5.128  1.3762  0.3212 -3.0203
   6623SM  C15F 8601   4.020   1.785   4.946 -0.1758  0.2732  0.4512
   6623SM  H15F 8602   4.129   1.806   4.935  0.2401 -0.6604  2.2139
   6623SM  H15G 8603   3.960   1.875   4.924  0.7136  0.7223 -0.2004
   6623SM  C16F 8604   3.976   1.675   4.850  0.6930 -0.3477  0.5043
   6623SM  H16F 8605   3.873   1.649   4.884 -0.5381  2.5534 -0.7006
   6623SM  H16G 8606   4.032   1.581   4.871  0.9242 -1.2302 -3.3936
   6623SM  C17F 8607   3.984   1.712   4.702  0.6259 -0.0556  0.2573
   6623SM  H17F 8608   4.087   1.736   4.667  0.4170  0.8344  0.2205
   6623SM  H17G 8609   3.944   1.815   4.690 -0.2474 -0.6519 -3.1692
   6623SM  C18F 8610   3.911   1.623   4.603  0.4963  0.4450 -0.0309
   6623SM  H18F 8611   3.812   1.587   4.641 -0.2222  0.2165 -2.0119
   6623SM  H18G 8612   3.972   1.531   4.594  1.8655  1.2924  0.3500
   6623SM  C19F 8613   3.889   1.690   4.461  0.3027  0.1889  0.6269
   6623SM  H19F 8614   3.812   1.770   4.467  2.0283  2.1434 -1.4452
   6623SM  H19G 8615   3.860   1.619   4.380  1.9782  0.6143 -0.3982
   6623SM  C20F 8616   4.011   1.767   4.416 -0.5530  0.7984 -0.9541
   6623SM  H20F 8617   4.105   1.711   4.434 -1.3897 -0.2499  0.3658
   6623SM  H20G 8618   4.008   1.860   4.476 -2.1960 -1.0483  2.0573
   6623SM  C21F 8619   4.018   1.804   4.269 -0.2352 -0.4596 -0.4287
   6623SM  H21F 8620   3.923   1.852   4.238 -1.5081 -2.1791  0.6437
   6623SM  H21G 8621   4.029   1.708   4.214  1.1381  0.4669 -1.8628
   6623SM  C22F 8622   4.146   1.875   4.218 -0.8385  0.2251  0.1468
   6623SM  H22F 8623   4.233   1.837   4.275  0.6652  3.1718 -0.0131
   6623SM  H22G 8624   4.139   1.977   4.261  1.3309  0.4730 -0.0146
   6623SM  C23F 8625   4.164   1.886   4.072 -0.8500 -0.2768 -0.0240
   6623SM  H23F 8626   4.224   1.801   4.033 -1.0537 -0.3249 -0.2385
   6623SM  H23G 8627   4.218   1.977   4.039 -3.7453  1.3016 -0.8276
   6623SM  H23H 8628   4.069   1.903   4.017 -1.4321  0.6330  1.2226
   6723SM     N 8629   2.611   6.082   7.355 -0.2707 -0.3623  0.5793
   6723SM   C15 8630   2.547   6.174   7.453  0.5108 -0.3615 -0.3873
   6723SM  H15A 8631   2.612   6.260   7.450  1.0879 -0.6307  2.0763
   6723SM  H15B 8632   2.553   6.129   7.551 -1.6988  0.2227  0.0740
   6723SM  H15C 8633   2.447   6.198   7.420  0.6996 -0.5528 -1.1227
   6723SM   C14 8634   2.737   6.034   7.425  0.7373 -0.4609 -0.0927
   6723SM  H14A 8635   2.787   6.122   7.461  0.0960 -0.2736  0.3450
   6723SM  H14B 8636   2.809   5.991   7.357  0.1492 -1.7944  0.0938
   6723SM  H14C 8637   2.721   5.963   7.504 -0.9585 -0.2446 -0.2057
   6723SM   C13 8638   2.529   5.959   7.331 -0.0351  0.7838 -0.1206
   6723SM  H13A 8639   2.496   5.923   7.427  1.2873  1.3918  0.5877
   6723SM  H13B 8640   2.593   5.885   7.285  0.0713 -0.0940  1.3773
   6723SM  H13C 8641   2.451   5.966   7.256  2.0606  0.7216 -2.4182
   6723SM   C12 8642   2.638   6.153   7.224 -0.4607 -0.1099  0.6488
   6723SM  H12A 8643   2.705   6.235   7.247 -0.4017 -0.2815  1.1022
   6723SM  H12B 8644   2.547   6.198   7.188 -1.5815 -1.7683  1.2843
   6723SM   C11 8645   2.702   6.067   7.110  0.4139 -0.2465 -0.1524
   6723SM  H11A 8646   2.716   6.132   7.020 -2.1016  0.1239 -0.3516
   6723SM  H11B 8647   2.628   5.994   7.073 -1.0594  0.6935  0.8225
   6723SM     P 8648   2.955   6.012   7.100  0.1134 -0.1329 -0.1358
   6723SM   O13 8649   2.991   6.154   7.136 -0.1958  0.4227  0.2719
   6723SM   O14 8650   3.036   5.899   7.148  0.5827 -0.3924  0.9400
   6723SM   O11 8651   2.945   6.002   6.945  0.1816 -0.2602 -0.3190
   6723SM   O12 8652   2.805   5.983   7.154 -0.1797 -0.1065 -0.2956
   6723SM   C1S 8653   2.893   5.871   6.900  0.2088 -0.1150  0.1122
   6723SM   H1S 8654   2.786   5.865   6.928 -0.7766  4.1989 -2.0091
   6723SM   H1T 8655   2.935   5.782   6.952 -1.3271 -1.2180 -0.4778
   6723SM    NF 8656   2.853   5.737   6.702 -0.0076  0.1992  0.7758
   6723SM   HNF 8657   2.890   5.648   6.676 -2.2398 -0.8858  1.0732
   6723SM   C2S 8658   2.920   5.856   6.755 -0.6046  0.3437 -0.2635
   6723SM   H2S 8659   2.891   5.948   6.699 -0.0804  0.1158 -0.9295
   6723SM   C3S 8660   3.077   5.849   6.739  0.2941 -0.3204  0.8968
   6723SM   H3S 8661   3.097   5.767   6.811  0.7827 -0.8474  0.1718
   6723SM    O3 8662   3.154   5.961   6.788 -0.0146 -0.4545  0.1640
   6723SM   HO3 8663   3.092   5.995   6.853 -0.2422 -1.8423  0.7037
   6723SM   C4S 8664   3.110   5.810   6.599 -0.0400  0.0062  0.5233
   6723SM   H4S 8665   3.087   5.881   6.519  0.7840 -0.8281 -0.4823
   6723SM   C5S 8666   3.174   5.689   6.569  0.7867 -0.1522 -0.2961
   6723SM   H5S 8667   3.198   5.617   6.649  1.2571  0.1087 -0.2005
   6723SM   C6S 8668   3.214   5.646   6.428  0.5887 -0.5979  0.0451
   6723SM   H6S 8669   3.280   5.557   6.424 -0.3317 -1.2680 -0.6963
   6723SM   H6T 8670   3.282   5.723   6.387 -1.0808  0.5169 -0.7137
   6723SM   C7S 8671   3.098   5.631   6.331 -0.1696 -0.4632  0.2307
   6723SM   H7S 8672   3.020   5.708   6.347  1.5577  1.6105 -0.9240
   6723SM   H7T 8673   3.048   5.535   6.357 -2.0460  0.4407  0.1231
   6723SM   C8S 8674   3.131   5.614   6.182 -0.1497 -0.3342  0.3768
   6723SM   H8S 8675   3.207   5.533   6.188  1.2752  1.0235  1.3164
   6723SM   H8T 8676   3.175   5.704   6.134 -0.0032 -0.1369  0.8820
   6723SM   C9S 8677   3.019   5.552   6.096  0.3207  0.2635  0.5884
   6723SM   H9S 8678   2.934   5.624   6.094  1.4763  1.7017  1.1985
   6723SM   H9T 8679   2.983   5.467   6.158  0.9756 -0.4911 -0.0656
   6723SM  C10S 8680   3.049   5.514   5.960 -0.9858  0.1248  0.4633
   6723SM  H10S 8681   3.156   5.484   5.962  0.7234  5.1857  1.1969
   6723SM  H10T 8682   3.041   5.610   5.905 -0.8758 -0.9492 -1.4965
   6723SM  C11S 8683   2.953   5.413   5.902  0.0961  0.7733  0.8790
   6723SM  H11S 8684   2.847   5.441   5.881  0.3857  0.6884 -0.8874
   6723SM  H11T 8685   2.960   5.319   5.961  0.1429  0.7697  0.8676
   6723SM  C12S 8686   3.016   5.374   5.761  0.2000  0.5607  0.1832
   6723SM  H12S 8687   3.111   5.321   5.786  1.0252  1.4165 -1.0252
   6723SM  H12T 8688   3.019   5.470   5.705 -3.1927  0.6299 -0.0684
   6723SM  C13S 8689   2.931   5.298   5.659 -0.1595 -0.0395 -0.5561
   6723SM  H13S 8690   2.831   5.342   5.640 -0.2732  0.3456  0.7962
   6723SM  H13T 8691   2.911   5.202   5.713 -2.2262  0.7391  0.1722
   6723SM  C14S 8692   2.994   5.260   5.529 -0.1181 -0.3478  0.2417
   6723SM  H14S 8693   3.084   5.203   5.559  1.0452  0.7606 -0.9924
   6723SM  H14T 8694   3.016   5.347   5.463 -0.2644 -0.8311 -0.4630
   6723SM  C15S 8695   2.908   5.158   5.444 -0.3679 -0.1348 -0.1027
   6723SM  H15S 8696   2.813   5.210   5.421  1.1816  3.0438  0.1143
   6723SM  H15T 8697   2.895   5.070   5.511 -0.8626 -0.1185 -0.1720
   6723SM  C16S 8698   2.983   5.098   5.323 -0.4381 -0.1783  0.2820
   6723SM  H16S 8699   2.909   5.052   5.255  0.2332  0.7950 -1.1724
   6723SM  H16T 8700   3.062   5.027   5.355 -0.5798 -0.7078 -0.5232
   6723SM  C17S 8701   3.055   5.204   5.241  0.2760 -0.5448  0.3424
   6723SM  H17S 8702   3.153   5.222   5.290  1.9492 -1.0330 -2.5793
   6723SM  H17T 8703   3.009   5.305   5.236 -1.2326 -1.2329 -0.3831
   6723SM  C18S 8704   3.066   5.168   5.094 -0.4911  0.3601 -0.0339
   6723SM  H18S 8705   3.140   5.086   5.081 -0.0469  1.0494 -2.4485
   6723SM  H18T 8706   3.114   5.252   5.039  0.8728  1.1832  2.2798
   6723SM  H18U 8707   2.968   5.134   5.055  0.0429 -2.1498  0.6532
   6723SM   C1F 8708   2.720   5.744   6.682 -0.4006 -0.9291 -0.1818
   6723SM    OF 8709   2.674   5.854   6.702  0.2240  1.0319  0.5423
   6723SM   C2F 8710   2.639   5.624   6.640 -0.1264  0.6251  0.3804
   6723SM   H2F 8711   2.546   5.653   6.586  0.1572 -0.9204 -1.0340
   6723SM   H2G 8712   2.609   5.560   6.726 -2.3681 -0.4019 -1.0679
   6723SM   C3F 8713   2.728   5.546   6.541 -0.6052 -0.5763  0.3641
   6723SM   H3F 8714   2.817   5.516   6.599 -1.2631  0.3899  1.9299
   6723SM   H3G 8715   2.757   5.609   6.454 -1.5480 -0.6721 -0.0284
   6723SM   C4F 8716   2.670   5.411   6.486 -0.1534 -0.6757  0.3152
   6723SM   H4F 8717   2.564   5.430   6.460 -0.2957 -0.3767  1.1027
   6723SM   H4G 8718   2.674   5.330   6.561  2.5384  0.0937  1.1110
   6723SM   C5F 8719   2.759   5.362   6.370  0.5739  0.0079  0.3287
   6723SM   H5F 8720   2.860   5.344   6.413  0.1633 -1.4362  0.7618
   6723SM   H5G 8721   2.774   5.441   6.294  0.4237  0.8819  1.1895
   6723SM   C6F 8722   2.710   5.229   6.305 -0.6894 -0.2036 -0.0892
   6723SM   H6F 8723   2.603   5.237   6.275 -1.4330  0.1376  2.4341
   6723SM   H6G 8724   2.716   5.149   6.381 -3.3775 -1.4587 -1.0640
   6723SM   C7F 8725   2.792   5.190   6.180 -0.2335 -0.2017 -0.4110
   6723SM   H7F 8726   2.899   5.187   6.209 -0.6023 -1.2818  0.9783
   6723SM   H7G 8727   2.777   5.270   6.105 -1.2623  0.8985  0.9094
   6723SM   C8F 8728   2.762   5.060   6.117  0.1332  0.5736  0.5747
   6723SM   H8F 8729   2.653   5.075   6.109  0.2745  1.4036  0.1939
   6723SM   H8G 8730   2.792   4.978   6.187 -0.1321 -0.7346 -0.7953
   6723SM   C9F 8731   2.841   5.046   5.986 -0.0603 -0.4410 -0.3294
   6723SM   H9F 8732   2.946   5.032   6.019  0.1627  0.0643 -0.8274
   6723SM   H9G 8733   2.827   5.139   5.928 -2.1147 -1.5288 -1.7224
   6723SM  C10F 8734   2.796   4.917   5.905  0.3531 -0.4499 -0.4941
   6723SM  H10F 8735   2.686   4.924   5.890  0.5789  1.5135 -1.6518
   6723SM  H10G 8736   2.813   4.827   5.967 -0.1172 -0.9351 -1.0623
   6723SM  C11F 8737   2.873   4.906   5.772  0.1085  0.9607 -0.1386
   6723SM  H11F 8738   2.978   4.873   5.790 -0.4932 -1.4845 -0.6711
   6723SM  H11G 8739   2.873   5.004   5.721 -1.2282  0.7680 -0.5644
   6723SM  C12F 8740   2.801   4.798   5.689  0.2185  0.4305 -0.1963
   6723SM  H12F 8741   2.697   4.806   5.652 -0.4059 -0.8326  1.2007
   6723SM  H12G 8742   2.800   4.710   5.757  2.4265  0.0094 -0.6098
   6723SM  C13F 8743   2.880   4.768   5.559  0.0349  0.1909  0.5725
   6723SM  H13F 8744   2.984   4.746   5.592 -1.3122 -0.5513  4.8343
   6723SM  H13G 8745   2.873   4.864   5.504 -0.2663  1.2959  2.4547
   6723SM  C14F 8746   2.827   4.662   5.465  0.4718  0.1795  0.2678
   6723SM  H14F 8747   2.821   4.565   5.519  0.5562  0.5281  0.9116
   6723SM  H14G 8748   2.902   4.665   5.383  2.2339  0.1160  1.7953
   6723SM  C15F 8749   2.692   4.698   5.388  0.1886  0.3998 -0.8693
   6723SM  H15F 8750   2.614   4.694   5.467  0.9850 -1.3171 -0.1229
   6723SM  H15G 8751   2.668   4.616   5.317 -0.1893 -1.2845  1.1005
   6723SM  C16F 8752   2.683   4.827   5.314  0.4067 -0.2541 -0.4091
   6723SM  H16F 8753   2.757   4.823   5.232 -0.3467  3.5043 -1.4458
   6723SM  H16G 8754   2.723   4.921   5.358  3.1805 -0.7481 -1.6926
   6723SM  C17F 8755   2.537   4.853   5.264 -0.4162  0.9665  0.3063
   6723SM  H17F 8756   2.462   4.793   5.321  0.0406 -0.3877 -0.4840
   6723SM  H17G 8757   2.524   4.823   5.158  3.3567  0.5342 -0.1711
   6723SM  C18F 8758   2.497   5.005   5.288 -0.1512 -0.1796  0.0526
   6723SM  H18F 8759   2.584   5.068   5.260 -1.1888  0.8884 -0.8905
   6723SM  H18G 8760   2.475   5.010   5.397 -1.3604  1.1659 -0.2178
   6723SM  C19F 8761   2.376   5.041   5.205 -0.1850 -0.2265 -0.4832
   6723SM  H19F 8762   2.389   4.997   5.103 -0.0723 -0.2910 -0.4411
   6723SM  H19G 8763   2.369   5.151   5.194 -1.7464 -0.3195 -0.7574
   6723SM  C20F 8764   2.241   4.989   5.254  0.4418  0.1812 -0.2498
   6723SM  H20F 8765   2.236   5.031   5.357  1.6300  0.1909 -0.1787
   6723SM  H20G 8766   2.244   4.878   5.248 -1.8271  0.1390 -3.1391
   6723SM  C21F 8767   2.117   5.032   5.177  0.8593  0.3281 -0.0575
   6723SM  H21F 8768   2.125   4.985   5.077  2.2866  0.1126  0.1371
   6723SM  H21G 8769   2.092   5.139   5.167 -3.3910 -0.4662  0.1393
   6723SM  C22F 8770   1.994   4.966   5.240 -0.0667 -0.0189  0.4516
   6723SM  H22F 8771   2.019   4.860   5.260  0.1909 -0.5358 -2.1777
   6723SM  H22G 8772   1.911   4.952   5.167  0.5092 -1.3393  0.0267
   6723SM  C23F 8773   1.947   5.041   5.369 -0.2407  0.6033  0.1902
   6723SM  H23F 8774   1.938   5.146   5.334 -1.0678  0.5372  0.2031
   6723SM  H23G 8775   2.015   5.019   5.454  1.7120 -0.5111 -1.5604
   6723SM  H23H 8776   1.853   4.996   5.405  0.0027 -0.1513 -0.0927
   6823SM     N 8777   1.751   1.039   7.086 -0.2575  0.1271  0.0204
   6823SM   C15 8778   1.864   1.100   7.152  0.8121  0.1530 -0.4572
   6823SM  H15A 8779   1.927   1.026   7.199  0.6090 -0.8501 -1.7130
   6823SM  H15B 8780   1.830   1.161   7.235  1.7394 -0.1350  0.1535
   6823SM  H15C 8781   1.927   1.167   7.096  1.6825 -0.4041 -0.1703
   6823SM   C14 8782   1.688   0.941   7.178  0.2399 -1.1160 -0.0966
   6823SM  H14A 8783   1.603   0.884   7.145 -0.5727  1.1903 -2.3647
   6823SM  H14B 8784   1.662   0.999   7.266  1.1821  2.0433 -1.7393
   6823SM  H14C 8785   1.759   0.872   7.221  1.1963 -0.9293 -1.3071
   6823SM   C13 8786   1.640   1.142   7.054  0.2905  0.8438  0.1761
   6823SM  H13A 8787   1.545   1.095   7.031  1.6528 -2.5498  0.8952
   6823SM  H13B 8788   1.671   1.206   6.972 -0.0703  1.1982  0.3147
   6823SM  H13C 8789   1.625   1.215   7.132 -0.5002  0.5391  0.3174
   6823SM   C12 8790   1.797   0.964   6.959 -0.7285  0.0485  0.1347
   6823SM  H12A 8791   1.718   0.907   6.913 -0.0244  1.1802 -2.7181
   6823SM  H12B 8792   1.872   0.892   6.987  2.2506  2.9267  0.1128
   6823SM   C11 8793   1.875   1.050   6.860  0.4300  0.0547 -0.1481
   6823SM  H11A 8794   1.811   1.138   6.839  1.6976  0.6690 -1.6753
   6823SM  H11B 8795   1.877   1.005   6.758  1.2446  0.8497 -0.4897
   6823SM     P 8796   2.120   0.974   6.884  0.0468  0.1082 -0.1734
   6823SM   O13 8797   2.242   1.025   6.953 -0.4041  0.1903  0.2801
   6823SM   O14 8798   2.077   0.835   6.925 -0.2850 -0.6366  0.8527
   6823SM   O11 8799   2.137   0.987   6.728  0.6544  0.4086  0.2232
   6823SM   O12 8800   2.008   1.073   6.908 -0.2638  0.4655  0.5380
   6823SM   C1S 8801   2.242   1.066   6.672 -1.1022 -1.1891 -0.1054
   6823SM   H1S 8802   2.343   1.032   6.703 -1.1201 -0.9378  0.2319
   6823SM   H1T 8803   2.234   1.173   6.701  1.6252 -0.6196 -1.1290
   6823SM    NF 8804   2.358   1.128   6.464 -0.7126 -0.5567  0.3646
   6823SM   HNF 8805   2.365   1.222   6.431  1.8703 -0.3565  1.2469
   6823SM   C2S 8806   2.233   1.079   6.514 -0.9121 -0.3188 -0.5115
   6823SM   H2S 8807   2.233   0.974   6.476 -1.7598 -0.2005 -0.8578
   6823SM   C3S 8808   2.111   1.159   6.473 -0.1832  0.2488  0.2715
   6823SM   H3S 8809   2.123   1.262   6.513  0.2407 -0.2022  1.3452
   6823SM    O3 8810   1.988   1.107   6.523 -0.0901 -0.1423 -0.2024
   6823SM   HO3 8811   2.019   1.055   6.598 -1.9830 -1.8235 -0.5248
   6823SM   C4S 8812   2.104   1.161   6.327  0.2384 -0.2054  0.4333
   6823SM   H4S 8813   2.094   1.062   6.280 -0.4400  0.3337 -0.5944
   6823SM   C5S 8814   2.088   1.263   6.240 -0.8278 -0.1258  0.1964
   6823SM   H5S 8815   2.085   1.368   6.274  0.7542 -0.0333  0.1365
   6823SM   C6S 8816   2.061   1.247   6.095 -0.1741  0.1725 -0.4104
   6823SM   H6S 8817   1.976   1.314   6.066 -1.5255  0.0157  2.7396
   6823SM   H6T 8818   2.036   1.143   6.067 -1.0408  0.0032  0.8734
   6823SM   C7S 8819   2.175   1.305   6.005 -0.3877  0.1520  0.5959
   6823SM   H7S 8820   2.273   1.258   6.028 -0.4922 -0.7590 -0.7068
   6823SM   H7T 8821   2.177   1.415   6.020 -1.0004  0.5093 -1.5239
   6823SM   C8S 8822   2.161   1.276   5.849 -0.2516  0.6907 -0.4803
   6823SM   H8S 8823   2.155   1.165   5.838  1.6090  0.6250 -1.2294
   6823SM   H8T 8824   2.257   1.301   5.798  0.5909 -1.7378 -0.2495
   6823SM   C9S 8825   2.044   1.340   5.776  0.0922  0.5246 -0.4502
   6823SM   H9S 8826   2.067   1.447   5.759 -0.4244  0.5706 -0.8923
   6823SM   H9T 8827   1.947   1.336   5.828 -0.7571 -1.6845 -2.0109
   6823SM  C10S 8828   2.010   1.277   5.632  0.5858  0.5982 -0.1571
   6823SM  H10S 8829   1.919   1.326   5.590  0.4788  0.0207 -0.6028
   6823SM  H10T 8830   1.987   1.170   5.647  1.3331  0.8023  3.1792
   6823SM  C11S 8831   2.125   1.307   5.530 -0.2232 -0.0465  0.0810
   6823SM  H11S 8832   2.220   1.277   5.579  0.6674  0.7761 -1.0885
   6823SM  H11T 8833   2.126   1.411   5.493 -2.2563 -0.1057 -0.2846
   6823SM  C12S 8834   2.120   1.204   5.411  0.0459 -0.0237  0.2177
   6823SM  H12S 8835   2.018   1.221   5.370  1.3329  2.4127 -2.3056
   6823SM  H12T 8836   2.120   1.100   5.452 -0.0120 -0.3896 -0.6754
   6823SM  C13S 8837   2.225   1.232   5.299 -0.5155  0.9570  0.1737
   6823SM  H13S 8838   2.190   1.325   5.248  2.3874  1.2055 -1.5920
   6823SM  H13T 8839   2.226   1.148   5.226  1.5705 -0.6728  1.9587
   6823SM  C14S 8840   2.373   1.256   5.346  0.6689 -0.2093 -0.3607
   6823SM  H14S 8841   2.381   1.191   5.435 -2.7986  0.3647  0.4777
   6823SM  H14T 8842   2.373   1.362   5.378  1.7006 -0.1399 -0.5372
   6823SM  C15S 8843   2.478   1.217   5.238 -0.4726 -0.3736 -0.1913
   6823SM  H15S 8844   2.461   1.295   5.161 -1.3077  0.4140  0.7599
   6823SM  H15T 8845   2.450   1.125   5.184  0.1720 -0.5920 -0.1700
   6823SM  C16S 8846   2.626   1.212   5.287  0.0839 -0.1441  0.3401
   6823SM  H16S 8847   2.682   1.151   5.213  0.3902 -1.0291  1.2696
   6823SM  H16T 8848   2.617   1.147   5.377 -1.8908 -0.0502  0.2398
   6823SM  C17S 8849   2.680   1.352   5.313 -1.2692  0.1595  1.0334
   6823SM  H17S 8850   2.628   1.397   5.400 -1.6770  2.7237 -0.4269
   6823SM  H17T 8851   2.664   1.424   5.230  1.2561  1.5760  1.6624
   6823SM  C18S 8852   2.832   1.342   5.341 -0.3692  0.6747  0.0201
   6823SM  H18S 8853   2.840   1.320   5.449 -0.2655 -0.3799 -0.1969
   6823SM  H18T 8854   2.890   1.433   5.313  0.1455  1.1659  2.4540
   6823SM  H18U 8855   2.874   1.253   5.289  0.4959 -0.2081  2.1511
   6823SM   C1F 8856   2.469   1.066   6.444 -0.2438 -0.5588  0.1398
   6823SM    OF 8857   2.496   0.960   6.503  0.6348  0.6537  0.1472
   6823SM   C2F 8858   2.563   1.118   6.331  0.1021 -0.6488 -0.1169
   6823SM   H2F 8859   2.500   1.188   6.271  0.6999  1.6647  1.8050
   6823SM   H2G 8860   2.591   1.027   6.274 -1.2363 -0.2674 -1.4562
   6823SM   C3F 8861   2.689   1.180   6.385 -0.8858  0.4155 -0.3159
   6823SM   H3F 8862   2.768   1.190   6.308  1.3074 -3.4746  1.1272
   6823SM   H3G 8863   2.728   1.106   6.459  0.4366 -0.6331 -1.9805
   6823SM   C4F 8864   2.673   1.312   6.452  0.5449 -0.7292 -0.1997
   6823SM   H4F 8865   2.760   1.332   6.517  0.5584  3.3422 -1.2290
   6823SM   H4G 8866   2.581   1.305   6.515 -0.5717  0.0382 -1.6677
   6823SM   C5F 8867   2.649   1.441   6.358  0.0403  0.1466 -0.2665
   6823SM   H5F 8868   2.626   1.522   6.431  0.4457 -1.3485  1.6146
   6823SM   H5G 8869   2.565   1.416   6.291 -0.1788 -0.8829  0.3624
   6823SM   C6F 8870   2.770   1.477   6.264 -0.7908  0.4695 -0.4718
   6823SM   H6F 8871   2.723   1.557   6.203 -0.7772  1.6466  0.9943
   6823SM   H6G 8872   2.807   1.392   6.202 -1.6140  0.5117 -1.0303
   6823SM   C7F 8873   2.881   1.557   6.332  0.0206  0.1191  0.6062
   6823SM   H7F 8874   2.957   1.486   6.370 -1.5766 -2.1863 -0.3085
   6823SM   H7G 8875   2.834   1.621   6.410 -1.1571 -0.5901  0.5002
   6823SM   C8F 8876   2.955   1.650   6.236 -0.0310 -0.5963  0.2521
   6823SM   H8F 8877   2.880   1.694   6.167  0.8522 -0.8554 -0.9016
   6823SM   H8G 8878   3.037   1.595   6.187  0.0060 -1.3538  1.1332
   6823SM   C9F 8879   3.014   1.771   6.307  0.2315  0.0415  0.5876
   6823SM   H9F 8880   3.097   1.749   6.377  2.2057 -0.2970 -1.7406
   6823SM   H9G 8881   2.927   1.813   6.362 -0.0893 -0.8032  0.7415
   6823SM  C10F 8882   3.064   1.876   6.202 -0.3883 -0.1044  0.4403
   6823SM  H10F 8883   3.109   1.958   6.263  1.3583  0.2988 -1.2574
   6823SM  H10G 8884   2.975   1.909   6.145 -1.7006  0.3125  2.6311
   6823SM  C11F 8885   3.168   1.818   6.105 -0.1457 -1.0368 -0.7136
   6823SM  H11F 8886   3.121   1.731   6.055 -0.0457 -1.6597  0.2480
   6823SM  H11G 8887   3.254   1.779   6.164 -0.6038 -0.4087  0.4154
   6823SM  C12F 8888   3.215   1.925   5.999 -0.0126 -0.2309  0.3363
   6823SM  H12F 8889   3.272   2.008   6.047 -2.1118  1.0840  0.7194
   6823SM  H12G 8890   3.123   1.966   5.951  0.0948 -1.6084 -1.1084
   6823SM  C13F 8891   3.296   1.876   5.870  0.2482  0.0482 -0.5830
   6823SM  H13F 8892   3.238   1.788   5.835 -2.4906  1.3069  0.5143
   6823SM  H13G 8893   3.391   1.846   5.919 -0.8270 -0.9779  0.9575
   6823SM  C14F 8894   3.325   1.987   5.767  0.3587  0.1436  0.3686
   6823SM  H14F 8895   3.345   2.073   5.834 -1.9111  0.5254  0.6414
   6823SM  H14G 8896   3.234   2.004   5.705 -1.1729 -3.5431  1.3092
   6823SM  C15F 8897   3.457   1.964   5.695 -0.1489 -0.6166  0.7167
   6823SM  H15F 8898   3.540   1.945   5.767 -0.2976 -1.4128  0.6764
   6823SM  H15G 8899   3.477   2.057   5.636  1.0307 -1.5033 -0.3559
   6823SM  C16F 8900   3.452   1.850   5.594 -0.2843 -0.7620  0.3346
   6823SM  H16F 8901   3.376   1.851   5.513 -0.2308 -1.1112  0.2794
   6823SM  H16G 8902   3.427   1.766   5.662  1.2937 -2.3555 -0.9512
   6823SM  C17F 8903   3.585   1.824   5.530 -0.2063 -0.3637  0.1346
   6823SM  H17F 8904   3.573   1.715   5.511  1.8703 -0.0639 -3.7495
   6823SM  H17G 8905   3.676   1.845   5.590  0.0579  0.1373 -0.4310
   6823SM  C18F 8906   3.602   1.887   5.388  0.5285  0.0085 -0.8235
   6823SM  H18F 8907   3.501   1.860   5.351 -0.3373 -1.7738  2.4576
   6823SM  H18G 8908   3.678   1.835   5.325 -0.5714 -0.5898 -1.6841
   6823SM  C19F 8909   3.628   2.041   5.371 -0.3441 -0.3401  0.5192
   6823SM  H19F 8910   3.694   2.084   5.450 -0.9065  2.5412 -0.4613
   6823SM  H19G 8911   3.534   2.098   5.383 -0.5833 -0.7753  0.7261
   6823SM  C20F 8912   3.678   2.072   5.227 -0.0145 -0.2978  0.4576
   6823SM  H20F 8913   3.787   2.055   5.217  0.4371  2.8620 -1.2613
   6823SM  H20G 8914   3.679   2.182   5.209 -1.1777 -0.4471 -0.6637
   6823SM  C21F 8915   3.601   2.002   5.113  0.4676 -0.3130  0.0213
   6823SM  H21F 8916   3.626   1.893   5.112 -1.5927 -0.8246  0.2802
   6823SM  H21G 8917   3.628   2.051   5.017 -4.1837  1.7477 -0.4951
   6823SM  C22F 8918   3.447   2.030   5.118 -0.0506  0.9752  0.2660
   6823SM  H22F 8919   3.403   2.012   5.219  0.7395 -0.8890  0.3238
   6823SM  H22G 8920   3.404   1.952   5.051 -2.5858  0.8508  1.8820
   6823SM  C23F 8921   3.412   2.171   5.071  0.1570  0.2140  0.3623
   6823SM  H23F 8922   3.305   2.201   5.060  0.1123 -0.5112 -1.4719
   6823SM  H23G 8923   3.439   2.187   4.964  1.3544 -1.5580  0.3620
   6823SM  H23H 8924   3.463   2.249   5.132  0.3329  0.0148  0.4692
   6923SM     N 8925   5.672   1.680   7.117  0.1926  0.2363  0.1347
   6923SM   C15 8926   5.587   1.649   7.230 -0.4012  0.5112  0.1221
   6923SM  H15A 8927   5.643   1.592   7.302 -1.7209 -1.7686 -0.5276
   6923SM  H15B 8928   5.498   1.597   7.199 -0.2579  0.9271 -1.0544
   6923SM  H15C 8929   5.549   1.730   7.290 -1.2151 -0.9129  1.5933
   6923SM   C14 8930   5.802   1.735   7.170 -0.0171  0.7225 -0.5771
   6923SM  H14A 8931   5.854   1.657   7.224  0.2007  1.6793  0.6393
   6923SM  H14B 8932   5.787   1.817   7.237 -0.3557  2.6348 -2.8657
   6923SM  H14C 8933   5.862   1.780   7.092  0.8735  1.0220  0.2555
   6923SM   C13 8934   5.696   1.551   7.037 -0.4560 -0.3866  0.4008
   6923SM  H13A 8935   5.750   1.566   6.945  0.4066 -0.5022  0.8817
   6923SM  H13B 8936   5.603   1.508   7.003  0.6461 -0.5924 -2.6568
   6923SM  H13C 8937   5.739   1.473   7.098 -0.1086  0.3022  1.0525
   6923SM   C12 8938   5.604   1.777   7.023  0.3924  0.1298  0.8394
   6923SM  H12A 8939   5.580   1.865   7.080 -0.4427  0.3954  0.0847
   6923SM  H12B 8940   5.506   1.750   6.988 -0.2843  1.9867  1.2127
   6923SM   C11 8941   5.674   1.820   6.898  0.0560 -0.1420  0.1992
   6923SM  H11A 8942   5.600   1.838   6.817  0.4004  0.7709  0.0818
   6923SM  H11B 8943   5.740   1.740   6.857 -0.3927  0.2994 -1.4529
   6923SM     P 8944   5.686   2.069   6.949  0.5183 -0.0839 -0.0342
   6923SM   O13 8945   5.573   2.054   7.046 -0.2961 -0.3368 -0.1339
   6923SM   O14 8946   5.782   2.184   6.964  0.3454 -0.0755  0.5956
   6923SM   O11 8947   5.625   2.083   6.806  0.3866  0.2642 -0.0726
   6923SM   O12 8948   5.757   1.933   6.927  0.1686 -0.0426  0.1956
   6923SM   C1S 8949   5.481   2.099   6.798  0.1479 -0.2844 -0.4119
   6923SM   H1S 8950   5.436   2.173   6.867 -1.8782 -0.7607 -1.1641
   6923SM   H1T 8951   5.434   1.999   6.806 -1.5726  0.3930 -1.5079
   6923SM    NF 8952   5.305   2.172   6.658 -0.0442  0.5677  0.4895
   6923SM   HNF 8953   5.228   2.110   6.671  0.1827  0.3827  0.9404
   6923SM   C2S 8954   5.442   2.133   6.659 -0.2314  0.0721 -0.1520
   6923SM   H2S 8955   5.500   2.219   6.620 -2.0935  0.9144 -1.1699
   6923SM   C3S 8956   5.473   2.017   6.557 -0.4725 -0.5243 -0.6508
   6923SM   H3S 8957   5.428   1.928   6.606  1.3905 -2.6363 -2.4892
   6923SM    O3 8958   5.613   1.976   6.562  0.0381 -0.1084  0.5249
   6923SM   HO3 8959   5.637   2.028   6.639 -1.5140  0.5261  0.6267
   6923SM   C4S 8960   5.411   2.018   6.417 -0.6085 -0.1580  0.0863
   6923SM   H4S 8961   5.304   1.991   6.424 -0.9800  1.1261 -0.3696
   6923SM   C5S 8962   5.469   2.064   6.300  0.7015 -0.2099 -0.8206
   6923SM   H5S 8963   5.567   2.111   6.317  0.6511 -0.5327  0.4404
   6923SM   C6S 8964   5.413   2.071   6.163 -0.2815 -0.1642 -0.3938
   6923SM   H6S 8965   5.457   1.993   6.097 -0.8011  0.5375 -1.6072
   6923SM   H6T 8966   5.444   2.165   6.112 -0.0357 -0.4570 -0.7904
   6923SM   C7S 8967   5.260   2.068   6.156 -0.1803  0.2341 -0.4826
   6923SM   H7S 8968   5.208   2.145   6.218 -1.2908 -1.3870  0.6936
   6923SM   H7T 8969   5.227   1.977   6.211 -0.1100  0.8247  0.5788
   6923SM   C8S 8970   5.205   2.068   6.012 -0.1430  0.2436  0.3456
   6923SM   H8S 8971   5.282   2.026   5.943 -1.6435  1.0985 -1.9561
   6923SM   H8T 8972   5.175   2.169   5.976  0.0835 -0.1903 -1.1188
   6923SM   C9S 8973   5.070   1.991   6.001 -0.3688 -0.4533 -0.5711
   6923SM   H9S 8974   5.001   2.035   6.076 -1.4623 -1.0712 -1.1875
   6923SM   H9T 8975   5.099   1.885   6.016  0.6004 -0.5341 -2.6567
   6923SM  C10S 8976   5.009   2.004   5.864 -0.3129 -0.6470 -0.3469
   6923SM  H10S 8977   5.017   2.110   5.830 -0.4203 -0.1699  1.0395
   6923SM  H10T 8978   4.905   1.966   5.867  0.1438 -1.8471  0.9816
   6923SM  C11S 8979   5.080   1.913   5.754  0.3847 -0.6700  0.0432
   6923SM  H11S 8980   5.075   1.810   5.794 -0.1271 -0.5537  0.2899
   6923SM  H11T 8981   5.188   1.941   5.748  0.5464 -0.5200  2.6524
   6923SM  C12S 8982   5.021   1.923   5.611 -0.5813  0.1156 -0.4664
   6923SM  H12S 8983   5.046   2.019   5.560  0.1941 -0.5328 -1.3228
   6923SM  H12T 8984   4.910   1.926   5.620 -0.6997  0.1488 -1.7834
   6923SM  C13S 8985   5.067   1.804   5.528 -0.5062 -0.3004 -0.6825
   6923SM  H13S 8986   5.025   1.712   5.574  2.4635 -3.1016 -3.1397
   6923SM  H13T 8987   5.172   1.793   5.561 -1.1109 -1.0089  1.1131
   6923SM  C14S 8988   5.046   1.809   5.378 -0.0056  0.3615  0.3941
   6923SM  H14S 8989   5.085   1.711   5.342  0.4558  0.1795  1.3433
   6923SM  H14T 8990   5.101   1.892   5.330  0.8120  1.4678  3.0549
   6923SM  C15S 8991   4.899   1.827   5.334  0.0676 -0.7936 -0.1686
   6923SM  H15S 8992   4.865   1.927   5.369  2.9921  0.1584  0.2864
   6923SM  H15T 8993   4.830   1.747   5.367  0.4885 -0.7168  0.9519
   6923SM  C16S 8994   4.889   1.830   5.187  0.4257  0.1428  0.2271
   6923SM  H16S 8995   4.913   1.727   5.152  1.8197  0.7496 -0.7048
   6923SM  H16T 8996   4.956   1.906   5.141 -0.1443  0.1447 -0.6112
   6923SM  C17S 8997   4.751   1.846   5.139  0.0232  0.3855  0.0872
   6923SM  H17S 8998   4.711   1.942   5.179 -0.7548 -0.1046  0.5069
   6923SM  H17T 8999   4.688   1.768   5.186  0.5572 -0.3206 -0.3607
   6923SM  C18S 9000   4.726   1.861   4.986  0.0036  0.2238  0.3997
   6923SM  H18S 9001   4.806   1.923   4.940 -0.4574 -0.8115 -1.8983
   6923SM  H18T 9002   4.628   1.911   4.972 -0.3033 -0.9019 -1.9635
   6923SM  H18U 9003   4.739   1.765   4.932 -0.1414  1.4531 -1.9489
   6923SM   C1F 9004   5.270   2.301   6.675  0.2017 -0.2499 -0.0658
   6923SM    OF 9005   5.356   2.381   6.723  0.7149  0.4800  0.7134
   6923SM   C2F 9006   5.120   2.346   6.655 -0.6087 -0.9358 -0.5696
   6923SM   H2F 9007   5.083   2.379   6.754 -1.3346  1.1699 -1.4795
   6923SM   H2G 9008   5.065   2.253   6.632  0.6847 -2.0627  0.6527
   6923SM   C3F 9009   5.108   2.451   6.543  0.4792 -0.0300 -0.9313
   6923SM   H3F 9010   5.152   2.547   6.579 -1.6569  1.2432 -1.4993
   6923SM   H3G 9011   4.999   2.472   6.533  0.2322 -0.2871  0.9195
   6923SM   C4F 9012   5.170   2.414   6.411 -0.4263  0.2212  0.3449
   6923SM   H4F 9013   5.126   2.322   6.367  1.5243 -0.9900  0.8113
   6923SM   H4G 9014   5.277   2.399   6.437 -0.1884  0.6401 -0.3655
   6923SM   C5F 9015   5.177   2.528   6.306  0.1711  0.2926  0.4557
   6923SM   H5F 9016   5.242   2.610   6.343  1.5795 -0.2384 -0.6868
   6923SM   H5G 9017   5.073   2.566   6.306 -0.5942 -1.6081 -0.8364
   6923SM   C6F 9018   5.229   2.479   6.166 -0.1273  0.7730 -0.0027
   6923SM   H6F 9019   5.173   2.389   6.133 -0.0842  1.7868 -3.2506
   6923SM   H6G 9020   5.334   2.443   6.161 -0.1860  0.1559  2.2130
   6923SM   C7F 9021   5.206   2.580   6.060 -0.2017  0.1323  0.6410
   6923SM   H7F 9022   5.268   2.669   6.087  2.4853 -1.5468  0.3811
   6923SM   H7G 9023   5.101   2.617   6.060  0.1311  1.1616 -0.6515
   6923SM   C8F 9024   5.259   2.535   5.917 -0.2572 -0.4198  0.0087
   6923SM   H8F 9025   5.191   2.459   5.874 -2.4226  0.9565  0.7683
   6923SM   H8G 9026   5.357   2.487   5.933 -0.0336  0.0862  0.2077
   6923SM   C9F 9027   5.296   2.649   5.818  0.0729  0.6197  0.7622
   6923SM   H9F 9028   5.387   2.703   5.854  0.2455  3.7653 -3.5642
   6923SM   H9G 9029   5.213   2.723   5.819 -0.2820  0.2133  1.2868
   6923SM  C10F 9030   5.315   2.597   5.674 -0.6885  0.4399  0.7957
   6923SM  H10F 9031   5.232   2.532   5.639  0.3867 -2.6609  3.5129
   6923SM  H10G 9032   5.396   2.525   5.695 -0.4623  1.3248  3.3411
   6923SM  C11F 9033   5.358   2.716   5.585  0.5217 -0.1293 -0.4965
   6923SM  H11F 9034   5.457   2.759   5.610 -0.0312  0.7865  0.2274
   6923SM  H11G 9035   5.282   2.796   5.602  0.1360 -1.0320  2.6012
   6923SM  C12F 9036   5.376   2.673   5.436  0.2362 -0.3635 -0.1216
   6923SM  H12F 9037   5.282   2.617   5.414  0.6224 -1.9997  2.0338
   6923SM  H12G 9038   5.460   2.600   5.435  0.9626  0.3822 -2.6181
   6923SM  C13F 9039   5.409   2.794   5.349 -0.1143 -0.0404  0.1268
   6923SM  H13F 9040   5.496   2.847   5.393 -0.8424  0.3057  1.1874
   6923SM  H13G 9041   5.329   2.870   5.337  0.7031  0.5112 -2.1710
   6923SM  C14F 9042   5.447   2.754   5.203  0.1576 -0.7084 -0.3873
   6923SM  H14F 9043   5.521   2.672   5.191  1.2049  0.5643 -3.7712
   6923SM  H14G 9044   5.498   2.841   5.156 -0.9481  0.4689  0.5324
   6923SM  C15F 9045   5.325   2.728   5.112  0.2347 -0.5849  0.0527
   6923SM  H15F 9046   5.287   2.826   5.077 -1.0759 -1.2345 -0.4410
   6923SM  H15G 9047   5.253   2.673   5.176 -0.6653 -1.7844 -1.8684
   6923SM  C16F 9048   5.356   2.648   4.984 -0.2755 -0.0220  0.0716
   6923SM  H16F 9049   5.414   2.554   5.000  0.2478  0.1583 -0.7167
   6923SM  H16G 9050   5.410   2.710   4.910 -0.9594  1.1579  0.5410
   6923SM  C17F 9051   5.217   2.619   4.921 -0.4496  0.2660  0.2178
   6923SM  H17F 9052   5.162   2.715   4.909 -0.6633  0.0727 -0.3895
   6923SM  H17G 9053   5.146   2.570   4.991  1.4697 -0.2930  1.8687
   6923SM  C18F 9054   5.228   2.527   4.796 -0.2484  0.2747  0.2032
   6923SM  H18F 9055   5.226   2.419   4.823 -0.2042  0.3683  0.5793
   6923SM  H18G 9056   5.326   2.538   4.745 -0.5550  0.1624 -0.4163
   6923SM  C19F 9057   5.129   2.561   4.682  0.1201  0.4004  0.4350
   6923SM  H19F 9058   5.164   2.657   4.639  0.1420  0.1194 -0.1761
   6923SM  H19G 9059   5.021   2.560   4.710 -0.5683  2.8397 -1.8020
   6923SM  C20F 9060   5.146   2.467   4.568 -0.1372 -0.1101  0.1496
   6923SM  H20F 9061   5.147   2.361   4.603  0.9134 -0.3780 -0.6513
   6923SM  H20G 9062   5.248   2.486   4.529 -0.3954 -0.9445 -0.9903
   6923SM  C21F 9063   5.040   2.481   4.454  0.5715 -0.2643  0.2940
   6923SM  H21F 9064   5.012   2.587   4.437  0.3205 -0.4247 -0.3093
   6923SM  H21G 9065   4.949   2.423   4.484  0.2998  0.1733  0.3152
   6923SM  C22F 9066   5.073   2.409   4.323  0.1803 -0.0419  0.3404
   6923SM  H22F 9067   5.121   2.309   4.330 -0.7028 -0.6085 -1.1663
   6923SM  H22G 9068   5.154   2.469   4.274 -1.1611  0.7785 -0.9536
   6923SM  C23F 9069   4.952   2.396   4.226 -0.1700 -1.0285 -0.0952
   6923SM  H23F 9070   4.873   2.336   4.277  1.4582 -0.3609  3.5690
   6923SM  H23G 9071   4.973   2.339   4.134 -1.4431 -1.2571 -0.2693
   6923SM  H23H 9072   4.902   2.495   4.212 -1.5611 -1.5056  1.2357
   7023SM     N 9073   4.399   1.826   7.260  0.0352 -0.7588  0.1555
   7023SM   C15 9074   4.503   1.922   7.214  0.0791 -0.0491  0.3133
   7023SM  H15A 9075   4.453   2.016   7.199 -2.9545 -1.6642 -0.5912
   7023SM  H15B 9076   4.545   1.881   7.123  2.4093  1.8280  0.4511
   7023SM  H15C 9077   4.587   1.935   7.282  0.7139 -1.4929 -0.1471
   7023SM   C14 9078   4.356   1.866   7.394  0.3703 -0.3010 -0.0528
   7023SM  H14A 9079   4.252   1.843   7.409  0.4970 -0.8859 -0.0455
   7023SM  H14B 9080   4.363   1.973   7.407  1.1572 -0.5425  1.8696
   7023SM  H14C 9081   4.419   1.831   7.475  1.1903  0.6319 -0.2703
   7023SM   C13 9082   4.279   1.830   7.170 -0.8594  0.2121 -0.0535
   7023SM  H13A 9083   4.316   1.807   7.071  3.1708 -0.1503  1.3216
   7023SM  H13B 9084   4.251   1.933   7.184  1.4636  0.7315  1.3837
   7023SM  H13C 9085   4.196   1.769   7.203 -0.6582  0.3492  0.7280
   7023SM   C12 9086   4.454   1.690   7.274  0.3181 -0.2715 -0.0769
   7023SM  H12A 9087   4.382   1.630   7.328  0.1443  0.9605  1.1011
   7023SM  H12B 9088   4.542   1.680   7.337  0.8220  0.4641 -0.6605
   7023SM   C11 9089   4.483   1.606   7.147 -0.6987  0.4649  0.1914
   7023SM  H11A 9090   4.395   1.604   7.079 -0.7339 -2.0278  0.2420
   7023SM  H11B 9091   4.498   1.501   7.177 -1.2955  0.4443  0.4224
   7023SM     P 9092   4.736   1.676   7.128  0.2602 -0.3553  0.2834
   7023SM   O13 9093   4.775   1.821   7.133  0.1533  0.1000  0.1270
   7023SM   O14 9094   4.757   1.594   7.252  0.0026 -0.5625 -0.7091
   7023SM   O11 9095   4.817   1.612   7.014 -0.0978 -0.0094 -0.0504
   7023SM   O12 9096   4.591   1.664   7.075  0.0553  0.1521 -0.3256
   7023SM   C1S 9097   4.764   1.628   6.881  0.4464  0.5507 -1.3851
   7023SM   H1S 9098   4.749   1.737   6.863  0.4865  1.1189  1.6084
   7023SM   H1T 9099   4.670   1.570   6.873  0.8245 -0.7628  2.2143
   7023SM    NF 9100   4.824   1.600   6.643 -0.2169  0.3010  0.4662
   7023SM   HNF 9101   4.781   1.537   6.578  0.3160  2.9737 -2.7039
   7023SM   C2S 9102   4.856   1.557   6.774 -0.2102  0.1056 -0.3451
   7023SM   H2S 9103   4.963   1.577   6.797 -0.1014 -1.2535  0.4789
   7023SM   C3S 9104   4.853   1.404   6.794 -1.0657  0.1506 -0.0010
   7023SM   H3S 9105   4.748   1.369   6.784 -0.8067 -0.8885  0.7764
   7023SM    O3 9106   4.881   1.371   6.930  0.3142 -0.0499 -0.3357
   7023SM   HO3 9107   4.878   1.452   6.981 -1.6792 -0.8723  0.9903
   7023SM   C4S 9108   4.938   1.326   6.696  0.6191 -0.6333 -0.6933
   7023SM   H4S 9109   4.878   1.303   6.606 -0.3825 -2.0812  0.2841
   7023SM   C5S 9110   5.059   1.274   6.693  0.5401  0.0500  0.4759
   7023SM   H5S 9111   5.126   1.291   6.778 -0.0926 -0.8222  1.1644
   7023SM   C6S 9112   5.118   1.190   6.579 -0.7181  0.4640 -0.1540
   7023SM   H6S 9113   5.106   1.083   6.603 -0.9373  0.0657 -1.8883
   7023SM   H6T 9114   5.225   1.211   6.558 -0.5967 -1.6540 -2.0456
   7023SM   C7S 9115   5.041   1.190   6.445  0.2506 -0.5851 -0.5279
   7023SM   H7S 9116   5.013   1.294   6.417 -1.1949 -0.4184  1.3099
   7023SM   H7T 9117   4.948   1.130   6.457 -0.3390  0.3350 -0.3275
   7023SM   C8S 9118   5.130   1.147   6.324  0.0767  0.5164 -0.2101
   7023SM   H8S 9119   5.161   1.041   6.337 -0.5482 -0.0194 -2.5688
   7023SM   H8T 9120   5.223   1.206   6.334  2.1714 -2.7981  1.7232
   7023SM   C9S 9121   5.058   1.177   6.194 -0.0468 -0.0103  0.4857
   7023SM   H9S 9122   5.089   1.281   6.169 -0.3170  0.3457  1.5798
   7023SM   H9T 9123   4.947   1.169   6.203 -0.2163  0.5474 -0.9389
   7023SM  C10S 9124   5.116   1.095   6.076  0.4074  0.0076 -0.4026
   7023SM  H10S 9125   5.091   0.988   6.091 -1.5419  0.6463  1.4224
   7023SM  H10T 9126   5.227   1.106   6.072  0.5514 -1.5155 -1.2700
   7023SM  C11S 9127   5.058   1.124   5.939 -0.6700  0.3743 -0.4911
   7023SM  H11S 9128   5.083   1.230   5.919  0.0427 -0.0908 -2.3103
   7023SM  H11T 9129   4.948   1.111   5.945 -0.7739  1.0615 -0.8304
   7023SM  C12S 9130   5.112   1.024   5.840  0.2417  0.2605 -0.1142
   7023SM  H12S 9131   5.082   0.920   5.864 -2.7820  1.0420 -0.0821
   7023SM  H12T 9132   5.222   1.042   5.841 -0.0382  2.2527  1.4156
   7023SM  C13S 9133   5.060   1.061   5.698  0.0377 -0.4655  0.3028
   7023SM  H13S 9134   5.088   1.165   5.670 -1.1684 -0.7671 -2.2638
   7023SM  H13T 9135   4.949   1.061   5.703 -0.0117  0.5901 -0.3698
   7023SM  C14S 9136   5.126   0.991   5.572 -0.2660  0.0816 -0.3392
   7023SM  H14S 9137   5.090   0.886   5.578 -1.4420  0.5180  3.4856
   7023SM  H14T 9138   5.233   0.979   5.600  0.2019 -1.9781 -2.6576
   7023SM  C15S 9139   5.084   1.045   5.432 -0.3352 -0.0305 -0.2056
   7023SM  H15S 9140   5.111   1.152   5.418 -2.1488  0.4449 -0.3551
   7023SM  H15T 9141   4.974   1.038   5.418 -0.3552 -0.3266  0.1005
   7023SM  C16S 9142   5.145   0.957   5.314  0.6777 -0.1919 -0.0256
   7023SM  H16S 9143   5.134   0.849   5.337  3.1929 -0.7932 -1.2806
   7023SM  H16T 9144   5.252   0.986   5.306  1.0248 -1.4166  0.0116
   7023SM  C17S 9145   5.082   1.004   5.178  0.1514  0.1232 -0.4268
   7023SM  H17S 9146   5.079   1.114   5.192  2.3661 -0.1109  3.5427
   7023SM  H17T 9147   4.982   0.956   5.172  0.8939 -1.7157  0.7815
   7023SM  C18S 9148   5.156   0.977   5.053  0.5064 -0.4338  0.0802
   7023SM  H18S 9149   5.100   1.024   4.969  1.2984  1.6887  0.6636
   7023SM  H18T 9150   5.161   0.868   5.033  1.4020 -0.4933  0.5897
   7023SM  H18U 9151   5.255   1.028   5.057 -0.5447  1.6533  0.4865
   7023SM   C1F 9152   4.844   1.722   6.600  0.4100 -0.8109 -0.2402
   7023SM    OF 9153   4.910   1.799   6.666  0.2055 -0.4956  0.1128
   7023SM   C2F 9154   4.769   1.765   6.472  0.0173  0.3337  0.3930
   7023SM   H2F 9155   4.712   1.856   6.502 -0.3315 -0.2673  1.6123
   7023SM   H2G 9156   4.694   1.692   6.436 -0.8846  0.5809  1.6855
   7023SM   C3F 9157   4.876   1.783   6.362 -0.3840 -0.6165 -0.0946
   7023SM   H3F 9158   4.956   1.706   6.350  1.0600  0.4586  2.0371
   7023SM   H3G 9159   4.934   1.872   6.393 -1.9541  1.1132 -1.8804
   7023SM   C4F 9160   4.822   1.800   6.222 -0.0097 -0.6388  0.0425
   7023SM   H4F 9161   4.813   1.909   6.199 -3.2640 -0.6379  0.7930
   7023SM   H4G 9162   4.716   1.767   6.223  0.2166 -1.3616  1.0198
   7023SM   C5F 9163   4.894   1.729   6.110  0.1401 -0.4898 -0.1772
   7023SM   H5F 9164   5.004   1.734   6.125 -0.0085  0.4756  0.7131
   7023SM   H5G 9165   4.875   1.780   6.014 -0.2918 -0.6263 -0.1634
   7023SM   C6F 9166   4.873   1.577   6.100  0.0921  0.0404  0.1947
   7023SM   H6F 9167   4.766   1.546   6.102  0.4271 -1.7519 -2.8370
   7023SM   H6G 9168   4.919   1.526   6.187  0.0292 -0.7518 -0.2280
   7023SM   C7F 9169   4.934   1.511   5.974 -0.0478  0.3173  0.9551
   7023SM   H7F 9170   4.932   1.402   5.998 -2.3783  0.0795  0.0329
   7023SM   H7G 9171   5.037   1.549   5.959  0.8672 -2.0108  0.8523
   7023SM   C8F 9172   4.843   1.541   5.849  0.1719 -0.2423  0.6251
   7023SM   H8F 9173   4.835   1.651   5.832  1.0248 -0.2119  0.3470
   7023SM   H8G 9174   4.737   1.513   5.861  0.0714 -0.4250 -0.5313
   7023SM   C9F 9175   4.891   1.480   5.720 -0.5941 -0.0801 -0.9678
   7023SM   H9F 9176   4.898   1.370   5.733  3.0404 -0.0644 -1.8932
   7023SM   H9G 9177   4.987   1.525   5.689 -0.1716 -0.6705 -0.5289
   7023SM  C10F 9178   4.790   1.496   5.610  0.1180  0.0911  0.3195
   7023SM  H10F 9179   4.784   1.605   5.589  1.0572  0.2483  0.8038
   7023SM  H10G 9180   4.686   1.460   5.628 -0.2451  0.2702 -1.2977
   7023SM  C11F 9181   4.838   1.416   5.483  0.5456  0.0731 -0.9728
   7023SM  H11F 9182   4.834   1.311   5.519 -0.7805  0.1782 -0.7322
   7023SM  H11G 9183   4.941   1.445   5.453  0.2612  0.5766 -1.4894
   7023SM  C12F 9184   4.747   1.443   5.366 -0.0670 -0.4342  0.2539
   7023SM  H12F 9185   4.724   1.551   5.364  2.1492  0.1089  1.1275
   7023SM  H12G 9186   4.653   1.384   5.375  0.1897 -1.0159 -0.6832
   7023SM  C13F 9187   4.807   1.415   5.223 -0.0259  0.8499  0.5700
   7023SM  H13F 9188   4.839   1.308   5.225  0.1436  0.9049  1.0134
   7023SM  H13G 9189   4.891   1.487   5.216  1.6057 -0.9221  1.0884
   7023SM  C14F 9190   4.714   1.448   5.107 -0.1756 -0.4777 -0.4105
   7023SM  H14F 9191   4.677   1.552   5.118  1.3775 -0.1363  2.7904
   7023SM  H14G 9192   4.635   1.370   5.095 -0.7115  0.3007 -2.3354
   7023SM  C15F 9193   4.805   1.437   4.984  0.0394 -1.0221 -0.3589
   7023SM  H15F 9194   4.845   1.335   4.970  2.0613 -0.6657  2.0355
   7023SM  H15G 9195   4.893   1.502   5.003  1.8329 -3.3607 -0.2751
   7023SM  C16F 9196   4.746   1.480   4.851  0.1385  0.2696  0.4044
   7023SM  H16F 9197   4.681   1.571   4.848 -1.1785 -0.6475  0.2245
   7023SM  H16G 9198   4.676   1.406   4.807  1.0322  0.2271 -0.9979
   7023SM  C17F 9199   4.862   1.508   4.745 -0.1376 -0.2909 -1.1323
   7023SM  H17F 9200   4.916   1.592   4.794  2.4028 -1.4667 -1.7335
   7023SM  H17G 9201   4.817   1.554   4.655 -0.2128  0.8755 -0.5188
   7023SM  C18F 9202   4.957   1.395   4.711  0.4032 -0.3049 -0.3325
   7023SM  H18F 9203   5.017   1.357   4.797 -0.2785  0.0522  0.3069
   7023SM  H18G 9204   5.035   1.437   4.645 -0.1049 -1.0288 -1.4174
   7023SM  C19F 9205   4.889   1.277   4.642 -0.2278  0.1482  0.0086
   7023SM  H19F 9206   4.855   1.304   4.540  0.3455 -0.6065 -0.3917
   7023SM  H19G 9207   4.793   1.251   4.693  0.3128 -1.5276  0.2293
   7023SM  C20F 9208   4.981   1.155   4.644  0.4288 -0.3494  0.0118
   7023SM  H20F 9209   5.006   1.134   4.750  1.4916  1.7660  0.2466
   7023SM  H20G 9210   5.076   1.189   4.597  0.4363  0.4660  0.5985
   7023SM  C21F 9211   4.923   1.033   4.572 -0.3176  0.5815 -0.0399
   7023SM  H21F 9212   4.884   1.062   4.472 -1.8683 -1.4043 -0.0916
   7023SM  H21G 9213   4.836   1.003   4.635 -0.9897 -0.3791 -1.3529
   7023SM  C22F 9214   5.011   0.918   4.540 -0.5828 -0.3013 -0.4242
   7023SM  H22F 9215   5.083   0.941   4.458  0.0511 -0.0613  0.1909
   7023SM  H22G 9216   4.950   0.838   4.494  0.9393 -1.5223 -0.4102
   7023SM  C23F 9217   5.089   0.857   4.663 -0.3559  0.2757  0.3757
   7023SM  H23F 9218   5.125   0.756   4.634 -4.9757 -1.5332 -0.0542
   7023SM  H23G 9219   5.022   0.833   4.749  2.1063 -0.3206  2.2352
   7023SM  H23H 9220   5.167   0.925   4.701  0.4439 -0.7260  0.5702
   7123SM     N 9221   4.903   7.158   7.126 -0.3319 -0.4303  0.2873
   7123SM   C15 9222   4.870   7.270   7.221  0.2156 -0.3557  0.3601
   7123SM  H15A 9223   4.923   7.361   7.195 -1.3544  0.5407  0.2261
   7123SM  H15B 9224   4.896   7.249   7.324  0.6373 -2.3538 -0.1047
   7123SM  H15C 9225   4.767   7.302   7.217  1.0633  2.7186  0.5853
   7123SM   C14 9226   5.052   7.146   7.119 -0.2326  1.0535 -1.1954
   7123SM  H14A 9227   5.094   7.138   7.219 -0.3898  0.6141 -1.1620
   7123SM  H14B 9228   5.092   7.240   7.085 -0.3964  2.1053  1.2605
   7123SM  H14C 9229   5.090   7.066   7.057  2.3829  0.0131  1.4924
   7123SM   C13 9230   4.844   7.030   7.189 -0.3344  0.0275 -0.0347
   7123SM  H13A 9231   4.844   6.955   7.111  0.7106 -1.6693  1.5077
   7123SM  H13B 9232   4.742   7.039   7.224 -0.9091 -1.2539 -1.2822
   7123SM  H13C 9233   4.914   6.996   7.264  0.4418 -0.8724 -1.1129
   7123SM   C12 9234   4.860   7.184   6.982 -0.6447 -0.5880 -0.6232
   7123SM  H12A 9235   4.754   7.203   6.991 -0.4750 -0.2437  0.9051
   7123SM  H12B 9236   4.863   7.091   6.928 -0.8027 -2.3585  2.1976
   7123SM   C11 9237   4.931   7.298   6.902 -0.3435  0.0841  0.0471
   7123SM  H11A 9238   4.857   7.347   6.835 -1.9515 -1.3791  0.6740
   7123SM  H11B 9239   5.021   7.267   6.846  1.8621 -0.3573  3.5245
   7123SM     P 9240   5.087   7.500   6.978  0.0486 -0.5336 -0.0751
   7123SM   O13 9241   5.040   7.630   7.039 -0.4417  0.7048  0.0199
   7123SM   O14 9242   5.201   7.434   7.043  0.1678 -0.1850  0.2639
   7123SM   O11 9243   5.096   7.513   6.815 -0.1392 -0.0521 -0.6174
   7123SM   O12 9244   4.965   7.395   6.996 -0.1377 -0.2580 -0.3605
   7123SM   C1S 9245   5.026   7.619   6.749  0.2257 -0.6327 -0.4141
   7123SM   H1S 9246   5.053   7.717   6.795  0.6151 -1.5032  1.3186
   7123SM   H1T 9247   4.916   7.607   6.745  0.1129  0.4987 -1.2488
   7123SM    NF 9248   5.021   7.756   6.543  0.7077  0.0321  0.3349
   7123SM   HNF 9249   4.931   7.764   6.501  0.5841  1.4153  0.8019
   7123SM   C2S 9250   5.060   7.626   6.596  0.1311  0.1252 -0.2503
   7123SM   H2S 9251   5.170   7.628   6.579  0.2506 -2.0099  0.0204
   7123SM   C3S 9252   5.004   7.509   6.515  0.5252  0.4380  0.1024
   7123SM   H3S 9253   4.893   7.508   6.526  0.6086  1.3101  1.2496
   7123SM    O3 9254   5.062   7.387   6.555 -0.2981 -0.0210 -0.7141
   7123SM   HO3 9255   5.111   7.410   6.634  1.4511  2.3347 -2.3403
   7123SM   C4S 9256   5.034   7.525   6.370  0.3254  0.3496 -0.4986
   7123SM   H4S 9257   5.141   7.525   6.345  0.0331 -0.8041 -1.8635
   7123SM   C5S 9258   4.943   7.546   6.271 -0.3968 -0.0966  0.1017
   7123SM   H5S 9259   4.837   7.549   6.299 -0.1582  1.0328  0.9761
   7123SM   C6S 9260   4.977   7.575   6.126 -0.0639 -0.1140 -0.0073
   7123SM   H6S 9261   5.043   7.664   6.115  0.8717 -0.3848  2.5985
   7123SM   H6T 9262   4.879   7.598   6.079 -1.2703 -2.0085  1.4330
   7123SM   C7S 9263   5.046   7.455   6.062 -0.0876  0.3392 -0.3209
   7123SM   H7S 9264   4.966   7.379   6.052  0.7166 -0.5110 -0.4324
   7123SM   H7T 9265   5.118   7.406   6.131 -1.0790 -0.0461  0.4628
   7123SM   C8S 9266   5.100   7.484   5.921  0.1527  0.2933 -0.6099
   7123SM   H8S 9267   5.030   7.551   5.867 -1.4872 -0.5162  0.4152
   7123SM   H8T 9268   5.093   7.396   5.853 -0.7801 -0.3515  0.2819
   7123SM   C9S 9269   5.240   7.536   5.932  0.4179 -0.1817 -0.2069
   7123SM   H9S 9270   5.307   7.454   5.964  0.1026  0.0881  1.2324
   7123SM   H9T 9271   5.242   7.615   6.010  2.0569  0.0005 -0.4024
   7123SM  C10S 9272   5.285   7.585   5.797  0.0809  0.0124  1.1820
   7123SM  H10S 9273   5.204   7.658   5.775  0.8337  0.4800 -0.1110
   7123SM  H10T 9274   5.287   7.509   5.717  0.7577  0.8107  0.4143
   7123SM  C11S 9275   5.416   7.661   5.825  0.7194 -0.0988 -0.5884
   7123SM  H11S 9276   5.498   7.589   5.844  0.0976 -1.4450 -2.6477
   7123SM  H11T 9277   5.391   7.724   5.913  2.1487 -1.5407  0.9124
   7123SM  C12S 9278   5.464   7.748   5.705 -0.3876  0.2710 -0.7893
   7123SM  H12S 9279   5.556   7.803   5.734 -0.6483  0.1508  0.3216
   7123SM  H12T 9280   5.390   7.827   5.683 -0.1761  0.3165 -1.3602
   7123SM  C13S 9281   5.466   7.675   5.570 -1.1408 -0.3640  0.1636
   7123SM  H13S 9282   5.367   7.628   5.552 -0.6813 -0.9559 -0.8930
   7123SM  H13T 9283   5.531   7.586   5.582  3.0578  2.0890 -2.0198
   7123SM  C14S 9284   5.524   7.744   5.448 -0.1952  0.0775  0.2510
   7123SM  H14S 9285   5.635   7.753   5.453 -0.2433  0.3371  0.9488
   7123SM  H14T 9286   5.486   7.847   5.442 -2.3309 -0.5562  1.8921
   7123SM  C15S 9287   5.479   7.664   5.324  0.3184 -0.4050 -0.4291
   7123SM  H15S 9288   5.511   7.733   5.243 -0.2861 -1.3825 -1.5433
   7123SM  H15T 9289   5.370   7.641   5.322  0.4383 -1.0538  0.0997
   7123SM  C16S 9290   5.559   7.538   5.296  0.0923  0.5317 -0.2691
   7123SM  H16S 9291   5.522   7.466   5.372 -1.0141  1.5218  0.1698
   7123SM  H16T 9292   5.669   7.545   5.305  0.0907 -0.2002  0.5309
   7123SM  C17S 9293   5.516   7.480   5.156 -0.2673  0.1635  0.0349
   7123SM  H17S 9294   5.552   7.376   5.148 -0.2209 -0.0101  2.0648
   7123SM  H17T 9295   5.573   7.540   5.082 -1.3931  2.3006  0.7935
   7123SM  C18S 9296   5.368   7.468   5.119  0.0649 -0.0675  0.4937
   7123SM  H18S 9297   5.355   7.405   5.029  0.8044 -0.2491  0.5073
   7123SM  H18T 9298   5.314   7.564   5.106 -0.3265 -0.2805  0.5279
   7123SM  H18U 9299   5.319   7.410   5.201  2.6920  0.3191  2.4620
   7123SM   C1F 9300   5.078   7.870   6.582 -0.7438 -1.0138  0.4206
   7123SM    OF 9301   5.186   7.876   6.638 -0.0754 -0.0892 -0.9423
   7123SM   C2F 9302   5.000   8.001   6.545  0.8992  0.0745  0.1857
   7123SM   H2F 9303   4.920   8.005   6.622 -0.5347  3.7186 -1.2998
   7123SM   H2G 9304   4.963   7.990   6.441  2.8330 -0.8042 -0.4653
   7123SM   C3F 9305   5.090   8.129   6.546  0.5262 -0.3238  0.2691
   7123SM   H3F 9306   5.158   8.123   6.459 -3.4237 -0.9391 -3.0887
   7123SM   H3G 9307   5.152   8.120   6.638  2.3391 -1.2566 -0.9828
   7123SM   C4F 9308   5.012   8.262   6.552  0.0727  0.1281 -0.0939
   7123SM   H4F 9309   5.078   8.352   6.546 -1.2121  1.2998  1.9808
   7123SM   H4G 9310   4.944   8.264   6.640  2.4309 -0.4502  1.8333
   7123SM   C5F 9311   4.920   8.275   6.424  0.2466 -0.1018 -0.0751
   7123SM   H5F 9312   4.835   8.207   6.447 -0.0814  0.6894  1.1550
   7123SM   H5G 9313   4.977   8.230   6.341 -0.0569  0.0452 -0.3641
   7123SM   C6F 9314   4.866   8.412   6.397 -0.1337 -0.3951 -0.4154
   7123SM   H6F 9315   4.947   8.486   6.380  2.2134 -2.7918 -0.2912
   7123SM   H6G 9316   4.806   8.451   6.482  0.2728  1.0923 -0.7814
   7123SM   C7F 9317   4.773   8.405   6.277  0.5092 -0.2248 -0.3581
   7123SM   H7F 9318   4.722   8.502   6.259  1.0467 -0.1226 -1.4804
   7123SM   H7G 9319   4.694   8.328   6.285  0.5852 -0.3862 -1.0973
   7123SM   C8F 9320   4.861   8.380   6.148  0.8135 -0.0323  0.3491
   7123SM   H8F 9321   4.904   8.278   6.143 -0.2681 -0.6044  1.7930
   7123SM   H8G 9322   4.932   8.461   6.120 -0.1544  0.4178 -0.9163
   7123SM   C9F 9323   4.750   8.373   6.037  0.0167  0.3943 -0.4816
   7123SM   H9F 9324   4.696   8.469   6.028 -2.5960 -0.9075  0.1817
   7123SM   H9G 9325   4.680   8.289   6.059  0.3715  0.8438  2.8274
   7123SM  C10F 9326   4.822   8.356   5.905 -0.7487  0.5377 -0.7784
   7123SM  H10F 9327   4.894   8.272   5.910  0.1852  1.3543 -0.0400
   7123SM  H10G 9328   4.877   8.449   5.878  0.7928 -0.0059  0.3607
   7123SM  C11F 9329   4.716   8.340   5.790 -0.4007 -0.1363 -0.5056
   7123SM  H11F 9330   4.638   8.416   5.807 -0.2671  0.0689 -0.8222
   7123SM  H11G 9331   4.674   8.237   5.788  2.1069 -1.2478 -3.3133
   7123SM  C12F 9332   4.771   8.372   5.650  0.4580  0.1359  0.9495
   7123SM  H12F 9333   4.849   8.449   5.665  0.7480  0.3127 -1.2191
   7123SM  H12G 9334   4.703   8.428   5.583  2.3761  0.2277 -1.0311
   7123SM  C13F 9335   4.855   8.263   5.591 -0.6973  0.2720 -0.3319
   7123SM  H13F 9336   4.793   8.171   5.601  1.3752 -1.1666 -0.0514
   7123SM  H13G 9337   4.957   8.246   5.631 -1.5075 -0.6497  1.4962
   7123SM  C14F 9338   4.890   8.287   5.441 -0.2251 -0.0481 -0.0858
   7123SM  H14F 9339   4.927   8.188   5.405  0.1259 -0.4451  1.3161
   7123SM  H14G 9340   4.971   8.363   5.439 -0.1742 -0.0754  0.6050
   7123SM  C15F 9341   4.777   8.338   5.349  0.0207 -0.9004  0.5127
   7123SM  H15F 9342   4.769   8.447   5.368  2.8909  0.0008 -2.4995
   7123SM  H15G 9343   4.689   8.274   5.371 -0.5641 -0.2524  0.1169
   7123SM  C16F 9344   4.820   8.333   5.205 -0.3396  0.1177  0.7420
   7123SM  H16F 9345   4.814   8.225   5.177  0.7055 -0.1128  1.3407
   7123SM  H16G 9346   4.926   8.364   5.194 -0.0450 -1.2414 -0.6820
   7123SM  C17F 9347   4.737   8.416   5.109 -1.2642  0.2620 -0.8343
   7123SM  H17F 9348   4.745   8.518   5.152  0.0038 -0.5109  0.9022
   7123SM  H17G 9349   4.636   8.370   5.117 -1.2325  0.5541  3.8377
   7123SM  C18F 9350   4.790   8.418   4.960  0.2214 -0.6798 -0.2303
   7123SM  H18F 9351   4.789   8.316   4.917 -0.0685 -0.5240 -0.5975
   7123SM  H18G 9352   4.895   8.452   4.972  0.1006 -0.5369  0.4699
   7123SM  C19F 9353   4.704   8.512   4.872 -0.2045  0.1953  0.2937
   7123SM  H19F 9354   4.597   8.484   4.870 -0.5276  1.3959 -1.1198
   7123SM  H19G 9355   4.735   8.505   4.765 -1.1600 -1.6363  0.1095
   7123SM  C20F 9356   4.712   8.652   4.922  0.1318  0.1661  0.1155
   7123SM  H20F 9357   4.821   8.659   4.939  0.2704  0.8143 -0.9836
   7123SM  H20G 9358   4.657   8.651   5.019  1.7303  0.2651  1.0544
   7123SM  C21F 9359   4.643   8.760   4.839 -0.2149  0.2676  0.3681
   7123SM  H21F 9360   4.681   8.748   4.735 -2.3166  2.1605 -0.6976
   7123SM  H21G 9361   4.676   8.859   4.877  1.5581  0.0263 -0.4308
   7123SM  C22F 9362   4.495   8.771   4.829 -0.0655  0.1220 -0.6778
   7123SM  H22F 9363   4.457   8.694   4.759  0.8717 -0.7277 -0.2837
   7123SM  H22G 9364   4.467   8.865   4.777 -0.3257  1.0601  1.0984
   7123SM  C23F 9365   4.402   8.764   4.951  0.3034  0.5080 -0.4441
   7123SM  H23F 9366   4.449   8.827   5.030 -0.1526 -0.9560  1.0700
   7123SM  H23G 9367   4.393   8.662   4.996  0.9967  1.1554  1.2575
   7123SM  H23H 9368   4.303   8.805   4.921  1.3057  2.5390 -1.1044
   7223SM     N 9369   6.686   3.554   7.252  0.7030 -0.4043 -0.0203
   7223SM   C15 9370   6.616   3.677   7.209  0.4004  0.0039 -0.2087
   7223SM  H15A 9371   6.555   3.710   7.292  0.8049  0.9155 -0.2603
   7223SM  H15B 9372   6.552   3.670   7.122 -1.1299  0.7828  0.8099
   7223SM  H15C 9373   6.683   3.761   7.198  0.1320  0.3841  0.8984
   7223SM   C14 9374   6.583   3.446   7.251  0.1725 -0.4491 -0.5246
   7223SM  H14A 9375   6.543   3.422   7.153  0.1672  1.1838 -0.9426
   7223SM  H14B 9376   6.494   3.464   7.310  0.8190 -1.9060  1.0033
   7223SM  H14C 9377   6.626   3.356   7.292  0.2164  0.6249  1.9339
   7223SM   C13 9378   6.790   3.517   7.145  0.1012 -0.6997 -0.5144
   7223SM  H13A 9379   6.748   3.525   7.046 -0.7542  2.5044 -0.0173
   7223SM  H13B 9380   6.818   3.415   7.166 -1.4234 -0.8736  0.9055
   7223SM  H13C 9381   6.881   3.574   7.153 -0.0581 -0.5479  0.4361
   7223SM   C12 9382   6.746   3.574   7.394 -0.5237  0.1946 -0.7551
   7223SM  H12A 9383   6.665   3.590   7.464  1.4314  1.2510  1.3880
   7223SM  H12B 9384   6.815   3.656   7.399  1.0046 -0.9173 -2.4717
   7223SM   C11 9385   6.810   3.452   7.460 -0.1884 -0.2426  0.0254
   7223SM  H11A 9386   6.867   3.483   7.551  0.5555 -1.9391  0.1792
   7223SM  H11B 9387   6.892   3.422   7.390 -1.0598 -1.0643 -0.6614
   7223SM     P 9388   6.757   3.199   7.472  0.2401  0.0959 -0.2390
   7223SM   O13 9389   6.891   3.168   7.527  0.2759  0.0527 -0.3256
   7223SM   O14 9390   6.642   3.119   7.522 -0.0908  0.0421 -0.3071
   7223SM   O11 9391   6.761   3.187   7.318 -0.2531 -0.2320  0.6595
   7223SM   O12 9392   6.719   3.352   7.494 -0.6060 -0.4928 -0.0424
   7223SM   C1S 9393   6.667   3.101   7.244 -0.6260  0.3588  0.3333
   7223SM   H1S 9394   6.559   3.118   7.264 -0.3943  0.3023  1.7480
   7223SM   H1T 9395   6.673   2.996   7.277 -0.7829 -0.3768 -1.8205
   7223SM    NF 9396   6.606   2.987   7.033 -0.6617  0.4538  0.2217
   7223SM   HNF 9397   6.654   2.902   7.011  1.3886  1.3170  1.0430
   7223SM   C2S 9398   6.694   3.095   7.090 -1.0164 -0.2413  0.1738
   7223SM   H2S 9399   6.655   3.192   7.051  2.6180  1.7215  0.9983
   7223SM   C3S 9400   6.840   3.102   7.047  0.6444  0.5322 -0.2924
   7223SM   H3S 9401   6.892   3.009   7.078  0.8732  0.8815  0.4120
   7223SM    O3 9402   6.919   3.200   7.114 -0.5539  0.2247 -0.0393
   7223SM   HO3 9403   6.870   3.221   7.194 -0.1552  2.3085 -0.2889
   7223SM   C4S 9404   6.850   3.118   6.901 -0.0941 -0.4761 -0.5398
   7223SM   H4S 9405   6.878   3.221   6.875  1.2501  0.1233  2.7757
   7223SM   C5S 9406   6.868   3.019   6.810  0.7274 -0.8006  0.3255
   7223SM   H5S 9407   6.875   2.914   6.842  0.1110 -1.4891 -1.6767
   7223SM   C6S 9408   6.892   3.060   6.665 -0.8983  0.2063 -0.1836
   7223SM   H6S 9409   6.991   3.022   6.632 -1.0775  0.0553 -0.5424
   7223SM   H6T 9410   6.899   3.171   6.652  3.8262 -0.1467 -2.7784
   7223SM   C7S 9411   6.798   2.991   6.569  0.3738 -0.4035 -0.0955
   7223SM   H7S 9412   6.692   3.016   6.588 -0.0519 -0.8085 -1.7693
   7223SM   H7T 9413   6.807   2.881   6.571 -1.8886 -0.6249  0.4518
   7223SM   C8S 9414   6.834   3.026   6.428 -0.5759 -0.1985 -0.8188
   7223SM   H8S 9415   6.930   2.975   6.403 -0.0889  1.3707 -2.3577
   7223SM   H8T 9416   6.848   3.134   6.411 -3.3721  0.3636 -0.0558
   7223SM   C9S 9417   6.727   2.978   6.327  0.3283  0.5126 -0.3969
   7223SM   H9S 9418   6.650   3.058   6.330 -0.8118 -0.5525 -0.2351
   7223SM   H9T 9419   6.682   2.883   6.365  0.7748  0.9850  1.3946
   7223SM  C10S 9420   6.785   2.968   6.188 -0.3806 -0.7495  0.7477
   7223SM  H10S 9421   6.849   2.878   6.197 -1.4303 -1.5461  0.4482
   7223SM  H10T 9422   6.851   3.053   6.162  1.0198 -1.7872  0.7968
   7223SM  C11S 9423   6.678   2.948   6.085 -0.6072  0.2592  0.3741
   7223SM  H11S 9424   6.617   3.040   6.081 -1.5011 -0.2925  0.9325
   7223SM  H11T 9425   6.618   2.858   6.109  0.0386 -0.1216  0.5964
   7223SM  C12S 9426   6.736   2.934   5.937  0.2907  0.1470  0.0514
   7223SM  H12S 9427   6.789   2.838   5.918  1.3237  0.8246 -0.6410
   7223SM  H12T 9428   6.805   3.020   5.921  0.2897 -0.2985 -2.7782
   7223SM  C13S 9429   6.634   2.938   5.823 -0.0555 -0.0389  0.1976
   7223SM  H13S 9430   6.585   3.035   5.848 -1.2984 -0.1674 -1.6159
   7223SM  H13T 9431   6.555   2.862   5.840 -1.0791  0.3351 -2.4637
   7223SM  C14S 9432   6.683   2.916   5.679  0.2896  0.8636 -0.3842
   7223SM  H14S 9433   6.735   2.820   5.661 -0.4100  0.3040  0.4884
   7223SM  H14T 9434   6.761   2.992   5.656  1.7756 -0.2319  0.7956
   7223SM  C15S 9435   6.568   2.928   5.574 -0.5213 -0.0553  0.5686
   7223SM  H15S 9436   6.513   3.020   5.604  0.7636  0.9145  0.0941
   7223SM  H15T 9437   6.496   2.845   5.578 -0.4676 -0.1210  0.2481
   7223SM  C16S 9438   6.621   2.959   5.429  0.1953 -0.1867 -0.5932
   7223SM  H16S 9439   6.695   3.042   5.438 -0.0845 -0.0661  0.8542
   7223SM  H16T 9440   6.525   2.971   5.374  0.4883 -1.6755 -1.4960
   7223SM  C17S 9441   6.711   2.846   5.370 -0.4545 -0.2632  0.7924
   7223SM  H17S 9442   6.782   2.806   5.445  0.6398  0.1591  0.0063
   7223SM  H17T 9443   6.774   2.883   5.286 -0.0991 -1.0491  0.7015
   7223SM  C18S 9444   6.619   2.730   5.323 -0.3609 -0.0218  0.1422
   7223SM  H18S 9445   6.551   2.690   5.401 -0.1676 -0.7547 -0.0515
   7223SM  H18T 9446   6.679   2.641   5.291 -1.3577 -1.0879  1.1247
   7223SM  H18U 9447   6.559   2.757   5.234 -0.0895  0.3483  0.0700
   7223SM   C1F 9448   6.477   3.004   7.025  0.1920 -0.4356  0.0537
   7223SM    OF 9449   6.427   3.114   7.059 -0.1306  0.0538  0.4556
   7223SM   C2F 9450   6.390   2.899   6.961 -0.4314  0.1409 -0.8566
   7223SM   H2F 9451   6.304   2.876   7.028  0.0521 -0.4787 -0.4297
   7223SM   H2G 9452   6.448   2.804   6.960  0.5481  0.7284 -1.3411
   7223SM   C3F 9453   6.334   2.942   6.828 -0.2329  0.5899 -0.3277
   7223SM   H3F 9454   6.278   3.038   6.829  0.8342  1.2178  0.7545
   7223SM   H3G 9455   6.258   2.866   6.799  2.5721 -1.4001 -3.1035
   7223SM   C4F 9456   6.434   2.930   6.710 -0.0609 -0.1739 -0.6722
   7223SM   H4F 9457   6.477   2.827   6.709 -2.6061 -1.3492  0.6919
   7223SM   H4G 9458   6.518   3.000   6.730  0.5940 -1.0004 -0.4326
   7223SM   C5F 9459   6.371   2.967   6.581  0.2737  0.2860 -0.4905
   7223SM   H5F 9460   6.442   2.975   6.496  1.0632  1.9655  0.2785
   7223SM   H5G 9461   6.321   3.066   6.594  2.1706  1.1463  0.6534
   7223SM   C6F 9462   6.269   2.865   6.525 -0.6876  0.2656 -0.2679
   7223SM   H6F 9463   6.188   2.851   6.601  0.7792  1.4123  1.6043
   7223SM   H6G 9464   6.322   2.769   6.508 -1.6161 -0.1564 -0.8806
   7223SM   C7F 9465   6.206   2.891   6.388 -0.2634 -0.6335  0.1656
   7223SM   H7F 9466   6.159   2.992   6.397  2.4951  0.8177 -0.4277
   7223SM   H7G 9467   6.126   2.819   6.361  0.8734 -1.0610 -2.3486
   7223SM   C8F 9468   6.298   2.908   6.270  0.0381  0.2798 -0.3850
   7223SM   H8F 9469   6.372   2.825   6.277 -1.2152 -1.0688 -2.0238
   7223SM   H8G 9470   6.358   3.001   6.278 -0.3768  0.4651  0.7692
   7223SM   C9F 9471   6.211   2.903   6.143 -0.5909  0.0893 -0.1108
   7223SM   H9F 9472   6.129   2.974   6.165 -0.5338 -0.3237  1.5340
   7223SM   H9G 9473   6.164   2.802   6.145 -0.7424  0.1566  2.5597
   7223SM  C10F 9474   6.285   2.938   6.013 -0.0416 -0.1162  0.6743
   7223SM  H10F 9475   6.362   2.858   6.001 -1.8206 -1.7854 -0.1344
   7223SM  H10G 9476   6.333   3.038   6.023 -0.9060  0.3369  0.3669
   7223SM  C11F 9477   6.181   2.933   5.898 -0.6304 -0.0502  0.1777
   7223SM  H11F 9478   6.090   2.982   5.940 -0.5667 -1.7431  2.4831
   7223SM  H11G 9479   6.149   2.832   5.864 -1.5793 -0.1771  1.3974
   7223SM  C12F 9480   6.230   2.986   5.765 -0.7514 -0.0128 -0.5194
   7223SM  H12F 9481   6.325   2.940   5.730 -0.7782  0.3705 -1.1124
   7223SM  H12G 9482   6.253   3.095   5.769 -0.7169 -0.0141 -0.6764
   7223SM  C13F 9483   6.122   2.979   5.652 -0.4341 -0.1659  0.0456
   7223SM  H13F 9484   6.038   3.031   5.703  0.3793  0.4368  0.7907
   7223SM  H13G 9485   6.102   2.870   5.646 -0.6377 -0.1598  0.5847
   7223SM  C14F 9486   6.162   3.049   5.521 -0.3264  0.2785  0.3665
   7223SM  H14F 9487   6.273   3.043   5.510 -0.2011 -0.5455  1.8152
   7223SM  H14G 9488   6.131   3.155   5.530 -1.0544  0.0609  0.4941
   7223SM  C15F 9489   6.092   3.002   5.392  0.2369  0.2360  0.2641
   7223SM  H15F 9490   6.129   2.897   5.382  1.3425  0.4964  1.3886
   7223SM  H15G 9491   6.116   3.063   5.303  1.0655  0.4515  0.6210
   7223SM  C16F 9492   5.941   3.010   5.402 -0.8680 -0.5345  0.4271
   7223SM  H16F 9493   5.918   3.104   5.456  2.0871  0.2101  0.5642
   7223SM  H16G 9494   5.908   2.932   5.474 -1.3235 -0.0757  0.7233
   7223SM  C17F 9495   5.858   2.980   5.273  0.1654  0.3365 -0.4675
   7223SM  H17F 9496   5.858   3.063   5.199  0.2655  1.4842  0.7883
   7223SM  H17G 9497   5.755   2.956   5.307  0.7055 -1.3246  0.1003
   7223SM  C18F 9498   5.906   2.852   5.201 -0.5374  0.6810  0.1753
   7223SM  H18F 9499   5.875   2.762   5.257  1.0110 -0.1810 -0.3155
   7223SM  H18G 9500   6.016   2.856   5.190 -0.5407 -2.1794 -2.4120
   7223SM  C19F 9501   5.850   2.834   5.061  0.3775 -0.8397  0.2123
   7223SM  H19F 9502   5.882   2.918   4.996 -2.5859  0.4798  0.2809
   7223SM  H19G 9503   5.739   2.842   5.061  0.4373  0.0333  0.7562
   7223SM  C20F 9504   5.896   2.705   4.998  0.3883 -0.0475  0.0779
   7223SM  H20F 9505   5.862   2.625   5.067 -0.5359  1.1768  1.0728
   7223SM  H20G 9506   6.007   2.704   4.992  0.3755  0.3051 -0.2287
   7223SM  C21F 9507   5.831   2.679   4.860  0.3035 -0.1041  1.1299
   7223SM  H21F 9508   5.844   2.772   4.801 -0.9742 -0.0204  0.9631
   7223SM  H21G 9509   5.722   2.664   4.872 -0.0023  0.1961 -0.9478
   7223SM  C22F 9510   5.883   2.561   4.784  0.0853 -0.2730  0.8157
   7223SM  H22F 9511   5.851   2.466   4.833  0.5331 -1.9712 -1.9942
   7223SM  H22G 9512   5.993   2.551   4.785  0.1525  0.4266  0.8347
   7223SM  C23F 9513   5.831   2.552   4.643 -0.1580 -0.2236  0.5872
   7223SM  H23F 9514   5.720   2.561   4.640 -0.2700 -1.6844 -0.6677
   7223SM  H23G 9515   5.860   2.455   4.597  0.1198 -0.0498  0.3897
   7223SM  H23H 9516   5.870   2.633   4.577  1.3439 -2.4084 -1.3630
   7323SM     N 9517   5.536   0.830   7.509  0.1436 -0.2511  0.0626
   7323SM   C15 9518   5.402   0.762   7.487  0.6595  0.1347  0.3286
   7323SM  H15A 9519   5.339   0.764   7.575  1.7095 -0.1303  1.1081
   7323SM  H15B 9520   5.413   0.663   7.446  1.2176  0.4188 -0.2274
   7323SM  H15C 9521   5.342   0.813   7.414  0.7490  0.9636  0.8209
   7323SM   C14 9522   5.506   0.974   7.540  1.1695  0.3591 -0.2815
   7323SM  H14A 9523   5.489   1.033   7.451  0.1311 -0.4106 -0.6235
   7323SM  H14B 9524   5.589   1.020   7.591 -0.7452  2.7274  0.8992
   7323SM  H14C 9525   5.415   0.987   7.598  1.1134 -2.9089  0.5601
   7323SM   C13 9526   5.608   0.771   7.632 -0.2047  0.0734 -0.0467
   7323SM  H13A 9527   5.704   0.820   7.636 -0.4814  0.7232 -0.9577
   7323SM  H13B 9528   5.631   0.669   7.604  0.3453 -0.4221  2.0729
   7323SM  H13C 9529   5.552   0.769   7.724  1.3079 -0.7538  0.9061
   7323SM   C12 9530   5.628   0.815   7.387  0.0207  0.2481  0.5206
   7323SM  H12A 9531   5.630   0.709   7.366 -0.5732  0.5696 -1.3089
   7323SM  H12B 9532   5.726   0.845   7.423  0.2600  0.1202 -0.0200
   7323SM   C11 9533   5.592   0.896   7.266  0.4362  0.4671  0.3581
   7323SM  H11A 9534   5.668   0.881   7.186  0.4106  0.4030  0.3456
   7323SM  H11B 9535   5.603   1.004   7.291 -0.5303  0.4262  0.9999
   7323SM     P 9536   5.358   0.981   7.180  0.2902 -0.4330 -0.0573
   7323SM   O13 9537   5.236   0.931   7.109 -0.0467 -0.1944  0.4796
   7323SM   O14 9538   5.334   1.069   7.294 -0.3615 -0.6101 -0.4082
   7323SM   O11 9539   5.437   1.060   7.077  0.2363  0.1415 -0.2035
   7323SM   O12 9540   5.460   0.863   7.216  0.1038 -0.3895 -0.8337
   7323SM   C1S 9541   5.490   1.016   6.952 -0.4315 -0.2748  0.3844
   7323SM   H1S 9542   5.453   0.917   6.919  1.4295 -0.2660 -2.0002
   7323SM   H1T 9543   5.601   1.018   6.956 -0.4129 -0.7574  0.1033
   7323SM    NF 9544   5.477   1.061   6.700  0.6384  0.6827 -0.2217
   7323SM   HNF 9545   5.553   1.091   6.642  2.2572 -0.2646  1.3078
   7323SM   C2S 9546   5.458   1.119   6.830 -0.0556  0.5256 -0.5896
   7323SM   H2S 9547   5.349   1.137   6.839 -0.2943 -0.9876 -0.1998
   7323SM   C3S 9548   5.533   1.250   6.858 -0.5681  0.3185 -0.0881
   7323SM   H3S 9549   5.640   1.227   6.839 -0.0337  0.3447  2.5213
   7323SM    O3 9550   5.538   1.289   6.991 -0.2913  0.2790  0.1347
   7323SM   HO3 9551   5.502   1.209   7.030  1.4367 -0.9274 -0.6106
   7323SM   C4S 9552   5.504   1.373   6.772 -0.5225 -0.0955 -0.2482
   7323SM   H4S 9553   5.558   1.376   6.676  0.2566 -0.7024  0.1582
   7323SM   C5S 9554   5.419   1.474   6.796 -0.0267  0.0833 -0.2686
   7323SM   H5S 9555   5.347   1.469   6.878  1.9848  2.2536  1.7679
   7323SM   C6S 9556   5.404   1.594   6.708 -0.1004 -0.9955  0.5841
   7323SM   H6S 9557   5.500   1.630   6.665 -0.1541  0.0763  1.3067
   7323SM   H6T 9558   5.368   1.683   6.765  1.1427 -0.0112 -0.1060
   7323SM   C7S 9559   5.311   1.576   6.593  0.7529 -0.1213 -0.4329
   7323SM   H7S 9560   5.207   1.573   6.631  0.9241  0.0361  0.0486
   7323SM   H7T 9561   5.333   1.478   6.545  1.8949 -0.8071  1.3990
   7323SM   C8S 9562   5.325   1.677   6.482  0.4797  0.7297  0.6079
   7323SM   H8S 9563   5.434   1.684   6.459  0.4430 -0.6579 -0.0516
   7323SM   H8T 9564   5.278   1.773   6.515  0.6826  0.7547  0.8266
   7323SM   C9S 9565   5.255   1.644   6.348  0.1148 -0.1314  0.5173
   7323SM   H9S 9566   5.281   1.737   6.294  0.1418 -0.8013 -0.6692
   7323SM   H9T 9567   5.145   1.635   6.362 -0.2316  2.9063  0.3276
   7323SM  C10S 9568   5.316   1.523   6.275  0.0607 -0.2305  0.0121
   7323SM  H10S 9569   5.285   1.432   6.330 -0.4396 -2.2132 -3.2809
   7323SM  H10T 9570   5.427   1.522   6.285  0.5076  0.7380 -3.5341
   7323SM  C11S 9571   5.281   1.518   6.126  0.2464 -0.0417 -0.2483
   7323SM  H11S 9572   5.314   1.612   6.076  0.1699 -0.2662 -0.7294
   7323SM  H11T 9573   5.171   1.508   6.112  0.2804 -0.8574  0.0191
   7323SM  C12S 9574   5.343   1.399   6.066  0.2501  0.2794  0.1825
   7323SM  H12S 9575   5.312   1.301   6.109 -0.6160 -0.6259 -2.3077
   7323SM  H12T 9576   5.454   1.407   6.077  0.3563  0.2336 -0.7695
   7323SM  C13S 9577   5.320   1.399   5.913  0.1766  0.1687  0.2607
   7323SM  H13S 9578   5.358   1.498   5.881 -0.0406  0.1675  0.0000
   7323SM  H13T 9579   5.213   1.408   5.883  0.0125 -2.0444  0.0622
   7323SM  C14S 9580   5.405   1.303   5.843  0.1785  0.1891  0.9113
   7323SM  H14S 9581   5.398   1.199   5.882 -0.5025 -0.0840  0.1045
   7323SM  H14T 9582   5.514   1.324   5.853  1.1525 -3.0014 -1.1965
   7323SM  C15S 9583   5.365   1.284   5.690  0.8354 -0.1330  0.3274
   7323SM  H15S 9584   5.255   1.268   5.680  0.8666  0.6231 -1.7562
   7323SM  H15T 9585   5.409   1.196   5.638 -0.7840 -0.2763 -0.8724
   7323SM  C16S 9586   5.392   1.406   5.599 -0.0828 -0.0585  0.0318
   7323SM  H16S 9587   5.500   1.432   5.594 -0.2716  0.7692  0.0949
   7323SM  H16T 9588   5.345   1.495   5.646  1.6885 -0.0590  1.9787
   7323SM  C17S 9589   5.343   1.397   5.459  0.2167 -0.5165 -0.4327
   7323SM  H17S 9590   5.242   1.350   5.459 -0.4601  0.3200  4.7373
   7323SM  H17T 9591   5.408   1.332   5.396 -0.4972 -0.6429 -1.0488
   7323SM  C18S 9592   5.339   1.532   5.390  0.5324  0.1674 -0.0191
   7323SM  H18S 9593   5.279   1.525   5.296 -1.5309  0.3564  1.2153
   7323SM  H18T 9594   5.442   1.562   5.363  1.1428  0.0039  1.9535
   7323SM  H18U 9595   5.286   1.601   5.459  0.9608 -0.5354  1.0291
   7323SM   C1F 9596   5.396   0.968   6.654  0.0998 -0.9746  0.0186
   7323SM    OF 9597   5.301   0.931   6.718 -0.1051 -0.0061  0.2657
   7323SM   C2F 9598   5.437   0.914   6.526  0.4857  0.5211 -0.1436
   7323SM   H2F 9599   5.548   0.901   6.527  0.3925 -0.5658 -1.2350
   7323SM   H2G 9600   5.416   0.996   6.454  0.1962  1.2970  0.7929
   7323SM   C3F 9601   5.373   0.777   6.489  0.1046 -0.3970 -0.0940
   7323SM   H3F 9602   5.264   0.800   6.484  0.0349 -0.8066 -0.5189
   7323SM   H3G 9603   5.388   0.699   6.566 -0.4676 -0.8704 -0.4506
   7323SM   C4F 9604   5.419   0.720   6.358  0.1605  0.0705 -0.0556
   7323SM   H4F 9605   5.360   0.628   6.334  0.1732  0.5538 -2.1512
   7323SM   H4G 9606   5.525   0.687   6.362 -0.5150 -2.3165  3.5992
   7323SM   C5F 9607   5.377   0.818   6.236 -0.3236  0.2707  0.3507
   7323SM   H5F 9608   5.389   0.923   6.270 -0.2996 -0.1493  1.7143
   7323SM   H5G 9609   5.269   0.801   6.217  0.0788  0.8682 -3.1085
   7323SM   C6F 9610   5.454   0.784   6.104 -0.0842  0.1081 -0.5036
   7323SM   H6F 9611   5.416   0.686   6.068  0.3670 -0.6575  1.0220
   7323SM   H6G 9612   5.560   0.776   6.136 -0.6430  1.6329  2.0219
   7323SM   C7F 9613   5.448   0.892   5.991 -0.0489 -0.2377  0.3380
   7323SM   H7F 9614   5.490   0.989   6.024  2.0457 -0.0963 -2.4737
   7323SM   H7G 9615   5.342   0.916   5.969  0.3832  0.3794 -1.1579
   7323SM   C8F 9616   5.513   0.846   5.859  0.2324  0.0480 -0.3083
   7323SM   H8F 9617   5.460   0.755   5.825  1.5003 -1.3934  1.3402
   7323SM   H8G 9618   5.614   0.806   5.883  0.1742 -0.9396 -1.5996
   7323SM   C9F 9619   5.498   0.946   5.744  0.4642  0.6966 -0.3908
   7323SM   H9F 9620   5.529   1.048   5.773 -0.6897  0.8500  0.3896
   7323SM   H9G 9621   5.388   0.931   5.733  0.5989 -2.1946  1.0917
   7323SM  C10F 9622   5.564   0.899   5.608 -0.6038 -0.4492 -0.5945
   7323SM  H10F 9623   5.522   0.800   5.579 -1.4474  0.9640 -5.0512
   7323SM  H10G 9624   5.675   0.900   5.607 -0.5924  0.5661 -1.4764
   7323SM  C11F 9625   5.509   0.984   5.491  0.0776 -0.4987 -0.0856
   7323SM  H11F 9626   5.511   1.094   5.507  1.7330 -0.3229 -1.1822
   7323SM  H11G 9627   5.402   0.959   5.481  0.2639 -1.0193 -0.8946
   7323SM  C12F 9628   5.575   0.963   5.350  0.0132 -0.3328  0.0915
   7323SM  H12F 9629   5.684   0.985   5.353 -0.0623 -0.0499  2.3605
   7323SM  H12G 9630   5.532   1.044   5.287  1.5348  1.2796  1.0251
   7323SM  C13F 9631   5.557   0.826   5.285  0.3324 -0.2177 -0.6200
   7323SM  H13F 9632   5.449   0.810   5.261  0.1407 -0.2769  0.2440
   7323SM  H13G 9633   5.572   0.742   5.356 -1.3502 -0.1207 -0.1076
   7323SM  C14F 9634   5.649   0.806   5.158 -0.1788 -0.8962 -0.3390
   7323SM  H14F 9635   5.649   0.698   5.133  1.3258 -0.3888 -3.0006
   7323SM  H14G 9636   5.755   0.823   5.188  0.6068 -0.7207 -2.9325
   7323SM  C15F 9637   5.611   0.892   5.035 -0.3941  0.0535  0.2967
   7323SM  H15F 9638   5.687   0.870   4.957 -1.0135  1.5093 -0.7699
   7323SM  H15G 9639   5.614   1.000   5.062 -2.0672  0.3568 -0.6115
   7323SM  C16F 9640   5.477   0.851   4.964 -0.4892 -0.1775  0.1040
   7323SM  H16F 9641   5.451   0.924   4.885  1.8618 -0.8173 -1.3618
   7323SM  H16G 9642   5.394   0.854   5.037 -0.1743 -0.9726  0.5052
   7323SM  C17F 9643   5.467   0.712   4.903  0.0118  0.0939 -0.3085
   7323SM  H17F 9644   5.475   0.630   4.978 -1.5831  1.5553  1.5779
   7323SM  H17G 9645   5.555   0.702   4.837 -0.9154 -1.6345 -1.3367
   7323SM  C18F 9646   5.342   0.680   4.820 -0.0553 -0.5069 -0.5486
   7323SM  H18F 9647   5.335   0.752   4.736 -0.2660  0.9006  0.6325
   7323SM  H18G 9648   5.248   0.692   4.879 -0.4191 -2.9146 -0.5431
   7323SM  C19F 9649   5.362   0.540   4.754  0.5602 -0.6972 -0.3517
   7323SM  H19F 9650   5.260   0.498   4.750  0.6173 -0.9092  0.4055
   7323SM  H19G 9651   5.417   0.477   4.827  0.2821 -0.1585  0.3290
   7323SM  C20F 9652   5.411   0.545   4.609  0.2511  0.4194 -0.4954
   7323SM  H20F 9653   5.350   0.626   4.564  2.5240  2.9273  0.6753
   7323SM  H20G 9654   5.391   0.447   4.560 -1.7049  1.6288 -2.3177
   7323SM  C21F 9655   5.556   0.589   4.579 -0.0517 -0.0011 -0.2846
   7323SM  H21F 9656   5.623   0.525   4.640  0.0959 -0.3593 -0.8099
   7323SM  H21G 9657   5.572   0.694   4.609  0.2763 -0.0459 -0.3047
   7323SM  C22F 9658   5.591   0.579   4.435  0.4806  0.2197  0.0185
   7323SM  H22F 9659   5.503   0.626   4.385 -0.9414  0.6351  2.7362
   7323SM  H22G 9660   5.608   0.471   4.413 -0.6695  0.2166 -0.9606
   7323SM  C23F 9661   5.710   0.662   4.400 -0.8217  0.7716  0.0958
   7323SM  H23F 9662   5.721   0.646   4.291 -0.3493 -0.2275  0.2763
   7323SM  H23G 9663   5.806   0.628   4.446 -0.9214 -1.2262 -1.0415
   7323SM  H23H 9664   5.700   0.769   4.426  0.2511  1.0281 -0.4966
   7423SM     N 9665   0.909   4.783   7.034  0.1161  0.9998  0.8016
   7423SM   C15 9666   0.947   4.777   7.179  0.5276 -0.3536 -0.7320
   7423SM  H15A 9667   0.873   4.819   7.245  0.8405  1.6480 -1.5866
   7423SM  H15B 9668   1.044   4.818   7.202 -0.5107  1.8945 -0.0895
   7423SM  H15C 9669   0.956   4.674   7.210  2.5653 -0.3644 -1.2407
   7423SM   C14 9670   1.015   4.712   6.947 -0.1425 -0.2635 -0.3508
   7423SM  H14A 9671   0.965   4.691   6.854  0.3449  1.6507 -1.0861
   7423SM  H14B 9672   1.054   4.620   6.989  0.0469 -0.4424 -0.9171
   7423SM  H14C 9673   1.101   4.771   6.921  1.1628 -1.6565  0.6557
   7423SM   C13 9674   0.779   4.711   7.022 -0.0009 -0.4847 -0.3027
   7423SM  H13A 9675   0.785   4.611   7.063 -0.7889 -0.1763  0.5816
   7423SM  H13B 9676   0.746   4.716   6.919 -0.3658  0.2496 -0.1538
   7423SM  H13C 9677   0.713   4.763   7.090  0.2063 -0.7150  0.0797
   7423SM   C12 9678   0.892   4.928   7.002 -0.2245  0.3398  0.2172
   7423SM  H12A 9679   0.836   4.972   7.083 -1.9645  0.2390 -0.8819
   7423SM  H12B 9680   0.850   4.939   6.903 -0.8818 -3.5770 -0.1097
   7423SM   C11 9681   1.023   5.007   6.996 -0.5073 -0.2922 -0.2402
   7423SM  H11A 9682   1.095   4.978   7.076  0.4211 -2.3416 -1.7142
   7423SM  H11B 9683   1.000   5.116   6.997  1.4593  0.2416 -2.7841
   7423SM     P 9684   1.065   5.071   6.747 -0.4104  0.0913  0.2834
   7423SM   O13 9685   0.919   5.066   6.719  0.3407 -0.2939  0.1377
   7423SM   O14 9686   1.121   5.207   6.768  0.0374  0.4268  0.1280
   7423SM   O11 9687   1.143   5.001   6.632  0.7361  0.4388 -0.0028
   7423SM   O12 9688   1.096   4.980   6.874 -0.0318  0.7135  0.1553
   7423SM   C1S 9689   1.137   4.858   6.612  0.0956  0.2071  0.3459
   7423SM   H1S 9690   1.034   4.816   6.615  0.6482 -1.1993  0.3987
   7423SM   H1T 9691   1.190   4.808   6.697 -2.8847  0.0857  2.2779
   7423SM    NF 9692   1.162   4.686   6.441  0.1225  0.4378 -0.5114
   7423SM   HNF 9693   1.232   4.620   6.466 -1.6615 -1.1222  0.7280
   7423SM   C2S 9694   1.198   4.824   6.475  0.5106  0.1723 -0.8193
   7423SM   H2S 9695   1.145   4.889   6.402  0.1355  1.2214  0.3618
   7423SM   C3S 9696   1.351   4.855   6.475 -0.2086 -0.2446  0.6186
   7423SM   H3S 9697   1.410   4.795   6.547  1.7570  0.8218 -0.0189
   7423SM    O3 9698   1.385   4.993   6.498  0.1018 -0.5123  0.1120
   7423SM   HO3 9699   1.300   5.034   6.515  0.9383  2.0630 -1.3605
   7423SM   C4S 9700   1.407   4.812   6.334  0.2452  0.2079  0.2821
   7423SM   H4S 9701   1.400   4.702   6.325 -0.7629  0.2857 -0.0779
   7423SM   C5S 9702   1.442   4.891   6.231 -0.3140  0.3978  0.0088
   7423SM   H5S 9703   1.449   5.000   6.243 -0.5955  0.5780 -1.2518
   7423SM   C6S 9704   1.488   4.837   6.095 -0.0133 -0.2675 -0.3860
   7423SM   H6S 9705   1.562   4.911   6.057 -0.8105  2.7269  3.3183
   7423SM   H6T 9706   1.406   4.845   6.019  0.1862  3.9317 -0.4183
   7423SM   C7S 9707   1.550   4.693   6.093  0.8419  0.2463  0.0652
   7423SM   H7S 9708   1.482   4.615   6.133 -0.6592  0.6487 -1.5592
   7423SM   H7T 9709   1.640   4.702   6.157  0.7768  0.4940  0.1209
   7423SM   C8S 9710   1.594   4.647   5.955  0.0624 -0.3913  0.1914
   7423SM   H8S 9711   1.691   4.595   5.968  0.6591  0.9147  1.1809
   7423SM   H8T 9712   1.616   4.735   5.891 -0.2832 -1.0466 -0.8598
   7423SM   C9S 9713   1.492   4.566   5.874 -0.6938  0.1505 -0.0577
   7423SM   H9S 9714   1.399   4.625   5.863  0.4239  1.7313 -1.5590
   7423SM   H9T 9715   1.460   4.477   5.933 -0.3693 -0.9451 -1.4612
   7423SM  C10S 9716   1.550   4.531   5.731 -0.1806 -0.2853 -0.5388
   7423SM  H10S 9717   1.641   4.468   5.743 -0.0281  0.0317  0.0059
   7423SM  H10T 9718   1.586   4.626   5.684  0.6179 -0.9423 -1.2780
   7423SM  C11S 9719   1.442   4.476   5.640 -0.4601  0.1272  0.6280
   7423SM  H11S 9720   1.360   4.551   5.635 -1.5658 -1.0982 -0.1764
   7423SM  H11T 9721   1.403   4.375   5.666 -1.6789 -0.1948 -2.1191
   7423SM  C12S 9722   1.486   4.470   5.494 -0.1964  0.5273  0.3178
   7423SM  H12S 9723   1.496   4.578   5.470  0.5748  0.2924 -0.4580
   7423SM  H12T 9724   1.401   4.438   5.430  0.2328 -1.9972  0.9080
   7423SM  C13S 9725   1.621   4.398   5.461 -0.1661 -0.1781  0.0117
   7423SM  H13S 9726   1.605   4.300   5.511 -2.8658 -0.0529 -0.4283
   7423SM  H13T 9727   1.704   4.456   5.506 -1.1224  0.5927  0.8259
   7423SM  C14S 9728   1.650   4.380   5.306  0.2825 -0.0578  1.0665
   7423SM  H14S 9729   1.610   4.464   5.246 -0.2018 -0.5330  0.7143
   7423SM  H14T 9730   1.612   4.294   5.248 -2.3918  0.5740  1.7534
   7423SM  C15S 9731   1.809   4.372   5.279  0.3340  0.2748  0.4501
   7423SM  H15S 9732   1.856   4.281   5.321  0.2977  0.3362  0.6255
   7423SM  H15T 9733   1.859   4.454   5.335  0.8624  0.4061 -0.2050
   7423SM  C16S 9734   1.849   4.376   5.125  0.1991 -0.3794 -0.0313
   7423SM  H16S 9735   1.803   4.289   5.074  1.5487 -0.3792 -1.3044
   7423SM  H16T 9736   1.958   4.354   5.133  0.7161  2.2557  1.3622
   7423SM  C17S 9737   1.808   4.507   5.053 -0.1396 -0.5742  0.5473
   7423SM  H17S 9738   1.697   4.505   5.056 -0.1644 -0.6805 -0.2904
   7423SM  H17T 9739   1.832   4.493   4.946 -2.7733 -0.4637 -0.1232
   7423SM  C18S 9740   1.880   4.629   5.111 -0.5529  0.0999  0.1867
   7423SM  H18S 9741   1.874   4.724   5.055 -1.0187  0.2918  0.5527
   7423SM  H18T 9742   1.989   4.606   5.118 -0.3408  1.1387  0.3840
   7423SM  H18U 9743   1.853   4.650   5.217  1.9049 -0.5218  1.0075
   7423SM   C1F 9744   1.037   4.652   6.400 -0.0598  0.7824 -0.3557
   7423SM    OF 9745   0.940   4.725   6.394  0.1671 -0.4133  0.3997
   7423SM   C2F 9746   1.022   4.503   6.351  0.3015 -0.2286 -0.1878
   7423SM   H2F 9747   1.039   4.436   6.438  0.5173 -0.1129 -0.1406
   7423SM   H2G 9748   1.097   4.470   6.276  0.6178 -2.7280  1.1210
   7423SM   C3F 9749   0.879   4.472   6.295 -0.0368 -0.6806  0.4350
   7423SM   H3F 9750   0.806   4.488   6.378  0.6010  2.2329  0.5263
   7423SM   H3G 9751   0.881   4.361   6.290  0.6684 -0.7322  1.4379
   7423SM   C4F 9752   0.838   4.547   6.173 -0.4496  0.5558  0.2516
   7423SM   H4F 9753   0.811   4.653   6.195  0.9915  0.9192  0.3735
   7423SM   H4G 9754   0.746   4.495   6.138 -0.8751  1.6236 -0.2653
   7423SM   C5F 9755   0.926   4.541   6.052 -0.1319  0.1135  1.4544
   7423SM   H5F 9756   1.023   4.587   6.079  2.0964 -3.4656  0.1864
   7423SM   H5G 9757   0.883   4.606   5.972  0.2319 -3.8986 -2.3680
   7423SM   C6F 9758   0.944   4.393   6.007  0.1506 -0.0910  0.2701
   7423SM   H6F 9759   0.844   4.346   5.996 -0.1429  0.2682  1.2212
   7423SM   H6G 9760   0.997   4.336   6.086 -0.8122 -1.2163  0.1389
   7423SM   C7F 9761   1.024   4.380   5.882 -0.5479  0.0880  0.8146
   7423SM   H7F 9762   1.058   4.278   5.855  1.0559  0.9413 -0.6412
   7423SM   H7G 9763   1.123   4.429   5.892  0.0570 -0.6167 -1.2420
   7423SM   C8F 9764   0.951   4.427   5.759 -0.1177 -0.4801  0.3628
   7423SM   H8F 9765   0.948   4.538   5.761 -0.2301 -0.4581  3.0930
   7423SM   H8G 9766   0.844   4.398   5.760 -0.0981 -0.6181 -0.8206
   7423SM   C9F 9767   1.022   4.387   5.626  0.2824 -0.5214 -0.1219
   7423SM   H9F 9768   1.014   4.277   5.616 -0.4591 -0.5758  0.9582
   7423SM   H9G 9769   1.131   4.405   5.633  0.1449  1.0120 -1.2959
   7423SM  C10F 9770   0.970   4.466   5.510  0.1818  0.0082  0.3332
   7423SM  H10F 9771   1.001   4.572   5.525 -1.0868  0.6972 -1.5720
   7423SM  H10G 9772   0.860   4.477   5.501  0.0734 -2.0801 -2.2355
   7423SM  C11F 9773   1.036   4.431   5.379  0.8013  0.4349 -0.0742
   7423SM  H11F 9774   0.987   4.337   5.342 -0.2474  1.2938 -0.9461
   7423SM  H11G 9775   1.143   4.407   5.395  0.6589  0.7181  1.3797
   7423SM  C12F 9776   1.013   4.548   5.278 -0.5392 -0.0159  0.1036
   7423SM  H12F 9777   1.077   4.633   5.310  0.5950 -0.6031 -0.5201
   7423SM  H12G 9778   0.911   4.590   5.264  0.5607  2.8497 -0.0662
   7423SM  C13F 9779   1.046   4.500   5.134  0.0510 -0.6298  0.6664
   7423SM  H13F 9780   0.953   4.461   5.087 -0.4206  1.4958 -0.2644
   7423SM  H13G 9781   1.117   4.419   5.108  0.3259 -0.3850  0.6471
   7423SM  C14F 9782   1.095   4.623   5.057  1.0768  0.8918  0.0179
   7423SM  H14F 9783   1.161   4.687   5.119  2.4620 -1.2786  0.8830
   7423SM  H14G 9784   1.001   4.674   5.026  1.2049  0.6543 -0.7880
   7423SM  C15F 9785   1.165   4.595   4.924  0.0280  0.6485 -0.3020
   7423SM  H15F 9786   1.264   4.552   4.948 -0.3706 -0.2949 -0.3125
   7423SM  H15G 9787   1.185   4.684   4.861 -1.2004  0.7120 -0.6355
   7423SM  C16F 9788   1.086   4.500   4.825 -0.3370 -0.3500 -0.4752
   7423SM  H16F 9789   0.984   4.542   4.810  0.4439  2.3207  1.0695
   7423SM  H16G 9790   1.073   4.399   4.869 -0.1141 -1.0824 -2.0086
   7423SM  C17F 9791   1.156   4.468   4.694 -0.3005 -1.1884  0.3521
   7423SM  H17F 9792   1.244   4.402   4.699  1.2030  0.7959  1.5731
   7423SM  H17G 9793   1.175   4.568   4.649  1.4313 -0.8047  1.8181
   7423SM  C18F 9794   1.055   4.392   4.605  0.0520  0.3241  0.4432
   7423SM  H18F 9795   0.953   4.435   4.594  0.3336  0.5772 -1.5541
   7423SM  H18G 9796   1.046   4.293   4.654 -0.7438 -0.3431 -1.0134
   7423SM  C19F 9797   1.109   4.365   4.464 -0.1072 -0.6888  0.3464
   7423SM  H19F 9798   1.209   4.316   4.469  0.4132  0.3938  0.9021
   7423SM  H19G 9799   1.133   4.455   4.404  1.2120  0.3343  2.2938
   7423SM  C20F 9800   1.016   4.268   4.393  0.9178  0.0658  0.3075
   7423SM  H20F 9801   0.922   4.325   4.375  1.6789  0.4530 -3.1767
   7423SM  H20G 9802   0.992   4.183   4.461 -0.1843 -0.1910 -0.3799
   7423SM  C21F 9803   1.052   4.229   4.249 -0.9015 -0.5739  0.8364
   7423SM  H21F 9804   1.116   4.138   4.251  3.3422  2.1254 -0.6161
   7423SM  H21G 9805   1.103   4.312   4.196  1.8329 -2.5515  0.1539
   7423SM  C22F 9806   0.922   4.197   4.165 -0.6420 -0.7660 -0.2337
   7423SM  H22F 9807   0.947   4.145   4.070  1.8604  1.6452 -1.0341
   7423SM  H22G 9808   0.860   4.288   4.154  3.3968  2.7715  2.5733
   7423SM  C23F 9809   0.834   4.106   4.245  0.6418  0.2090  0.1149
   7423SM  H23F 9810   0.803   4.165   4.335 -0.0496  0.8248 -0.5138
   7423SM  H23G 9811   0.887   4.018   4.286  1.0506  1.8269  3.4171
   7423SM  H23H 9812   0.744   4.076   4.188  0.7987  0.9760 -0.5588
   7523SM     N 9813   7.154   5.735   7.262  0.3337  0.1031 -0.0017
   7523SM   C15 9814   7.004   5.733   7.218 -0.5658 -0.0539 -0.5441
   7523SM  H15A 9815   6.930   5.722   7.296 -0.8363 -0.3952 -0.8368
   7523SM  H15B 9816   6.988   5.661   7.138 -1.0573 -1.5674  0.8535
   7523SM  H15C 9817   6.984   5.831   7.178  2.2867  1.0934  0.6490
   7523SM   C14 9818   7.168   5.803   7.392 -0.1755 -0.7698 -0.5099
   7523SM  H14A 9819   7.120   5.758   7.477  1.4028  1.1020  1.4920
   7523SM  H14B 9820   7.121   5.900   7.391  1.4163  0.1262  2.1799
   7523SM  H14C 9821   7.271   5.809   7.423 -0.5828  0.7186  0.6855
   7523SM   C13 9822   7.194   5.595   7.278 -0.9568 -0.7633  0.0366
   7523SM  H13A 9823   7.140   5.553   7.362 -0.4628  0.0648  0.7802
   7523SM  H13B 9824   7.300   5.594   7.296 -1.2289 -0.6211  1.8055
   7523SM  H13C 9825   7.178   5.531   7.192  1.7835  0.2445 -1.3351
   7523SM   C12 9826   7.229   5.809   7.154  0.1019  0.6349  0.3199
   7523SM  H12A 9827   7.177   5.899   7.125  1.7373  1.7197  0.6437
   7523SM  H12B 9828   7.224   5.750   7.063  1.2490  3.8644 -2.0521
   7523SM   C11 9829   7.388   5.827   7.177 -0.1667  0.1496 -0.4098
   7523SM  H11A 9830   7.399   5.907   7.253  1.0275  0.6988 -1.1333
   7523SM  H11B 9831   7.438   5.873   7.089  0.3492  2.1669  0.8881
   7523SM     P 9832   7.512   5.611   7.095 -0.3327 -0.0444  0.0568
   7523SM   O13 9833   7.636   5.668   7.054  0.2012 -0.3641  0.0916
   7523SM   O14 9834   7.509   5.474   7.137 -0.1173  0.9349 -0.4110
   7523SM   O11 9835   7.399   5.635   6.987  0.5507 -0.1245  0.2381
   7523SM   O12 9836   7.460   5.702   7.210  0.0489 -0.0459 -0.2458
   7523SM   C1S 9837   7.399   5.554   6.871 -0.1499 -0.1268 -0.0894
   7523SM   H1S 9838   7.338   5.462   6.886 -2.1999  1.2521  0.5724
   7523SM   H1T 9839   7.503   5.524   6.846 -0.5010 -2.4344  0.9418
   7523SM    NF 9840   7.351   5.515   6.623  0.1305  0.4774 -0.7764
   7523SM   HNF 9841   7.417   5.520   6.549  1.2875 -0.5888  0.1289
   7523SM   C2S 9842   7.356   5.618   6.736  0.4514 -0.4246  0.1202
   7523SM   H2S 9843   7.251   5.654   6.744  0.4837 -0.5203  1.1255
   7523SM   C3S 9844   7.455   5.732   6.686  0.4670 -0.7973 -0.1142
   7523SM   H3S 9845   7.547   5.696   6.635  0.3007  0.8284 -1.6470
   7523SM    O3 9846   7.495   5.817   6.788 -0.1820 -0.0055  0.4127
   7523SM   HO3 9847   7.467   5.771   6.867 -0.3350  0.7353  0.8026
   7523SM   C4S 9848   7.382   5.814   6.581  0.7577  0.9355 -0.4221
   7523SM   H4S 9849   7.292   5.860   6.626  1.2666  2.1073 -0.5660
   7523SM   C5S 9850   7.412   5.821   6.450  0.4903 -0.2649  0.3720
   7523SM   H5S 9851   7.489   5.760   6.401 -0.0645  0.2826 -1.2261
   7523SM   C6S 9852   7.334   5.911   6.357  0.2964 -0.5257  0.1144
   7523SM   H6S 9853   7.264   5.978   6.412 -0.2065 -0.6244 -0.3958
   7523SM   H6T 9854   7.268   5.853   6.289 -0.4970 -0.1760  0.5753
   7523SM   C7S 9855   7.439   6.005   6.297  0.1686 -0.1610  0.0297
   7523SM   H7S 9856   7.509   5.937   6.245 -0.2770  0.7555 -1.8854
   7523SM   H7T 9857   7.491   6.071   6.369  0.4019 -1.0673  0.7047
   7523SM   C8S 9858   7.374   6.091   6.196  0.1324  0.4235  0.3143
   7523SM   H8S 9859   7.314   6.172   6.242 -0.5952  0.7041 -1.0960
   7523SM   H8T 9860   7.318   6.022   6.128  2.6523  0.3721 -1.8684
   7523SM   C9S 9861   7.490   6.158   6.122  0.6296  0.5232  0.0307
   7523SM   H9S 9862   7.553   6.081   6.073  0.3765 -0.2573  0.8831
   7523SM   H9T 9863   7.555   6.206   6.198  1.4439 -1.7879  0.8770
   7523SM  C10S 9864   7.454   6.249   6.001 -0.0575 -0.6602 -0.4135
   7523SM  H10S 9865   7.551   6.289   5.965  0.0668 -0.4957  0.0880
   7523SM  H10T 9866   7.388   6.337   6.016  1.5221  0.5111 -0.0540
   7523SM  C11S 9867   7.387   6.169   5.889  1.0381 -0.2182  0.1645
   7523SM  H11S 9868   7.298   6.110   5.920  1.5365 -1.1552 -0.1401
   7523SM  H11T 9869   7.457   6.092   5.849  0.5661 -1.5868  1.8632
   7523SM  C12S 9870   7.335   6.250   5.773  0.1328 -0.3451  0.2037
   7523SM  H12S 9871   7.283   6.334   5.825  0.9789 -0.1906  0.8251
   7523SM  H12T 9872   7.270   6.186   5.710 -0.7530  1.0843 -0.3906
   7523SM  C13S 9873   7.441   6.306   5.676  0.0032 -0.1154  0.8636
   7523SM  H13S 9874   7.410   6.300   5.570 -0.3639  3.0831  0.6748
   7523SM  H13T 9875   7.534   6.248   5.695  2.2709  2.6253 -0.8802
   7523SM  C14S 9876   7.475   6.456   5.690  0.4054 -0.8237 -0.0101
   7523SM  H14S 9877   7.521   6.470   5.791 -1.9367  1.4949  0.8356
   7523SM  H14T 9878   7.389   6.525   5.690  0.8922 -0.2058  0.0355
   7523SM  C15S 9879   7.567   6.492   5.573  0.2189 -0.7448  0.0395
   7523SM  H15S 9880   7.519   6.475   5.475  1.9695  0.7846 -1.1666
   7523SM  H15T 9881   7.655   6.426   5.591 -0.5788 -1.1042  3.1536
   7523SM  C16S 9882   7.614   6.643   5.560  0.0362 -0.2974 -0.4997
   7523SM  H16S 9883   7.696   6.655   5.634 -1.1701 -1.4590  1.1015
   7523SM  H16T 9884   7.531   6.707   5.598  0.8343 -0.0106  0.8226
   7523SM  C17S 9885   7.664   6.691   5.423 -0.2911 -0.2794  0.4746
   7523SM  H17S 9886   7.695   6.797   5.437 -1.4241 -0.0363  1.3119
   7523SM  H17T 9887   7.580   6.689   5.351 -1.5640  1.5773  1.7951
   7523SM  C18S 9888   7.782   6.617   5.371  0.2289  0.3629  0.2476
   7523SM  H18S 9889   7.810   6.655   5.270 -1.0717 -1.0860 -0.6993
   7523SM  H18T 9890   7.756   6.510   5.357 -3.1643  0.7578  2.3179
   7523SM  H18U 9891   7.861   6.626   5.449  1.1686  1.4073 -0.7720
   7523SM   C1F 9892   7.270   5.406   6.624 -0.4218 -0.2245  0.3767
   7523SM    OF 9893   7.197   5.379   6.714 -0.2188 -0.4985  0.6074
   7523SM   C2F 9894   7.283   5.321   6.506 -0.5459 -0.3114 -0.3025
   7523SM   H2F 9895   7.337   5.226   6.526  0.3914  0.3537  0.4725
   7523SM   H2G 9896   7.354   5.374   6.439  1.4472 -0.4228  1.6037
   7523SM   C3F 9897   7.140   5.296   6.472  0.1682 -0.8992  0.3783
   7523SM   H3F 9898   7.087   5.394   6.468  1.7723  0.0615  1.4826
   7523SM   H3G 9899   7.079   5.239   6.546 -1.2348  0.9923  0.7567
   7523SM   C4F 9900   7.111   5.230   6.332 -0.1650  0.0755  0.0950
   7523SM   H4F 9901   7.139   5.123   6.328  1.1064  0.2776  2.2441
   7523SM   H4G 9902   7.184   5.274   6.260  2.2923 -1.6429  1.4085
   7523SM   C5F 9903   6.960   5.238   6.297  0.1291 -0.9359 -0.0840
   7523SM   H5F 9904   6.924   5.343   6.294  2.0399 -0.1018  2.5699
   7523SM   H5G 9905   6.916   5.195   6.390  1.4259 -0.5965  0.7232
   7523SM   C6F 9906   6.923   5.166   6.169 -0.4079  0.1344  0.1943
   7523SM   H6F 9907   6.816   5.175   6.140 -0.9359 -0.0891  1.9431
   7523SM   H6G 9908   6.946   5.058   6.181 -2.3985 -0.4320 -0.7105
   7523SM   C7F 9909   6.997   5.204   6.043  1.2762  0.6466 -0.5394
   7523SM   H7F 9910   7.106   5.210   6.062  1.4065  1.7173 -1.5149
   7523SM   H7G 9911   6.969   5.312   6.036  1.0788  0.5989 -0.4792
   7523SM   C8F 9912   6.952   5.122   5.921  0.3105  0.6697 -0.0159
   7523SM   H8F 9913   6.948   5.014   5.945  2.5781  0.4726 -0.3022
   7523SM   H8G 9914   7.031   5.128   5.842 -0.5681  1.8510 -0.8614
   7523SM   C9F 9915   6.829   5.175   5.855  0.1568  0.5360 -0.2857
   7523SM   H9F 9916   6.862   5.279   5.832 -0.1979  0.8949  0.7804
   7523SM   H9G 9917   6.740   5.190   5.919  1.6576  2.5788  1.4892
   7523SM  C10F 9918   6.798   5.099   5.724  0.7464 -0.5275 -0.1372
   7523SM  H10F 9919   6.749   5.003   5.751  0.8981 -0.9874 -1.4311
   7523SM  H10G 9920   6.886   5.082   5.659  1.6381  1.7233  0.3584
   7523SM  C11F 9921   6.695   5.168   5.643 -0.1970 -0.1202 -0.6790
   7523SM  H11F 9922   6.704   5.279   5.638  0.2604 -0.1459 -0.5262
   7523SM  H11G 9923   6.593   5.150   5.683 -0.6829 -0.2951 -1.9394
   7523SM  C12F 9924   6.686   5.109   5.495  0.0178 -0.2577 -0.8511
   7523SM  H12F 9925   6.674   4.999   5.507 -0.8079 -0.2151 -1.2543
   7523SM  H12G 9926   6.775   5.132   5.433  0.1423  0.6933 -0.3337
   7523SM  C13F 9927   6.566   5.150   5.414  0.2076  0.1839  0.6490
   7523SM  H13F 9928   6.474   5.134   5.473 -0.3391  1.2804  0.1244
   7523SM  H13G 9929   6.553   5.087   5.323 -0.7020  0.4568  0.5885
   7523SM  C14F 9930   6.550   5.294   5.366  0.8518  0.1357 -0.0739
   7523SM  H14F 9931   6.526   5.354   5.457 -0.2991 -0.7255  0.2278
   7523SM  H14G 9932   6.460   5.299   5.301  0.7630 -1.4609 -0.1232
   7523SM  C15F 9933   6.664   5.358   5.289 -0.6695  0.5575  0.2859
   7523SM  H15F 9934   6.763   5.338   5.336 -1.0989  0.8770  1.3570
   7523SM  H15G 9935   6.659   5.469   5.287  3.2183  0.9223  1.3432
   7523SM  C16F 9936   6.668   5.315   5.143 -0.1844 -0.6911  0.4416
   7523SM  H16F 9937   6.567   5.335   5.101 -1.1976 -0.7915  2.6848
   7523SM  H16G 9938   6.679   5.204   5.140 -1.0126 -0.7477 -1.7307
   7523SM  C17F 9939   6.773   5.387   5.067 -0.4444  0.2970  0.5667
   7523SM  H17F 9940   6.869   5.380   5.123  0.4068 -1.3268 -0.9972
   7523SM  H17G 9941   6.747   5.494   5.051  0.0115  0.1159 -1.6874
   7523SM  C18F 9942   6.805   5.316   4.933 -1.0872 -0.3612  0.1591
   7523SM  H18F 9943   6.716   5.273   4.883 -1.4494 -0.5009  0.9120
   7523SM  H18G 9944   6.874   5.233   4.961 -1.7802 -0.8325  0.4866
   7523SM  C19F 9945   6.870   5.406   4.830 -0.0742  0.1534  0.3382
   7523SM  H19F 9946   6.808   5.496   4.809  0.5496 -0.1109 -3.3765
   7523SM  H19G 9947   6.868   5.348   4.735 -2.1061  1.4990 -0.5067
   7523SM  C20F 9948   7.014   5.442   4.877  1.3401  0.1406 -0.1030
   7523SM  H20F 9949   7.075   5.350   4.881  1.5666  0.0978 -2.6812
   7523SM  H20G 9950   7.008   5.463   4.986 -0.1441 -0.8724  0.0390
   7523SM  C21F 9951   7.065   5.568   4.810  0.4379  0.6158  0.3090
   7523SM  H21F 9952   7.155   5.593   4.871  0.2192 -0.0552  0.9177
   7523SM  H21G 9953   6.985   5.644   4.821 -1.7468 -1.5272  0.0845
   7523SM  C22F 9954   7.111   5.540   4.668  0.8991 -0.5371  0.3524
   7523SM  H22F 9955   7.028   5.508   4.602  1.1663 -0.1350 -0.1975
   7523SM  H22G 9956   7.178   5.453   4.656  0.4761 -0.9864  1.1757
   7523SM  C23F 9957   7.172   5.660   4.600  0.6389  0.6487 -0.1435
   7523SM  H23F 9958   7.261   5.695   4.657 -0.0295  0.3743  1.0896
   7523SM  H23G 9959   7.098   5.742   4.590  0.3150  0.1371 -3.0726
   7523SM  H23H 9960   7.203   5.631   4.497  0.8246  0.3778 -0.0143
   7623SM     N 9961   0.892   5.478   7.132 -0.0231 -0.3520  0.1268
   7623SM   C15 9962   0.764   5.556   7.126  0.2156  0.1631  0.0072
   7623SM  H15A 9963   0.761   5.626   7.044 -0.9129  0.7491  0.5263
   7623SM  H15B 9964   0.738   5.609   7.216  0.0211 -0.2819  0.2216
   7623SM  H15C 9965   0.687   5.485   7.099 -0.2145  0.9581 -0.9332
   7623SM   C14 9966   1.006   5.566   7.142  0.4921  0.3527  0.0072
   7623SM  H14A 9967   1.028   5.624   7.054 -0.3004 -2.7220 -2.3653
   7623SM  H14B 9968   1.096   5.511   7.169 -1.2613 -2.3161  0.8069
   7623SM  H14C 9969   0.990   5.639   7.220 -3.7554 -1.1436  0.8053
   7623SM   C13 9970   0.881   5.385   7.259  0.0676 -0.1269  0.0807
   7623SM  H13A 9971   0.977   5.339   7.273  0.8728  1.2622 -0.5899
   7623SM  H13B 9972   0.795   5.320   7.258  0.4205 -0.6422  1.1399
   7623SM  H13C 9973   0.871   5.451   7.344  0.2662  2.2993 -1.6817
   7623SM   C12 9974   0.895   5.399   7.004 -0.3434 -0.6468 -0.7972
   7623SM  H12A 9975   0.981   5.334   7.011 -0.9145 -1.5567 -1.9814
   7623SM  H12B 9976   0.918   5.477   6.933  2.6573 -1.1869 -0.5508
   7623SM   C11 9977   0.783   5.315   6.954 -0.4846 -0.2689 -0.0564
   7623SM  H11A 9978   0.809   5.269   6.857 -1.0502  1.5901 -1.1558
   7623SM  H11B 9979   0.701   5.382   6.920  0.9080  0.2320 -2.7037
   7623SM     P 9980   0.605   5.168   7.069  0.0585 -0.1838 -0.0704
   7623SM   O13 9981   0.598   5.028   7.125 -0.0868  0.0952 -0.3554
   7623SM   O14 9982   0.526   5.276   7.137 -0.0899 -0.4587 -0.1173
   7623SM   O11 9983   0.542   5.153   6.921 -0.3217 -0.3669 -0.5773
   7623SM   O12 9984   0.752   5.208   7.047  0.0603 -0.8850 -0.4521
   7623SM   C1S 9985   0.595   5.052   6.828  0.7699 -0.3672  0.3227
   7623SM   H1S 9986   0.605   4.953   6.879 -0.5204 -0.0973  1.1717
   7623SM   H1T 9987   0.698   5.072   6.792  0.6292 -0.7718 -0.3183
   7623SM    NF 9988   0.518   4.916   6.636 -0.7804 -0.0344 -0.4451
   7623SM   HNF 9989   0.567   4.927   6.550 -1.1278  0.0239 -0.6396
   7623SM   C2S 9990   0.499   5.040   6.715  0.2140 -0.0505 -0.1976
   7623SM   H2S 9991   0.399   5.028   6.761 -0.4477 -0.9514 -1.8061
   7623SM   C3S 9992   0.500   5.170   6.631  0.4435  0.2602  0.4382
   7623SM   H3S 9993   0.608   5.187   6.609  1.0733 -0.8130  2.3910
   7623SM    O3 9994   0.464   5.288   6.704  0.6991 -0.6256  0.5486
   7623SM   HO3 9995   0.470   5.264   6.797  1.7231  0.4516  0.7826
   7623SM   C4S 9996   0.418   5.182   6.498  0.1113 -0.8101 -0.1993
   7623SM   H4S 9997   0.314   5.148   6.493 -1.1144  2.3410  1.0556
   7623SM   C5S 9998   0.469   5.218   6.380 -0.2928  0.1763  0.0014
   7623SM   H5S 9999   0.578   5.233   6.374 -0.2235 -0.5947 -0.8797
   7623SM   C6S10000   0.391   5.206   6.252 -0.5586 -0.3547 -0.5202
   7623SM   H6S10001   0.282   5.219   6.266 -0.5820 -0.8524 -0.1756
   7623SM   H6T10002   0.407   5.111   6.195  0.7392 -0.8384  0.5885
   7623SM   C7S10003   0.445   5.323   6.172 -0.3021  0.0738  0.4067
   7623SM   H7S10004   0.554   5.307   6.158 -0.5501 -1.2480 -0.1463
   7623SM   H7T10005   0.433   5.423   6.219  0.2575  0.9327 -1.1884
   7623SM   C8S10006   0.381   5.320   6.027 -0.0831 -0.2764  0.0029
   7623SM   H8S10007   0.430   5.409   5.981  2.8090 -0.9389  1.5348
   7623SM   H8T10008   0.273   5.342   6.027  0.2352  1.4321 -0.7407
   7623SM   C9S10009   0.416   5.197   5.946 -0.4935  0.1320  0.4037
   7623SM   H9S10010   0.365   5.102   5.970  1.2836 -1.4700 -1.7279
   7623SM   H9T10011   0.524   5.173   5.948 -0.3440  0.8093  0.7926
   7623SM  C10S10012   0.377   5.215   5.789 -0.6829  0.5544  0.3250
   7623SM  H10S10013   0.427   5.312   5.764  1.3898 -0.1156  1.6269
   7623SM  H10T10014   0.267   5.228   5.789 -0.8209 -0.5003  0.9014
   7623SM  C11S10015   0.415   5.098   5.700 -0.7074  0.1523 -0.4479
   7623SM  H11S10016   0.398   4.997   5.744 -0.0873 -0.5788 -1.8093
   7623SM  H11T10017   0.520   5.103   5.665 -0.7225  0.0838 -0.5038
   7623SM  C12S10018   0.323   5.105   5.573 -0.4473  0.2428 -0.5629
   7623SM  H12S10019   0.376   5.061   5.486 -0.9916 -2.1966  0.2497
   7623SM  H12T10020   0.306   5.212   5.548 -1.5372  0.0749 -0.5729
   7623SM  C13S10021   0.183   5.045   5.587  0.0843  0.2311  0.2714
   7623SM  H13S10022   0.122   5.083   5.502 -0.9330 -1.3250  0.2778
   7623SM  H13T10023   0.126   5.077   5.677 -1.4254  0.0599 -0.6010
   7623SM  C14S10024   0.183   4.893   5.573 -0.4136  0.0820 -0.1679
   7623SM  H14S10025   0.246   4.851   5.654 -0.6731 -0.6851 -0.3477
   7623SM  H14T10026   0.234   4.854   5.483 -1.6344 -1.2665 -0.3256
   7623SM  C15S10027   0.045   4.822   5.574  0.3870  0.0310 -0.6849
   7623SM  H15S10028   0.058   4.712   5.567 -2.7101 -0.4175 -0.6165
   7623SM  H15T10029  -0.010   4.860   5.485  0.9753 -0.3512 -1.2196
   7623SM  C16S10030  -0.036   4.850   5.701 -0.5404  0.1562  0.4175
   7623SM  H16S10031  -0.139   4.811   5.685 -0.8319  1.4473 -1.0200
   7623SM  H16T10032  -0.049   4.960   5.709 -0.2778  0.4721 -2.4827
   7623SM  C17S10033   0.028   4.789   5.829 -0.0743  0.5997  0.3087
   7623SM  H17S10034  -0.052   4.798   5.905  0.4233 -0.4153  0.9714
   7623SM  H17T10035   0.120   4.850   5.844  0.0496  0.6834 -0.7161
   7623SM  C18S10036   0.072   4.640   5.829  0.0455 -0.6722 -0.3865
   7623SM  H18S10037   0.112   4.620   5.931  0.0943 -0.1021 -0.2898
   7623SM  H18T10038   0.149   4.626   5.750  0.5598 -0.1549  0.0184
   7623SM  H18U10039  -0.019   4.577   5.815 -0.0509 -0.6143 -0.0214
   7623SM   C1F10040   0.477   4.798   6.688  0.3387 -0.5754  0.2327
   7623SM    OF10041   0.414   4.795   6.794 -0.3341 -0.7583 -0.4184
   7623SM   C2F10042   0.518   4.675   6.609  0.4783 -0.3187 -0.6097
   7623SM   H2F10043   0.625   4.659   6.634 -0.1745 -0.1612  2.8022
   7623SM   H2G10044   0.513   4.709   6.504 -1.0335 -0.0689 -0.4849
   7623SM   C3F10045   0.428   4.559   6.637  0.6135  0.3069 -0.4368
   7623SM   H3F10046   0.322   4.590   6.628  0.5851  0.7891  1.2814
   7623SM   H3G10047   0.445   4.523   6.741  2.1360  0.5643 -0.5694
   7623SM   C4F10048   0.462   4.432   6.556  0.3247  0.2102 -0.0613
   7623SM   H4F10049   0.389   4.356   6.591 -0.1430  0.7831  0.2302
   7623SM   H4G10050   0.568   4.409   6.579  0.4568  2.2185  1.6288
   7623SM   C5F10051   0.419   4.440   6.410  1.0111  0.0046  0.4890
   7623SM   H5F10052   0.466   4.526   6.358 -0.0882 -0.2467 -1.0214
   7623SM   H5G10053   0.309   4.451   6.399  0.9454 -0.4228  0.6770
   7623SM   C6F10054   0.456   4.308   6.338 -0.2587  0.0127 -0.0559
   7623SM   H6F10055   0.397   4.216   6.358 -2.7550  1.6901  0.6623
   7623SM   H6G10056   0.561   4.287   6.370 -0.0616 -1.4236 -1.5164
   7623SM   C7F10057   0.464   4.326   6.178  0.2571  0.2893 -0.3009
   7623SM   H7F10058   0.551   4.390   6.152 -0.7280  0.6819 -2.9797
   7623SM   H7G10059   0.369   4.375   6.148 -0.2266 -0.6251 -0.3181
   7623SM   C8F10060   0.480   4.187   6.113 -1.3190  0.1997 -0.0867
   7623SM   H8F10061   0.395   4.126   6.151 -2.0179 -0.0821 -2.0145
   7623SM   H8G10062   0.570   4.145   6.163  0.6878  2.0161 -1.9528
   7623SM   C9F10063   0.469   4.194   5.960 -0.2030  0.2707  0.6004
   7623SM   H9F10064   0.550   4.261   5.925  0.8058 -1.4161 -0.4218
   7623SM   H9G10065   0.373   4.231   5.920 -1.3460 -1.9957  1.0959
   7623SM  C10F10066   0.512   4.060   5.907  0.4456  0.1790  0.3955
   7623SM  H10F10067   0.436   3.982   5.930 -2.0323  2.1811 -0.5274
   7623SM  H10G10068   0.603   4.034   5.966  1.4303  0.1732 -1.0650
   7623SM  C11F10069   0.547   4.060   5.758 -0.0754  0.1523 -0.2441
   7623SM  H11F10070   0.575   3.959   5.722  2.1531  1.0295 -1.1928
   7623SM  H11G10071   0.641   4.117   5.742  0.5368 -0.6876  0.2905
   7623SM  C12F10072   0.433   4.108   5.672  0.2428  0.4492 -1.1002
   7623SM  H12F10073   0.412   4.215   5.690  0.2715  0.4278 -0.9294
   7623SM  H12G10074   0.342   4.058   5.713  1.9806 -0.7666  1.5836
   7623SM  C13F10075   0.445   4.089   5.520  0.3343  0.5151 -0.0210
   7623SM  H13F10076   0.346   4.088   5.469 -0.4636  1.9354  1.4274
   7623SM  H13G10077   0.481   3.984   5.510 -2.3673 -0.7490  2.2986
   7623SM  C14F10078   0.527   4.206   5.462  0.1028  0.6755  0.3957
   7623SM  H14F10079   0.607   4.239   5.532  0.6628 -0.2924  0.2279
   7623SM  H14G10080   0.463   4.294   5.439 -0.0511  0.2995 -0.6879
   7623SM  C15F10081   0.580   4.175   5.316 -0.3468 -0.1537  0.1685
   7623SM  H15F10082   0.657   4.096   5.329  2.7437  2.4605 -1.0308
   7623SM  H15G10083   0.627   4.264   5.271 -0.9651 -0.5400 -1.2948
   7623SM  C16F10084   0.473   4.139   5.220  0.2983  0.2417 -0.2565
   7623SM  H16F10085   0.392   4.214   5.237  0.8343  0.5070  1.2793
   7623SM  H16G10086   0.428   4.043   5.251  0.7932 -0.2263 -0.9596
   7623SM  C17F10087   0.521   4.143   5.072  0.4607 -0.2822 -0.3371
   7623SM  H17F10088   0.550   4.250   5.059  0.9011 -0.2961  0.4837
   7623SM  H17G10089   0.434   4.122   5.007 -0.1259  0.7046  0.1019
   7623SM  C18F10090   0.638   4.050   5.029  0.5662  0.0163 -0.4993
   7623SM  H18F10091   0.609   3.943   5.039  1.0678 -0.1315 -0.6003
   7623SM  H18G10092   0.736   4.061   5.080  0.6032 -2.5309  0.1289
   7623SM  C19F10093   0.662   4.083   4.879 -0.2487 -0.7157 -0.1997
   7623SM  H19F10094   0.710   4.183   4.870 -0.0196 -1.0191 -3.1445
   7623SM  H19G10095   0.561   4.083   4.834  0.7204 -0.5878 -2.5189
   7623SM  C20F10096   0.757   3.983   4.811  0.1366 -0.2315 -0.2807
   7623SM  H20F10097   0.702   3.889   4.832 -0.6888  0.1286 -0.7725
   7623SM  H20G10098   0.854   3.976   4.865 -0.7511  1.5374  1.6446
   7623SM  C21F10099   0.776   4.019   4.665 -0.0332 -0.3113  0.2474
   7623SM  H21F10100   0.840   4.108   4.653  0.4280 -0.6207  0.4087
   7623SM  H21G10101   0.674   4.019   4.621 -0.1575  0.7808  0.5113
   7623SM  C22F10102   0.843   3.910   4.583  0.0277 -0.5050  0.3110
   7623SM  H22F10103   0.941   3.893   4.632  1.8729  2.6528 -1.9402
   7623SM  H22G10104   0.859   3.951   4.481  1.7504 -0.5094  0.5621
   7623SM  C23F10105   0.769   3.777   4.569  0.1247  0.4267  0.0833
   7623SM  H23F10106   0.783   3.717   4.661  0.8553  0.4050 -0.0363
   7623SM  H23G10107   0.810   3.715   4.487  1.8316  1.3909  0.1691
   7623SM  H23H10108   0.661   3.799   4.551  0.0158 -1.3171 -1.7315
   7723SM     N10109   0.123   2.601   6.991 -0.1860 -0.2502 -0.0349
   7723SM   C1510110   0.151   2.486   7.078 -0.3881  0.1549 -0.5430
   7723SM  H15A10111   0.207   2.408   7.027 -0.5364 -0.5571  0.3688
   7723SM  H15B10112   0.064   2.447   7.128 -0.4002  1.8494  0.8129
   7723SM  H15C10113   0.208   2.515   7.164  0.9899  0.1716 -1.4280
   7723SM   C1410114   0.101   2.715   7.089  0.0679 -0.6155 -0.1899
   7723SM  H14A10115   0.174   2.706   7.168 -1.1807 -2.6022  0.8325
   7723SM  H14B10116   0.002   2.708   7.132 -1.4321 -0.5665 -3.3298
   7723SM  H14C10117   0.103   2.814   7.047  2.0796 -0.8787 -0.8193
   7723SM   C1310118   0.244   2.625   6.905 -0.5028 -0.6801  0.0346
   7723SM  H13A10119   0.246   2.726   6.867  1.6330 -0.1334  1.4373
   7723SM  H13B10120   0.251   2.554   6.824  2.1508 -1.6764  1.0106
   7723SM  H13C10121   0.332   2.607   6.965 -0.4328  1.6816  0.7428
   7723SM   C1210122   0.003   2.576   6.895  0.8722 -0.0138 -0.9433
   7723SM  H12A10123   0.019   2.495   6.825 -0.3812  0.2089 -1.5350
   7723SM  H12B10124  -0.003   2.667   6.836 -2.9890 -0.3968 -1.4419
   7723SM   C1110125  -0.142   2.562   6.952  0.1161 -0.1146 -0.1831
   7723SM  H11A10126  -0.217   2.583   6.873 -0.1467 -2.0737 -0.5120
   7723SM  H11B10127  -0.173   2.627   7.038 -1.9239  0.2101 -1.1097
   7723SM     P10128  -0.133   2.299   6.916 -0.0593  0.0336  0.2054
   7723SM   O1310129  -0.012   2.305   6.836 -0.1231  0.2033 -0.0046
   7723SM   O1410130  -0.145   2.179   7.004  0.9001  0.1040 -1.1369
   7723SM   O1110131  -0.250   2.293   6.814 -0.4835  0.8834 -0.2844
   7723SM   O1210132  -0.159   2.429   7.003  0.0311 -0.1387 -0.2674
   7723SM   C1S10133  -0.271   2.380   6.706  0.0227 -0.3418  0.2863
   7723SM   H1S10134  -0.204   2.469   6.714  0.9318 -0.9877  0.0928
   7723SM   H1T10135  -0.378   2.405   6.689  1.0614  2.2940 -4.0574
   7723SM    NF10136  -0.240   2.393   6.458 -0.2947  0.1071 -0.0420
   7723SM   HNF10137  -0.306   2.360   6.391 -0.7502  1.2338 -0.1647
   7723SM   C2S10138  -0.223   2.304   6.574 -0.2145 -1.2327  0.5237
   7723SM   H2S10139  -0.115   2.288   6.592  0.2571  0.0860 -0.9006
   7723SM   C3S10140  -0.290   2.162   6.565 -0.0653  0.1215  0.4370
   7723SM   H3S10141  -0.401   2.176   6.564 -0.1589 -0.3293  2.1294
   7723SM    O310142  -0.274   2.070   6.677  0.0718 -0.4038  0.1571
   7723SM   HO310143  -0.245   2.128   6.748 -1.6212  3.1843 -1.8282
   7723SM   C4S10144  -0.231   2.102   6.434  0.6501 -0.5344 -0.3304
   7723SM   H4S10145  -0.307   2.096   6.355 -0.3817  0.3982  0.5507
   7723SM   C5S10146  -0.119   2.031   6.416 -0.6166  0.5724 -0.0891
   7723SM   H5S10147  -0.057   2.007   6.504  0.8674  3.2844 -0.2895
   7723SM   C6S10148  -0.093   1.947   6.291  0.5077 -0.2359 -0.1819
   7723SM   H6S10149  -0.089   1.840   6.322 -0.6489 -0.0663  0.6298
   7723SM   H6T10150   0.010   1.959   6.251  0.5626  0.0477  0.0411
   7723SM   C7S10151  -0.198   1.954   6.180  0.0096  0.2675 -0.6689
   7723SM   H7S10152  -0.223   2.060   6.162 -2.0345  0.1315  1.0176
   7723SM   H7T10153  -0.287   1.893   6.209  1.3323 -0.2120  2.9279
   7723SM   C8S10154  -0.153   1.900   6.046 -0.6000  0.4655 -0.6735
   7723SM   H8S10155  -0.124   1.795   6.068  0.6572  1.1757  1.2713
   7723SM   H8T10156  -0.065   1.960   6.012  1.1331  0.2762  2.9685
   7723SM   C9S10157  -0.264   1.894   5.942  0.1204  0.9010  0.2527
   7723SM   H9S10158  -0.331   1.983   5.940 -0.7877  0.2544  0.8981
   7723SM   H9T10159  -0.321   1.799   5.950  0.4942  0.6122 -0.4706
   7723SM  C10S10160  -0.192   1.864   5.803  0.4666 -0.0181 -0.2048
   7723SM  H10S10161  -0.145   1.955   5.761 -0.4165  1.5741  2.0680
   7723SM  H10T10162  -0.278   1.834   5.738  0.2519 -0.6202  0.3462
   7723SM  C11S10163  -0.079   1.757   5.790  0.0957  0.4919 -0.9512
   7723SM  H11S10164  -0.122   1.656   5.807 -1.2054  0.9377 -1.4591
   7723SM  H11T10165  -0.009   1.802   5.864 -1.9968  1.1419  0.7197
   7723SM  C12S10166  -0.010   1.760   5.652  0.6661 -0.5018  0.3062
   7723SM  H12S10167   0.028   1.864   5.643 -0.0827 -0.2775 -0.4682
   7723SM  H12T10168  -0.097   1.748   5.584  0.7379 -2.3348  0.4955
   7723SM  C13S10169   0.095   1.654   5.644 -0.2921  0.0709 -0.3079
   7723SM  H13S10170   0.136   1.661   5.541 -0.2712  1.4499 -0.2251
   7723SM  H13T10171   0.046   1.555   5.645 -0.8121  0.2365 -2.5673
   7723SM  C14S10172   0.205   1.671   5.750 -0.2297 -0.8889 -0.4173
   7723SM  H14S10173   0.164   1.679   5.852  1.3936 -2.7474  0.4504
   7723SM  H14T10174   0.278   1.753   5.732  2.5179 -2.5785  2.1253
   7723SM  C15S10175   0.288   1.542   5.757  0.3583 -0.2017 -0.4212
   7723SM  H15S10176   0.314   1.525   5.650 -0.5372  0.6051 -0.7777
   7723SM  H15T10177   0.220   1.466   5.800  0.5637  0.1075  0.4600
   7723SM  C16S10178   0.417   1.557   5.826 -0.0867  0.0355 -0.0808
   7723SM  H16S10179   0.411   1.599   5.929 -1.8692  1.6312 -0.7720
   7723SM  H16T10180   0.476   1.628   5.764  0.6643 -1.3415 -0.9934
   7723SM  C17S10181   0.495   1.425   5.826 -0.5677  0.0220  0.4600
   7723SM  H17S10182   0.514   1.395   5.721  0.6725  3.7205 -0.5350
   7723SM  H17T10183   0.451   1.344   5.888 -0.9455 -0.0646  0.0819
   7723SM  C18S10184   0.647   1.450   5.868 -0.9553 -0.0939 -0.1580
   7723SM  H18S10185   0.698   1.519   5.797  0.6490 -1.0510  0.0234
   7723SM  H18T10186   0.712   1.360   5.871 -0.7451  0.0504 -0.3464
   7723SM  H18U10187   0.653   1.509   5.962  1.7050  1.1123 -0.9845
   7723SM   C1F10188  -0.166   2.500   6.433 -0.6904 -0.9001 -0.4120
   7723SM    OF10189  -0.078   2.537   6.513  0.6219  0.0251 -0.1864
   7723SM   C2F10190  -0.189   2.570   6.302 -0.8542 -0.3067 -0.8333
   7723SM   H2F10191  -0.282   2.628   6.317 -0.9693 -1.1506  2.4577
   7723SM   H2G10192  -0.201   2.498   6.219  0.1849 -2.0971  0.4833
   7723SM   C3F10193  -0.066   2.669   6.276  0.0764  0.0124 -0.2697
   7723SM   H3F10194   0.030   2.613   6.268 -0.2944 -0.6888  0.1025
   7723SM   H3G10195  -0.049   2.738   6.362  0.1810  0.6258 -0.7764
   7723SM   C4F10196  -0.096   2.760   6.151  0.3277 -0.1235 -0.4860
   7723SM   H4F10197  -0.056   2.862   6.171 -2.2405  0.6790  1.0366
   7723SM   H4G10198  -0.205   2.778   6.138  0.3858  2.4771  1.6969
   7723SM   C5F10199  -0.041   2.711   6.018  0.0070 -0.0980 -0.3188
   7723SM   H5F10200  -0.111   2.628   5.992  0.5280 -0.6585  0.0442
   7723SM   H5G10201   0.058   2.667   6.040  0.6856  1.0876 -0.9124
   7723SM   C6F10202  -0.039   2.823   5.910  1.0062 -0.2214 -0.4958
   7723SM   H6F10203   0.007   2.909   5.963  0.2974 -0.6089  0.8002
   7723SM   H6G10204  -0.145   2.853   5.895  1.0706  0.0593 -0.3950
   7723SM   C7F10205   0.032   2.794   5.774  1.0044 -0.4667  0.0044
   7723SM   H7F10206  -0.011   2.705   5.724  0.5947 -0.0636 -0.3833
   7723SM   H7G10207   0.140   2.770   5.783  0.5831 -1.9939  1.4483
   7723SM   C8F10208   0.028   2.913   5.673 -0.4569  0.4249  0.8724
   7723SM   H8F10209   0.066   2.872   5.578 -0.2445 -1.8569  1.8710
   7723SM   H8G10210   0.095   2.995   5.705 -0.7744  1.0292  0.0154
   7723SM   C9F10211  -0.109   2.969   5.639 -0.0098 -0.3591  0.6418
   7723SM   H9F10212  -0.098   3.033   5.549  3.7429 -1.5158  0.1097
   7723SM   H9G10213  -0.153   3.024   5.725 -0.2199  0.0933  0.2495
   7723SM  C10F10214  -0.213   2.861   5.597  0.4652  0.0083 -0.3467
   7723SM  H10F10215  -0.235   2.795   5.684  1.4854 -0.7568 -0.6551
   7723SM  H10G10216  -0.169   2.799   5.516  1.2077  0.4975 -0.3166
   7723SM  C11F10217  -0.339   2.914   5.538  0.4369  0.7407 -0.1714
   7723SM  H11F10218  -0.372   2.843   5.460 -0.3693  0.7392  0.1602
   7723SM  H11G10219  -0.309   3.006   5.483  0.3518  1.7103  1.3304
   7723SM  C12F10220  -0.455   2.956   5.640  0.3717  0.2005 -0.0979
   7723SM  H12F10221  -0.403   2.974   5.736  1.2728 -1.6486 -0.2041
   7723SM  H12G10222  -0.534   2.878   5.650  1.1939 -0.6895 -0.4154
   7723SM  C13F10223  -0.535   3.081   5.591 -0.3533  0.2987  0.4715
   7723SM  H13F10224  -0.466   3.164   5.564 -1.8398  0.7447 -2.3041
   7723SM  H13G10225  -0.581   3.117   5.686 -1.3812  0.0149  0.0924
   7723SM  C14F10226  -0.630   3.048   5.474  0.4186 -0.2740 -0.1688
   7723SM  H14F10227  -0.697   3.136   5.482  2.5596  1.4377 -0.1199
   7723SM  H14G10228  -0.683   2.952   5.486  1.9209 -1.1076  0.1458
   7723SM  C15F10229  -0.559   3.052   5.337 -0.2052 -0.4180  0.6679
   7723SM  H15F10230  -0.507   2.958   5.308  1.5627  0.4800  0.7698
   7723SM  H15G10231  -0.474   3.123   5.344 -0.2946 -0.4226  1.9849
   7723SM  C16F10232  -0.662   3.101   5.228  0.0020  0.5814 -0.1279
   7723SM  H16F10233  -0.712   3.197   5.251 -0.5791  0.1730  0.3461
   7723SM  H16G10234  -0.743   3.025   5.224 -1.0526  1.4671  2.5824
   7723SM  C17F10235  -0.595   3.107   5.090 -0.3603 -0.7505 -0.2975
   7723SM  H17F10236  -0.684   3.114   5.023 -0.7820 -2.9915 -0.0664
   7723SM  H17G10237  -0.536   3.019   5.055 -1.0124 -0.4309 -2.3445
   7723SM  C18F10238  -0.513   3.236   5.077 -0.5258 -1.0174 -0.0678
   7723SM  H18F10239  -0.416   3.233   5.130  0.4192  0.9848 -1.5375
   7723SM  H18G10240  -0.572   3.315   5.129  0.8606  0.0323 -0.0225
   7723SM  C19F10241  -0.498   3.270   4.934 -0.4505 -0.4036  0.3901
   7723SM  H19F10242  -0.595   3.301   4.889 -0.6023 -0.9800  0.3114
   7723SM  H19G10243  -0.476   3.180   4.874 -0.3678  0.4183 -0.8394
   7723SM  C20F10244  -0.408   3.383   4.889 -0.2334 -0.2001 -0.7715
   7723SM  H20F10245  -0.301   3.356   4.894 -0.9052 -2.9800  0.5320
   7723SM  H20G10246  -0.435   3.466   4.959 -1.3412 -1.5746  0.4976
   7723SM  C21F10247  -0.444   3.427   4.748  0.3963  0.0355  0.6516
   7723SM  H21F10248  -0.550   3.461   4.748 -0.3918 -2.2664  1.0940
   7723SM  H21G10249  -0.454   3.335   4.686 -1.2803 -0.6781  1.9110
   7723SM  C22F10250  -0.349   3.541   4.694  0.4672 -0.2468  0.3924
   7723SM  H22F10251  -0.255   3.491   4.663  0.0481 -0.8733  0.0872
   7723SM  H22G10252  -0.335   3.617   4.773 -2.2339  1.4097 -0.5694
   7723SM  C23F10253  -0.412   3.625   4.580 -0.1317 -0.2918 -0.5888
   7723SM  H23F10254  -0.486   3.559   4.530  1.8982 -2.1987 -1.2512
   7723SM  H23G10255  -0.334   3.647   4.504  2.8897 -2.0056  1.7896
   7723SM  H23H10256  -0.472   3.711   4.616 -2.4439 -1.7229 -0.7891
   7823SM     N10257   0.873   0.038   7.190 -0.1772  0.0606 -0.4438
   7823SM   C1510258   0.776   0.015   7.306 -0.4966  0.1342 -0.1842
   7823SM  H15A10259   0.818  -0.059   7.373 -0.0538  0.6538  0.1222
   7823SM  H15B10260   0.687  -0.036   7.273 -0.3664  0.3173 -0.8317
   7823SM  H15C10261   0.754   0.105   7.361  0.5618  0.5860 -0.4672
   7823SM   C1410262   0.809   0.121   7.084  0.3817  0.1192 -0.5051
   7823SM  H14A10263   0.814   0.221   7.126  1.6800  0.0901 -0.5663
   7823SM  H14B10264   0.710   0.083   7.063 -0.1383  0.5302  1.0322
   7823SM  H14C10265   0.869   0.127   6.995 -1.1847  3.0723 -1.5137
   7823SM   C1310266   0.998   0.092   7.246  0.0975 -0.4857 -0.0291
   7823SM  H13A10267   0.983   0.193   7.279 -1.3748 -0.3018 -1.1910
   7823SM  H13B10268   1.090   0.100   7.189  0.1511 -0.9965 -0.0228
   7823SM  H13C10269   1.025   0.022   7.324 -2.2949 -0.4145  0.9498
   7823SM   C1210270   0.894  -0.094   7.116  0.5352 -0.2191 -0.8848
   7823SM  H12A10271   0.966  -0.065   7.041  0.7627 -0.4842 -0.7737
   7823SM  H12B10272   0.805  -0.120   7.061  1.2006  0.0954 -2.1321
   7823SM   C1110273   0.947  -0.220   7.200 -0.6182 -0.6713  0.4064
   7823SM  H11A10274   1.034  -0.179   7.255 -0.7329  1.8875 -1.1123
   7823SM  H11B10275   0.986  -0.284   7.119  1.9516  0.7470  0.4236
   7823SM     P10276   0.786  -0.418   7.238 -0.1067 -0.1606  0.0486
   7823SM   O1310277   0.886  -0.523   7.275 -0.0054  0.1759 -0.2871
   7823SM   O1410278   0.650  -0.424   7.294 -0.3710  0.2138  0.3398
   7823SM   O1110279   0.790  -0.411   7.076  0.1046 -0.7181 -0.5283
   7823SM   O1210280   0.849  -0.279   7.283 -0.1701 -0.2929 -0.0092
   7823SM   C1S10281   0.701  -0.489   6.992  0.2553  0.5370 -0.2454
   7823SM   H1S10282   0.602  -0.439   6.984 -0.5568 -0.7972  0.9931
   7823SM   H1T10283   0.693  -0.593   7.031  1.5083  1.3668  2.4661
   7823SM    NF10284   0.662  -0.565   6.749 -0.1116  0.3173 -0.1883
   7823SM   HNF10285   0.674  -0.659   6.718 -0.3652  0.5845 -1.1311
   7823SM   C2S10286   0.759  -0.505   6.852  0.3284 -0.0987  0.2961
   7823SM   H2S10287   0.775  -0.401   6.815 -1.5677 -0.1344 -0.7244
   7823SM   C3S10288   0.901  -0.583   6.855  0.2387  0.2336  0.5498
   7823SM   H3S10289   0.881  -0.688   6.885  2.4477  0.0309  1.5168
   7823SM    O310290   0.992  -0.537   6.958 -0.1858  0.2761  0.2775
   7823SM   HO310291   0.934  -0.491   7.020 -0.1606  0.4566  0.1683
   7823SM   C4S10292   0.964  -0.586   6.721  0.2362 -0.1698 -0.1172
   7823SM   H4S10293   0.937  -0.682   6.674  2.4769 -0.7319 -0.3639
   7823SM   C5S10294   1.046  -0.495   6.666 -0.0846 -0.1081  0.7897
   7823SM   H5S10295   1.086  -0.414   6.729 -0.1226 -0.4692  1.2885
   7823SM   C6S10296   1.110  -0.507   6.532 -0.3141 -0.1381 -0.0103
   7823SM   H6S10297   1.217  -0.533   6.540 -0.5915 -1.5607 -0.5707
   7823SM   H6T10298   1.113  -0.404   6.489 -0.5722 -0.4526 -0.8155
   7823SM   C7S10299   1.041  -0.601   6.434 -0.0469 -0.6740  0.6248
   7823SM   H7S10300   0.938  -0.564   6.420  0.5407  0.7613 -0.1300
   7823SM   H7T10301   1.034  -0.706   6.471 -3.0234 -0.2179  1.5880
   7823SM   C8S10302   1.099  -0.590   6.294  0.5041 -0.0696  0.3071
   7823SM   H8S10303   1.204  -0.626   6.300  0.1386 -1.9098 -2.6114
   7823SM   H8T10304   1.107  -0.483   6.266  1.0334 -0.4254 -0.9318
   7823SM   C9S10305   1.022  -0.667   6.188  0.9462  0.2640  0.1601
   7823SM   H9S10306   0.915  -0.638   6.194  0.5529 -1.2726  1.3099
   7823SM   H9T10307   1.032  -0.768   6.235  2.8033  1.8345  3.5493
   7823SM  C10S10308   1.086  -0.651   6.048  0.7471  0.2538 -0.5643
   7823SM  H10S10309   1.194  -0.677   6.044  0.7887  0.1920  0.5654
   7823SM  H10T10310   1.085  -0.543   6.022 -0.5886  0.1027 -1.2121
   7823SM  C11S10311   1.008  -0.739   5.945 -0.5075 -0.8014 -0.3070
   7823SM  H11S10312   0.899  -0.717   5.950 -0.6808 -1.8853  2.2860
   7823SM  H11T10313   1.021  -0.848   5.961  1.7284 -0.3579  1.5308
   7823SM  C12S10314   1.052  -0.715   5.796 -0.1544 -0.3590  0.3092
   7823SM  H12S10315   1.152  -0.763   5.785  1.7547  3.1210  0.9852
   7823SM  H12T10316   1.067  -0.608   5.770  1.6904 -0.9476 -1.2460
   7823SM  C13S10317   0.952  -0.763   5.696 -0.3639  0.3355  0.0796
   7823SM  H13S10318   0.857  -0.707   5.709 -1.1581 -0.7655 -0.8874
   7823SM  H13T10319   0.939  -0.869   5.724  1.3397  0.3638  1.1779
   7823SM  C14S10320   1.000  -0.759   5.557  0.2278 -0.0891  0.2392
   7823SM  H14S10321   1.096  -0.816   5.560  0.2256 -0.1089  3.2642
   7823SM  H14T10322   1.012  -0.657   5.516  1.1983 -0.2664  0.0543
   7823SM  C15S10323   0.905  -0.844   5.463  0.1054 -0.0776 -0.0122
   7823SM  H15S10324   0.802  -0.807   5.481 -0.0065 -0.5537  0.3512
   7823SM  H15T10325   0.907  -0.947   5.503  0.4157 -0.2748 -0.5183
   7823SM  C16S10326   0.953  -0.846   5.319  0.3496  0.4682 -0.0669
   7823SM  H16S10327   1.052  -0.895   5.310 -0.8275 -2.1579  0.2838
   7823SM  H16T10328   0.961  -0.744   5.275 -0.8703  1.0555  1.0114
   7823SM  C17S10329   0.843  -0.912   5.235 -0.1646  0.6298 -0.8570
   7823SM  H17S10330   0.761  -0.838   5.244 -0.1316  0.3845  2.6318
   7823SM  H17T10331   0.811  -1.007   5.284 -2.8504  1.0953 -1.5119
   7823SM  C18S10332   0.885  -0.927   5.089  0.1736 -0.0762  0.0012
   7823SM  H18S10333   0.946  -0.842   5.052 -1.4813  0.5685 -1.3958
   7823SM  H18T10334   0.798  -0.957   5.027  0.0710  0.5286 -0.1539
   7823SM  H18U10335   0.957  -1.009   5.109 -1.0380 -0.9377  0.9722
   7823SM   C1F10336   0.562  -0.491   6.698 -0.5350  0.0054  0.0901
   7823SM    OF10337   0.559  -0.368   6.711  0.7576 -0.0560 -0.3590
   7823SM   C2F10338   0.467  -0.567   6.606  0.0582 -0.3037 -0.1762
   7823SM   H2F10339   0.377  -0.601   6.661 -0.7323 -0.4715 -1.5552
   7823SM   H2G10340   0.524  -0.656   6.571  0.4608 -0.7584  1.5153
   7823SM   C3F10341   0.431  -0.478   6.479  0.8610  0.2713 -0.4337
   7823SM   H3F10342   0.519  -0.489   6.413  0.2931 -0.1442 -1.1401
   7823SM   H3G10343   0.415  -0.373   6.510  1.7621  0.3540 -0.2362
   7823SM   C4F10344   0.305  -0.528   6.408  0.0059 -0.3391  0.6298
   7823SM   H4F10345   0.217  -0.521   6.475 -0.3571  0.3953  0.0907
   7823SM   H4G10346   0.317  -0.634   6.376  1.2239  0.0922 -0.4538
   7823SM   C5F10347   0.270  -0.462   6.274 -0.0974 -0.2757  0.0868
   7823SM   H5F10348   0.222  -0.366   6.301  0.2381  0.3313 -1.3593
   7823SM   H5G10349   0.202  -0.534   6.224  0.1049 -0.5037  0.1389
   7823SM   C6F10350   0.391  -0.426   6.179 -0.1489  0.3127  0.7888
   7823SM   H6F10351   0.446  -0.519   6.151 -1.9035  0.0685 -2.3056
   7823SM   H6G10352   0.455  -0.353   6.233 -1.1455  0.6446  1.5542
   7823SM   C7F10353   0.335  -0.377   6.043 -0.4583  0.2176  0.6729
   7823SM   H7F10354   0.268  -0.296   6.080  0.3112  0.7281  0.9685
   7823SM   H7G10355   0.275  -0.451   5.986  1.5692  0.5683 -2.0734
   7823SM   C8F10356   0.444  -0.328   5.947 -0.4122  0.0048  0.4698
   7823SM   H8F10357   0.509  -0.408   5.908 -0.4173  0.9822 -1.6947
   7823SM   H8G10358   0.506  -0.251   5.999  0.3409 -0.2043 -0.1072
   7823SM   C9F10359   0.387  -0.249   5.818  0.1910  0.0948 -0.1072
   7823SM   H9F10360   0.316  -0.170   5.848  1.9123  1.7964 -0.3089
   7823SM   H9G10361   0.335  -0.318   5.747  1.5241  0.6727 -1.7214
   7823SM  C10F10362   0.494  -0.192   5.728  0.3188 -0.5622 -0.0470
   7823SM  H10F10363   0.559  -0.277   5.700  1.2317 -0.1949  0.8720
   7823SM  H10G10364   0.558  -0.126   5.791  0.9894  0.1978 -1.4820
   7823SM  C11F10365   0.442  -0.120   5.607  0.9101  0.3242 -0.4799
   7823SM  H11F10366   0.364  -0.050   5.643  0.8388 -0.8320  1.8191
   7823SM  H11G10367   0.381  -0.180   5.536 -1.2032  0.1123  1.4055
   7823SM  C12F10368   0.554  -0.047   5.528 -0.1586 -0.5060 -0.7018
   7823SM  H12F10369   0.609  -0.121   5.466  2.9790  0.0886  1.1790
   7823SM  H12G10370   0.634  -0.005   5.592  0.9518 -0.5382 -2.0099
   7823SM  C13F10371   0.517   0.079   5.438 -0.2147  0.7334 -0.3360
   7823SM  H13F10372   0.480   0.155   5.511 -0.3207  0.0460  0.3343
   7823SM  H13G10373   0.421   0.066   5.384 -1.3009  2.3561  1.1032
   7823SM  C14F10374   0.641   0.146   5.371 -0.0418  0.2204  0.0492
   7823SM  H14F10375   0.716   0.171   5.449 -0.5255 -2.0851  1.3262
   7823SM  H14G10376   0.604   0.239   5.324 -0.8835  0.2804  0.8120
   7823SM  C15F10377   0.694   0.057   5.260  0.4612 -0.3156  0.8773
   7823SM  H15F10378   0.603   0.013   5.212  0.4397  1.1082 -0.4744
   7823SM  H15G10379   0.759  -0.024   5.298  2.8742  0.2032 -1.7996
   7823SM  C16F10380   0.764   0.138   5.147 -0.2902 -0.3103  0.3428
   7823SM  H16F10381   0.701   0.225   5.119 -0.0802 -0.5815 -1.0508
   7823SM  H16G10382   0.785   0.079   5.055  0.9006  1.6832 -0.7394
   7823SM  C17F10383   0.908   0.179   5.194  0.2474 -0.4272 -0.0807
   7823SM  H17F10384   0.983   0.097   5.193 -0.3770 -1.0099 -0.0781
   7823SM  H17G10385   0.902   0.207   5.302  1.3723  1.6839 -0.5277
   7823SM  C18F10386   0.960   0.299   5.116 -0.2760 -0.2783 -0.4018
   7823SM  H18F10387   0.889   0.384   5.120 -1.9555 -1.6668  1.8109
   7823SM  H18G10388   0.971   0.275   5.008 -1.6159 -1.5236 -0.2959
   7823SM  C19F10389   1.093   0.360   5.171  0.1459 -0.2857 -0.1504
   7823SM  H19F10390   1.076   0.379   5.280  4.5518 -0.6803  0.7794
   7823SM  H19G10391   1.119   0.458   5.125  0.9978  0.1439  1.1618
   7823SM  C20F10392   1.220   0.269   5.168 -0.1411  0.5078 -1.1424
   7823SM  H20F10393   1.198   0.180   5.231  0.4121  1.2975  0.2000
   7823SM  H20G10394   1.289   0.328   5.232  0.1571 -2.0710  1.1077
   7823SM  C21F10395   1.262   0.238   5.020  0.5535  0.1492  0.2358
   7823SM  H21F10396   1.257   0.329   4.957  0.4501 -1.0356 -1.5616
   7823SM  H21G10397   1.171   0.187   4.980  0.3254  1.4783 -1.0611
   7823SM  C22F10398   1.386   0.153   5.002  0.3670  0.1367  0.5671
   7823SM  H22F10399   1.375   0.058   5.059  0.7857 -1.7552 -2.3109
   7823SM  H22G10400   1.473   0.202   5.052 -0.4252  0.5273  1.6082
   7823SM  C23F10401   1.432   0.112   4.863 -0.4459 -0.0336 -0.5169
   7823SM  H23F10402   1.450   0.204   4.803  0.2726  0.2459  0.1230
   7823SM  H23G10403   1.358   0.055   4.803  1.6083 -2.1483 -1.1774
   7823SM  H23H10404   1.529   0.063   4.882 -0.7118 -0.2389  0.3461
   7923SM     N10405   6.477   0.494   7.562 -0.5664  0.0401  0.7056
   7923SM   C1510406   6.515   0.595   7.462  0.3920  0.0017  0.3674
   7923SM  H15A10407   6.611   0.639   7.479 -0.3672  1.6651  0.4989
   7923SM  H15B10408   6.452   0.683   7.471  2.1993  1.5679 -1.5220
   7923SM  H15C10409   6.500   0.567   7.359 -0.6316  1.2427  0.1543
   7923SM   C1410410   6.505   0.550   7.695 -0.0885 -0.3858 -0.1118
   7923SM  H14A10411   6.609   0.581   7.703 -0.6008  2.8688 -3.5245
   7923SM  H14B10412   6.462   0.480   7.765 -3.1652  0.2104 -1.2697
   7923SM  H14C10413   6.454   0.645   7.705  1.6722  0.5785  0.1396
   7923SM   C1310414   6.330   0.466   7.556 -0.8488  0.4265 -0.0586
   7923SM  H13A10415   6.259   0.548   7.559 -0.6607  0.5876 -0.0289
   7923SM  H13B10416   6.312   0.398   7.637  2.8145 -1.1371 -0.3717
   7923SM  H13C10417   6.302   0.411   7.467  0.0041 -0.3699  0.1561
   7923SM   C1210418   6.556   0.364   7.552 -0.2410 -0.9365 -0.1191
   7923SM  H12A10419   6.530   0.305   7.639  1.0172  0.9203  1.5898
   7923SM  H12B10420   6.662   0.384   7.548 -0.2415 -0.2203  2.1749
   7923SM   C1110421   6.527   0.276   7.430  0.1851  0.7697  0.2166
   7923SM  H11A10422   6.511   0.345   7.344 -0.1118  0.0998 -0.2723
   7923SM  H11B10423   6.438   0.211   7.444  1.2192 -0.6076  0.6306
   7923SM     P10424   6.685   0.132   7.275 -0.3522  0.5644  0.0662
   7923SM   O1310425   6.761   0.232   7.202  0.0389 -0.2476  0.7405
   7923SM   O1410426   6.758   0.008   7.307 -0.4965 -0.1236  0.3087
   7923SM   O1110427   6.546   0.093   7.213 -0.5317 -0.5203 -0.4590
   7923SM   O1210428   6.643   0.187   7.413  0.7379  1.0792 -0.1070
   7923SM   C1S10429   6.475   0.157   7.106  0.5185 -0.3757 -0.0409
   7923SM   H1S10430   6.438   0.258   7.131  0.6089 -0.9752  2.8130
   7923SM   H1T10431   6.383   0.096   7.093 -0.8669  0.9248  2.7666
   7923SM    NF10432   6.478   0.252   6.877 -0.3563 -0.1033  0.4548
   7923SM   HNF10433   6.412   0.204   6.820 -0.7842  2.3393 -1.2930
   7923SM   C2S10434   6.548   0.167   6.973  0.5678  0.3321  0.0971
   7923SM   H2S10435   6.641   0.223   6.996  0.0759  1.8561 -1.4185
   7923SM   C3S10436   6.573   0.024   6.931 -0.5822 -0.2569 -0.8197
   7923SM   H3S10437   6.479  -0.027   6.899 -1.2163 -0.1238  0.7532
   7923SM    O310438   6.620  -0.075   7.022  0.0673 -0.0712  0.0977
   7923SM   HO310439   6.619  -0.033   7.108 -0.2114 -1.4475  0.8021
   7923SM   C4S10440   6.662   0.030   6.814 -0.2701  0.1198  0.1301
   7923SM   H4S10441   6.605   0.042   6.721  0.4438 -0.3359 -0.3722
   7923SM   C5S10442   6.798   0.020   6.809  0.2474  0.4872  0.6356
   7923SM   H5S10443   6.857   0.037   6.900 -0.6094  0.9781  1.1155
   7923SM   C6S10444   6.885   0.027   6.685  0.9239  0.4398 -0.0935
   7923SM   H6S10445   6.964  -0.051   6.699  1.6739  1.1318 -0.3860
   7923SM   H6T10446   6.933   0.127   6.690  2.4197 -0.3125  2.4267
   7923SM   C7S10447   6.819   0.010   6.548  1.0524 -0.0719 -0.2921
   7923SM   H7S10448   6.726   0.071   6.542  1.2275  0.1085 -1.3668
   7923SM   H7T10449   6.777  -0.092   6.535  0.5527  0.0966 -0.0400
   7923SM   C8S10450   6.898   0.046   6.423  0.7154  0.8318 -0.2130
   7923SM   H8S10451   6.991  -0.013   6.406 -0.2666 -0.3318 -1.8892
   7923SM   H8T10452   6.936   0.150   6.424 -1.0737  1.5348  1.3569
   7923SM   C9S10453   6.809   0.025   6.298 -0.4209  0.4009  0.2521
   7923SM   H9S10454   6.712   0.080   6.300 -1.2541 -0.7077 -2.9616
   7923SM   H9T10455   6.788  -0.084   6.305  0.1788  0.3287  0.9592
   7923SM  C10S10456   6.869   0.053   6.162  0.4450 -0.4608 -0.0649
   7923SM  H10S10457   6.925   0.147   6.183 -0.5002 -0.0193  0.5525
   7923SM  H10T10458   6.799   0.069   6.078  1.7615 -0.8747 -1.2783
   7923SM  C11S10459   6.960  -0.056   6.121 -0.2399  0.2445 -0.3849
   7923SM  H11S10460   6.898  -0.148   6.118  3.5213 -2.6798  1.7470
   7923SM  H11T10461   7.039  -0.079   6.196  0.7081  0.6767 -1.2217
   7923SM  C12S10462   7.014  -0.032   5.977 -0.5284  0.6262 -0.2694
   7923SM  H12S10463   7.063   0.067   5.971  2.2455 -0.5577  1.0048
   7923SM  H12T10464   6.928  -0.036   5.906 -1.1732  0.1399  0.5264
   7923SM  C13S10465   7.118  -0.138   5.934  0.5864  0.8929  0.9133
   7923SM  H13S10466   7.065  -0.232   5.962  1.2669 -0.2349 -1.3528
   7923SM  H13T10467   7.218  -0.127   5.980  0.7494 -0.5733  0.9677
   7923SM  C14S10468   7.132  -0.141   5.784  0.0614 -0.1427 -0.6656
   7923SM  H14S10469   7.033  -0.135   5.733 -0.8939 -1.1131  1.0073
   7923SM  H14T10470   7.196  -0.228   5.759  4.5921  2.3671  1.0164
   7923SM  C15S10471   7.205  -0.021   5.724 -0.1537  0.2662 -0.2464
   7923SM  H15S10472   7.306  -0.008   5.769  0.7550  0.2724 -2.1896
   7923SM  H15T10473   7.137   0.064   5.743  0.3974  0.6800 -0.1018
   7923SM  C16S10474   7.220  -0.030   5.567 -0.4591  0.2259 -1.0553
   7923SM  H16S10475   7.121  -0.036   5.517 -1.3064 -0.1359  0.5640
   7923SM  H16T10476   7.278  -0.123   5.547  0.5682  0.8860 -1.2117
   7923SM  C17S10477   7.292   0.086   5.509 -0.3047  0.2637  0.8730
   7923SM  H17S10478   7.381   0.114   5.570 -0.0009 -1.3808  1.2192
   7923SM  H17T10479   7.220   0.170   5.502 -1.2494 -0.5580  0.6607
   7923SM  C18S10480   7.358   0.056   5.367 -0.2531  0.1193  0.2018
   7923SM  H18S10481   7.398  -0.047   5.370  0.6080  0.4670  2.7297
   7923SM  H18T10482   7.438   0.126   5.336  1.1957 -1.4061  0.3745
   7923SM  H18U10483   7.286   0.061   5.282  2.6179 -0.0114 -2.3866
   7923SM   C1F10484   6.469   0.384   6.900 -0.5736  0.4971 -0.8508
   7923SM    OF10485   6.554   0.439   6.974  0.0064  0.1263 -0.1275
   7923SM   C2F10486   6.353   0.460   6.855 -0.4250 -0.7455  0.1320
   7923SM   H2F10487   6.294   0.487   6.945 -0.3870  1.1810 -0.3726
   7923SM   H2G10488   6.290   0.399   6.786 -0.5732  0.3825 -0.7744
   7923SM   C3F10489   6.397   0.582   6.771 -0.3740 -0.1278  0.6444
   7923SM   H3F10490   6.469   0.559   6.690 -1.4955 -1.7187  0.0474
   7923SM   H3G10491   6.450   0.656   6.835 -1.9015  1.7536 -0.1432
   7923SM   C4F10492   6.276   0.659   6.719 -0.1708 -0.3183  0.7039
   7923SM   H4F10493   6.216   0.680   6.811 -3.1023 -0.4243 -1.0588
   7923SM   H4G10494   6.207   0.602   6.653 -0.6951  1.1359 -0.0525
   7923SM   C5F10495   6.301   0.792   6.644 -0.1301  0.1483  0.4713
   7923SM   H5F10496   6.354   0.875   6.697 -0.3060  1.4998 -1.3583
   7923SM   H5G10497   6.203   0.838   6.622 -1.2297 -2.3164 -0.0905
   7923SM   C6F10498   6.369   0.766   6.511 -0.2884  0.5838  0.1993
   7923SM   H6F10499   6.307   0.694   6.453 -0.1278  0.6407 -0.0445
   7923SM   H6G10500   6.465   0.717   6.535 -0.3262 -1.5105 -3.1297
   7923SM   C7F10501   6.414   0.892   6.426  0.3071 -0.2966 -0.9604
   7923SM   H7F10502   6.488   0.950   6.486 -1.4266 -0.0099  1.0138
   7923SM   H7G10503   6.329   0.961   6.409  0.8683  0.2887 -1.5061
   7923SM   C8F10504   6.487   0.861   6.302  0.1298  0.8198  0.8613
   7923SM   H8F10505   6.541   0.764   6.313 -2.2441 -0.6501  0.1531
   7923SM   H8G10506   6.555   0.944   6.271  1.5193  0.1004  1.8256
   7923SM   C9F10507   6.384   0.838   6.193  1.1586 -0.0423  0.1969
   7923SM   H9F10508   6.300   0.909   6.182  1.4674  0.4994  1.1936
   7923SM   H9G10509   6.342   0.736   6.208  1.3047 -0.2753 -0.8710
   7923SM  C10F10510   6.450   0.839   6.053  0.3768  0.1856  0.1266
   7923SM  H10F10511   6.534   0.767   6.053  0.5899  0.4322 -0.0370
   7923SM  H10G10512   6.491   0.941   6.035 -1.1188  0.8145  0.1525
   7923SM  C11F10513   6.354   0.789   5.941  0.1099 -0.5900  0.1465
   7923SM  H11F10514   6.259   0.846   5.945  1.0426  1.0483 -0.2222
   7923SM  H11G10515   6.334   0.682   5.965 -0.1997  0.0533  3.0622
   7923SM  C12F10516   6.408   0.801   5.801 -0.5134 -0.3829  1.5182
   7923SM  H12F10517   6.423   0.907   5.770 -1.4425 -1.0024 -1.3486
   7923SM  H12G10518   6.328   0.766   5.733  1.1430  0.4231 -0.9800
   7923SM  C13F10519   6.532   0.723   5.763  0.3778  0.3477  0.0864
   7923SM  H13F10520   6.527   0.627   5.819 -0.8749 -0.1882 -0.8988
   7923SM  H13G10521   6.628   0.769   5.794 -0.2059  2.2466 -0.7799
   7923SM  C14F10522   6.532   0.705   5.616  0.4649 -0.1792  0.0184
   7923SM  H14F10523   6.530   0.801   5.560  1.0046 -0.1605  0.0260
   7923SM  H14G10524   6.442   0.647   5.588  0.7393 -1.4338  1.5828
   7923SM  C15F10525   6.654   0.617   5.574  0.1576  1.0196  0.3637
   7923SM  H15F10526   6.632   0.523   5.629 -0.0493  0.0986 -1.2340
   7923SM  H15G10527   6.746   0.666   5.613  1.3344 -0.1504 -0.8615
   7923SM  C16F10528   6.667   0.584   5.427 -0.4950  0.0646 -0.3428
   7923SM  H16F10529   6.568   0.560   5.382 -0.2484 -0.8750 -0.3981
   7923SM  H16G10530   6.729   0.492   5.415  2.7777  2.0578 -0.1233
   7923SM  C17F10531   6.733   0.692   5.334 -0.1500 -0.4679  0.1239
   7923SM  H17F10532   6.842   0.685   5.355 -0.2478  2.1878  2.1035
   7923SM  H17G10533   6.689   0.790   5.364 -1.1124 -0.6012 -0.8177
   7923SM  C18F10534   6.715   0.670   5.187  0.4784  0.0295  0.7495
   7923SM  H18F10535   6.609   0.685   5.155  0.5528  2.5062  1.4263
   7923SM  H18G10536   6.742   0.564   5.165  1.7232  0.5010 -0.0718
   7923SM  C19F10537   6.792   0.773   5.101 -0.0179 -0.6543 -0.5749
   7923SM  H19F10538   6.900   0.760   5.126  0.1176 -1.2415 -1.4264
   7923SM  H19G10539   6.766   0.877   5.132 -3.5192 -1.7491  0.5977
   7923SM  C20F10540   6.772   0.753   4.957  0.4744 -0.2221  0.3145
   7923SM  H20F10541   6.819   0.841   4.908 -0.7279  1.1443  1.5205
   7923SM  H20G10542   6.662   0.745   4.941  0.4880 -0.2703  0.2463
   7923SM  C21F10543   6.838   0.624   4.915  0.1752 -0.7975  0.5390
   7923SM  H21F10544   6.751   0.555   4.923 -0.7491 -0.0093 -1.9076
   7923SM  H21G10545   6.916   0.596   4.990  1.5527  1.1272 -0.0953
   7923SM  C22F10546   6.896   0.623   4.776 -0.3819  0.2208  1.1017
   7923SM  H22F10547   6.838   0.683   4.704  3.1543 -0.0408 -2.2813
   7923SM  H22G10548   6.905   0.515   4.753  0.5759  0.2333  1.3542
   7923SM  C23F10549   7.045   0.673   4.770  0.3040 -0.2058  0.6192
   7923SM  H23F10550   7.103   0.623   4.851 -0.1357  1.9763  2.3711
   7923SM  H23G10551   7.038   0.781   4.793 -2.1041 -0.3535  0.7969
   7923SM  H23H10552   7.094   0.650   4.673 -2.2184 -0.5711 -0.6366
   8023SM     N10553   0.931   0.815   7.107  0.3042  0.0572  0.5974
   8023SM   C1510554   0.977   0.934   7.032 -0.1547 -0.1862 -0.6809
   8023SM  H15A10555   0.991   0.909   6.928 -1.0667  3.3171 -1.7626
   8023SM  H15B10556   1.074   0.962   7.070  0.5886 -1.4629 -1.5682
   8023SM  H15C10557   0.907   1.015   7.050 -1.2145 -1.6264  2.3612
   8023SM   C1410558   1.026   0.701   7.103  0.2245  0.2389  0.0421
   8023SM  H14A10559   1.117   0.738   7.147 -0.1659 -0.3255  1.3679
   8023SM  H14B10560   1.050   0.665   7.005 -3.1024 -1.2324 -0.3829
   8023SM  H14C10561   0.991   0.617   7.161  0.3567  0.1794  0.0347
   8023SM   C1310562   0.904   0.856   7.249 -0.2620  0.1406 -0.2046
   8023SM  H13A10563   0.988   0.887   7.308 -1.9732 -0.2724  2.6420
   8023SM  H13B10564   0.858   0.774   7.301 -0.9067  0.2099 -0.6453
   8023SM  H13C10565   0.841   0.944   7.244  0.8083  1.0170  1.0911
   8023SM   C1210566   0.793   0.773   7.055 -0.2385 -0.2298 -0.3543
   8023SM  H12A10567   0.722   0.853   7.067  1.0283  0.8477  0.2918
   8023SM  H12B10568   0.754   0.694   7.118 -1.2734 -2.1248 -3.2139
   8023SM   C1110569   0.786   0.722   6.911 -0.1617 -0.2198 -0.0619
   8023SM  H11A10570   0.831   0.796   6.840  1.0204 -3.0678 -2.4873
   8023SM  H11B10571   0.677   0.719   6.893 -0.5349  1.7775  1.4597
   8023SM     P10572   0.785   0.467   6.975  0.4066  0.0742 -0.2751
   8023SM   O1310573   0.895   0.408   7.055  0.0155  0.4734 -0.5846
   8023SM   O1410574   0.661   0.505   7.042 -0.0017  0.0077 -0.0226
   8023SM   O1110575   0.749   0.359   6.869 -0.1936  0.0761 -0.2183
   8023SM   O1210576   0.845   0.593   6.895  0.2496 -0.0386 -0.4720
   8023SM   C1S10577   0.692   0.389   6.737 -0.5887 -0.7579 -0.4395
   8023SM   H1S10578   0.777   0.419   6.672 -0.6921  0.5086 -0.0044
   8023SM   H1T10579   0.621   0.473   6.727  1.0970  0.9203  0.8767
   8023SM    NF10580   0.600   0.306   6.534  0.4560 -0.3867  0.5302
   8023SM   HNF10581   0.514   0.348   6.508  1.3204  2.4080  1.7285
   8023SM   C2S10582   0.618   0.267   6.666  0.9733 -0.2455 -0.4640
   8023SM   H2S10583   0.699   0.190   6.666 -0.2102 -1.5799  1.5311
   8023SM   C3S10584   0.496   0.213   6.751  0.3711  0.1935 -0.5554
   8023SM   H3S10585   0.430   0.302   6.752  1.3928  0.9704  0.2256
   8023SM    O310586   0.528   0.172   6.885 -0.2365  0.1086 -0.0276
   8023SM   HO310587   0.621   0.192   6.889  0.2115 -1.7500 -0.0150
   8023SM   C4S10588   0.435   0.098   6.685 -0.0246  0.1005  0.1419
   8023SM   H4S10589   0.498   0.008   6.677  1.7139  1.2781  0.3150
   8023SM   C5S10590   0.312   0.091   6.638 -0.0118 -0.0596 -0.0797
   8023SM   H5S10591   0.257   0.186   6.630  0.7785  0.4345  0.2747
   8023SM   C6S10592   0.246  -0.024   6.575 -0.4901  0.0343 -0.4449
   8023SM   H6S10593   0.136  -0.006   6.573 -0.2169  1.9118  0.0179
   8023SM   H6T10594   0.263  -0.116   6.636 -0.5318  1.1339  1.2696
   8023SM   C7S10595   0.309  -0.056   6.440 -0.4605 -0.1581 -0.6329
   8023SM   H7S10596   0.254  -0.142   6.396 -3.2186  2.2293 -2.2392
   8023SM   H7T10597   0.416  -0.081   6.451 -0.3129  0.8555  0.3721
   8023SM   C8S10598   0.296   0.052   6.333  0.0852  0.1284 -0.6189
   8023SM   H8S10599   0.328   0.151   6.372 -0.8998  0.6779 -1.1803
   8023SM   H8T10600   0.193   0.061   6.294 -1.2067  1.9294  2.8047
   8023SM   C9S10601   0.402   0.021   6.222 -0.1093 -0.5464 -0.4678
   8023SM   H9S10602   0.385  -0.083   6.188  0.2937 -1.6701  2.4417
   8023SM   H9T10603   0.501   0.021   6.273  1.1668 -1.6252 -2.7915
   8023SM  C10S10604   0.389   0.131   6.107 -0.1721  0.6745  0.4154
   8023SM  H10S10605   0.477   0.106   6.044 -1.6480  0.3025 -1.5840
   8023SM  H10T10606   0.394   0.240   6.129 -0.4587  0.8910 -0.5453
   8023SM  C11S10607   0.261   0.096   6.027  0.6288  0.1575 -0.5496
   8023SM  H11S10608   0.168   0.120   6.084 -0.4259 -0.7035 -1.8443
   8023SM  H11T10609   0.256  -0.015   6.017  2.2912 -0.3623  2.7617
   8023SM  C12S10610   0.240   0.175   5.890  0.8239 -0.3561  0.1169
   8023SM  H12S10611   0.341   0.198   5.851  1.1291 -2.5114 -0.4612
   8023SM  H12T10612   0.206   0.274   5.928 -1.9946 -1.2760  0.2483
   8023SM  C13S10613   0.148   0.123   5.789 -0.0273  0.5225 -0.6077
   8023SM  H13S10614   0.058   0.080   5.838  0.6884 -2.3533 -1.6126
   8023SM  H13T10615   0.195   0.033   5.743 -1.9414 -0.6508 -0.3899
   8023SM  C14S10616   0.108   0.222   5.674 -0.4656 -0.9481  0.0171
   8023SM  H14S10617   0.070   0.323   5.704  0.8150 -0.4852  0.1354
   8023SM  H14T10618   0.023   0.177   5.617 -1.0083  0.7841 -0.6221
   8023SM  C15S10619   0.220   0.248   5.578  0.1403  0.2959  0.0605
   8023SM  H15S10620   0.232   0.151   5.525 -2.7264  0.0558 -0.3414
   8023SM  H15T10621   0.311   0.263   5.640 -1.2827 -1.5402  2.7741
   8023SM  C16S10622   0.199   0.358   5.469 -0.2879 -0.1533 -0.2401
   8023SM  H16S10623   0.174   0.451   5.526  1.6417  0.3409 -0.1433
   8023SM  H16T10624   0.107   0.325   5.415 -1.1579  0.5946  0.7346
   8023SM  C17S10625   0.321   0.391   5.384  0.5015 -0.1522 -0.0581
   8023SM  H17S10626   0.390   0.305   5.371 -1.0611 -2.1680  3.4378
   8023SM  H17T10627   0.376   0.468   5.443  1.3510 -0.4653 -0.4200
   8023SM  C18S10628   0.285   0.455   5.248  0.0045 -0.4255 -0.4130
   8023SM  H18S10629   0.223   0.393   5.180 -1.2740  0.8661 -0.4603
   8023SM  H18T10630   0.377   0.482   5.191  1.1650  0.6630  1.8385
   8023SM  H18U10631   0.233   0.551   5.266  0.6271 -0.0756 -0.4240
   8023SM   C1F10632   0.686   0.312   6.434  0.0433  0.4200  0.3022
   8023SM    OF10633   0.804   0.285   6.452  0.7290  0.1823  0.1630
   8023SM   C2F10634   0.625   0.338   6.300  0.6011  0.2785  0.2611
   8023SM   H2F10635   0.608   0.448   6.290 -0.4945 -0.0225 -1.5349
   8023SM   H2G10636   0.528   0.286   6.287  1.4741 -1.0218 -1.4474
   8023SM   C3F10637   0.719   0.298   6.181  0.0428 -0.5146  0.3729
   8023SM   H3F10638   0.734   0.188   6.187 -0.2156 -0.7205 -1.8987
   8023SM   H3G10639   0.821   0.339   6.192 -0.4835  0.7954  0.5095
   8023SM   C4F10640   0.664   0.346   6.052  0.5113 -0.2949  0.9096
   8023SM   H4F10641   0.666   0.457   6.056  1.1534 -0.0715 -2.2771
   8023SM   H4G10642   0.556   0.321   6.044  0.5362  0.1301 -1.7032
   8023SM   C5F10643   0.740   0.307   5.925 -0.3465  0.1986 -0.4299
   8023SM   H5F10644   0.730   0.203   5.887 -0.6408  0.1089 -0.1114
   8023SM   H5G10645   0.848   0.320   5.947 -0.9651  1.7415  2.0467
   8023SM   C6F10646   0.699   0.404   5.807 -0.1510 -0.1747  0.5264
   8023SM   H6F10647   0.716   0.507   5.844 -0.3545 -0.0988  0.4096
   8023SM   H6G10648   0.593   0.410   5.776 -0.0844  0.1797  0.3657
   8023SM   C7F10649   0.763   0.383   5.676  0.0711 -0.5408 -0.2001
   8023SM   H7F10650   0.739   0.282   5.637  1.3518  0.3131 -3.6035
   8023SM   H7G10651   0.872   0.407   5.674 -0.0716  0.0917 -0.9568
   8023SM   C8F10652   0.699   0.476   5.575  0.2885  0.6206  0.2024
   8023SM   H8F10653   0.687   0.582   5.604 -1.0265  0.1168  1.6140
   8023SM   H8G10654   0.599   0.439   5.546  0.3843 -1.2687  2.0758
   8023SM   C9F10655   0.760   0.491   5.433  0.0670 -0.5508  0.1635
   8023SM   H9F10656   0.783   0.390   5.393  1.5014  0.3784 -1.5021
   8023SM   H9G10657   0.856   0.544   5.445  0.2214 -0.8026  0.0396
   8023SM  C10F10658   0.666   0.564   5.345 -0.5124 -0.1219 -0.0198
   8023SM  H10F10659   0.614   0.646   5.398 -0.7347  0.7470 -1.5122
   8023SM  H10G10660   0.588   0.496   5.304  0.5161 -1.3035 -0.0817
   8023SM  C11F10661   0.735   0.613   5.212 -0.4458  0.6080 -0.7971
   8023SM  H11F10662   0.759   0.524   5.151  0.5345 -0.1951  0.6913
   8023SM  H11G10663   0.830   0.669   5.226  2.1421 -3.5424 -0.1371
   8023SM  C12F10664   0.637   0.699   5.141 -0.3205 -0.3414 -0.8381
   8023SM  H12F10665   0.591   0.767   5.216  0.3551 -0.4718 -0.3031
   8023SM  H12G10666   0.560   0.631   5.098 -0.1996  0.0942 -1.7789
   8023SM  C13F10667   0.698   0.779   5.024  0.3301 -0.1896 -0.2714
   8023SM  H13F10668   0.762   0.709   4.965  1.7143  0.3034  0.6196
   8023SM  H13G10669   0.765   0.857   5.065  1.0523 -0.8466 -0.1838
   8023SM  C14F10670   0.591   0.844   4.934 -0.0060 -0.1900 -0.3598
   8023SM  H14F10671   0.522   0.898   5.001 -0.7984 -2.1496  0.4897
   8023SM  H14G10672   0.521   0.768   4.894  0.8771  0.7693 -4.1403
   8023SM  C15F10673   0.652   0.943   4.831  0.1866  0.1395  0.4636
   8023SM  H15F10674   0.580   0.960   4.748 -0.0290  1.0564  0.8349
   8023SM  H15G10675   0.737   0.892   4.780  0.8059  0.8332  0.7857
   8023SM  C16F10676   0.703   1.068   4.902 -0.6106 -0.3978  0.1380
   8023SM  H16F10677   0.778   1.043   4.980  0.3351  0.6937 -0.4007
   8023SM  H16G10678   0.623   1.134   4.943 -1.3342 -0.3202 -1.3104
   8023SM  C17F10679   0.772   1.154   4.792  0.2888 -0.0526 -0.2962
   8023SM  H17F10680   0.687   1.165   4.722  0.3559  0.2580 -0.3286
   8023SM  H17G10681   0.846   1.088   4.741  1.6829  2.6844 -2.0308
   8023SM  C18F10682   0.844   1.278   4.834 -0.1267 -0.1604  0.5696
   8023SM  H18F10683   0.782   1.340   4.902  0.1678  1.2123 -0.3644
   8023SM  H18G10684   0.842   1.352   4.751 -1.3193 -0.1522  0.5932
   8023SM  C19F10685   0.979   1.256   4.899 -0.2823 -0.7900  0.1307
   8023SM  H19F10686   1.054   1.210   4.831 -1.5319 -1.0433 -1.1172
   8023SM  H19G10687   0.963   1.187   4.984  0.0393 -0.9185  0.0867
   8023SM  C20F10688   1.054   1.384   4.941  1.4718  0.1311 -0.0108
   8023SM  H20F10689   1.064   1.441   4.847  1.2220 -1.5194 -1.0710
   8023SM  H20G10690   1.161   1.363   4.966  1.5719  0.9557  0.2752
   8023SM  C21F10691   0.980   1.445   5.059  0.1112 -0.4741 -0.3856
   8023SM  H21F10692   0.960   1.371   5.140 -3.5995 -0.8731 -1.4733
   8023SM  H21G10693   0.877   1.472   5.025  0.5413  1.0383 -0.5557
   8023SM  C22F10694   1.051   1.578   5.109  0.4270  0.2010 -0.0757
   8023SM  H22F10695   0.988   1.619   5.191  2.5369  0.8100  1.3508
   8023SM  H22G10696   1.064   1.652   5.027 -0.1442  0.2241 -0.1457
   8023SM  C23F10697   1.194   1.564   5.160  0.1216 -0.0780  0.6757
   8023SM  H23F10698   1.210   1.473   5.222 -0.1462  0.5300  1.6642
   8023SM  H23G10699   1.229   1.652   5.219  0.1214  0.1188  0.3854
   8023SM  H23H10700   1.257   1.545   5.070 -2.0103 -2.4778 -0.4202
   8123SM     N10701   3.664   4.273   2.565 -0.1195  0.2319 -0.4918
   8123SM   C1510702   3.764   4.166   2.606 -0.1378 -0.7198  0.1851
   8123SM  H15A10703   3.727   4.065   2.597  0.3500 -0.8329 -0.6482
   8123SM  H15B10704   3.785   4.165   2.712  1.2370  1.2486 -0.0159
   8123SM  H15C10705   3.856   4.174   2.550 -0.5028 -2.5933 -0.7696
   8123SM   C1410706   3.640   4.255   2.417  0.2387  0.9451  0.3496
   8123SM  H14A10707   3.717   4.302   2.358 -0.7647  2.2720  0.0506
   8123SM  H14B10708   3.545   4.301   2.395  0.4315  2.1452  1.8351
   8123SM  H14C10709   3.634   4.151   2.388 -1.6309  1.3104 -0.7113
   8123SM   C1310710   3.532   4.233   2.630  0.3757  0.2583  0.8528
   8123SM  H13A10711   3.461   4.308   2.600 -0.9405 -0.2878  2.4550
   8123SM  H13B10712   3.547   4.237   2.737 -1.0779  0.0398  1.0803
   8123SM  H13C10713   3.491   4.144   2.584  0.9331 -0.4288  1.6479
   8123SM   C1210714   3.711   4.412   2.599  0.4063  0.5302 -0.1180
   8123SM  H12A10715   3.623   4.473   2.586 -0.4356  0.3164  3.5505
   8123SM  H12B10716   3.793   4.437   2.533  2.8717 -2.3537  1.5639
   8123SM   C1110717   3.760   4.435   2.744  0.5975  0.3388  0.0225
   8123SM  H11A10718   3.762   4.543   2.767  0.2087 -0.0189  1.8669
   8123SM  H11B10719   3.869   4.413   2.750  0.8535  1.4564 -0.3607
   8123SM     P10720   3.759   4.300   2.967 -0.1083  0.0450 -0.3507
   8123SM   O1310721   3.649   4.291   3.063 -0.7318  0.1178  0.0833
   8123SM   O1410722   3.825   4.172   2.932  0.3738 -0.3948  0.2668
   8123SM   O1110723   3.867   4.397   3.027 -0.3800  0.4461  0.0384
   8123SM   O1210724   3.685   4.369   2.847 -0.1900  0.2747  0.3702
   8123SM   C1S10725   3.823   4.534   3.051 -0.0816  0.5352 -0.0103
   8123SM   H1S10726   3.717   4.541   3.085 -0.3784 -3.1504  0.1705
   8123SM   H1T10727   3.829   4.595   2.958  0.9647  0.6785  0.1460
   8123SM    NF10728   3.847   4.741   3.193  0.4841  0.2512 -0.5097
   8123SM   HNF10729   3.901   4.817   3.158  0.7807 -0.2095 -1.0630
   8123SM   C2S10730   3.903   4.612   3.167  0.3351  0.3231 -0.5617
   8123SM   H2S10731   3.873   4.556   3.259 -0.7846  0.1726 -1.0036
   8123SM   C3S10732   4.052   4.610   3.130 -0.6355 -1.0069 -0.0585
   8123SM   H3S10733   4.063   4.688   3.052 -0.4460  1.0994  1.9543
   8123SM    O310734   4.104   4.496   3.071  0.7083 -0.0004 -0.2542
   8123SM   HO310735   4.033   4.440   3.040  0.3180  0.4950 -0.2713
   8123SM   C4S10736   4.130   4.663   3.246  0.1496 -0.1220 -0.1203
   8123SM   H4S10737   4.147   4.771   3.257  0.7823 -0.2200 -0.0524
   8123SM   C5S10738   4.195   4.590   3.340  0.2335  0.6908 -0.2390
   8123SM   H5S10739   4.201   4.481   3.333  0.6834  0.4310  2.9445
   8123SM   C6S10740   4.280   4.644   3.449 -0.4066  0.4543  0.6231
   8123SM   H6S10741   4.371   4.685   3.399 -0.3409  0.0829  0.4340
   8123SM   H6T10742   4.314   4.563   3.517  2.5245  0.6853 -0.4279
   8123SM   C7S10743   4.234   4.767   3.534  0.1825 -0.1017 -0.2090
   8123SM   H7S10744   4.211   4.850   3.464 -1.2966  1.3337  1.8729
   8123SM   H7T10745   4.320   4.811   3.589 -0.6751  2.4928 -0.7927
   8123SM   C8S10746   4.119   4.745   3.625  0.3684  0.1128  0.0073
   8123SM   H8S10747   4.032   4.699   3.573  0.4087 -1.4854  1.2698
   8123SM   H8T10748   4.091   4.843   3.668 -2.3713 -1.4144  2.0402
   8123SM   C9S10749   4.163   4.652   3.738  0.3614  0.7570  0.0188
   8123SM   H9S10750   4.248   4.702   3.789  1.8054  0.5718 -2.0623
   8123SM   H9T10751   4.203   4.559   3.691  2.0942 -0.0394  2.8271
   8123SM  C10S10752   4.047   4.600   3.822 -0.5535 -0.1214 -0.6985
   8123SM  H10S10753   4.059   4.493   3.848 -3.4620 -0.5968 -0.9222
   8123SM  H10T10754   3.955   4.604   3.760  0.2052 -0.2629 -1.8518
   8123SM  C11S10755   4.026   4.687   3.950  0.1941  0.8747  0.3606
   8123SM  H11S10756   4.008   4.795   3.930  0.3383  0.6902 -0.8320
   8123SM  H11T10757   4.120   4.696   4.008  0.8960 -0.2791 -0.5515
   8123SM  C12S10758   3.919   4.629   4.037 -0.0474  0.2065 -0.0794
   8123SM  H12S10759   3.919   4.518   4.033  2.6464  0.0495  1.8166
   8123SM  H12T10760   3.820   4.660   3.996 -1.1177  0.4509  2.4911
   8123SM  C13S10761   3.945   4.661   4.188  0.7373 -0.5717  0.5146
   8123SM  H13S10762   3.954   4.768   4.217  0.4124 -0.8609  1.7723
   8123SM  H13T10763   4.039   4.605   4.210  1.6399 -0.0633 -1.8228
   8123SM  C14S10764   3.839   4.583   4.274 -0.0320 -0.3470  0.0967
   8123SM  H14S10765   3.836   4.481   4.230  0.8471 -0.4390  0.2272
   8123SM  H14T10766   3.738   4.630   4.269  0.3958  0.6475  0.4868
   8123SM  C15S10767   3.891   4.577   4.414  0.2056 -0.1696 -0.5879
   8123SM  H15S10768   3.866   4.678   4.452 -0.9495 -0.9341  0.8062
   8123SM  H15T10769   4.001   4.560   4.419 -0.0956 -2.2006 -0.1548
   8123SM  C16S10770   3.820   4.470   4.491  0.0505 -0.7156 -0.1450
   8123SM  H16S10771   3.802   4.386   4.420 -1.4303 -0.6270  0.0877
   8123SM  H16T10772   3.725   4.519   4.522 -1.2792 -2.1861 -1.6778
   8123SM  C17S10773   3.900   4.417   4.610 -0.6037  0.2368 -0.8647
   8123SM  H17S10774   3.945   4.500   4.669  1.0975 -1.0707 -0.2615
   8123SM  H17T10775   3.994   4.370   4.575 -0.8163 -2.3691  1.6766
   8123SM  C18S10776   3.825   4.321   4.700 -0.3679 -0.1770  0.5575
   8123SM  H18S10777   3.881   4.227   4.715  1.2584  0.5556 -0.6214
   8123SM  H18T10778   3.725   4.298   4.658 -0.7569  2.1108  0.0624
   8123SM  H18U10779   3.812   4.371   4.799  1.6285 -0.7656  1.1735
   8123SM   C1F10780   3.730   4.775   3.240  0.4058  0.5259  0.1999
   8123SM    OF10781   3.647   4.696   3.271  0.1511  0.6634  0.3814
   8123SM   C2F10782   3.711   4.916   3.249 -0.1426 -0.4687 -0.8733
   8123SM   H2F10783   3.630   4.947   3.180  0.4930 -0.7882 -1.7898
   8123SM   H2G10784   3.803   4.973   3.223  1.4646  0.2615  4.8979
   8123SM   C3F10785   3.693   4.952   3.404 -0.0269  0.1531  0.3977
   8123SM   H3F10786   3.611   4.896   3.453  0.6685 -2.1909 -0.9747
   8123SM   H3G10787   3.655   5.057   3.407 -2.6262 -0.6109 -1.6507
   8123SM   C4F10788   3.820   4.942   3.490 -0.4196 -1.0336  0.0510
   8123SM   H4F10789   3.888   5.008   3.432 -1.0829 -0.9984 -0.7125
   8123SM   H4G10790   3.852   4.836   3.494  0.9244 -0.6210  0.8207
   8123SM   C5F10791   3.796   4.999   3.634 -0.1323  0.0557  0.6069
   8123SM   H5F10792   3.761   5.103   3.614  0.0156  0.0529  0.3134
   8123SM   H5G10793   3.883   4.997   3.704  0.4001 -1.5797 -0.0454
   8123SM   C6F10794   3.691   4.906   3.709  0.0199 -0.8398 -0.0137
   8123SM   H6F10795   3.690   4.805   3.661  0.0165 -0.7743 -0.1516
   8123SM   H6G10796   3.585   4.938   3.696  0.1615  0.0022  0.8308
   8123SM   C7F10797   3.717   4.893   3.863 -0.3971  0.1263  0.4629
   8123SM   H7F10798   3.826   4.898   3.881 -0.4015  0.1928  0.4704
   8123SM   H7G10799   3.674   4.792   3.881  0.7697 -0.2190  1.4120
   8123SM   C8F10800   3.636   5.004   3.939 -0.2919  0.0637 -0.4368
   8123SM   H8F10801   3.528   4.986   3.917 -0.1539  0.4099 -1.4452
   8123SM   H8G10802   3.674   5.102   3.904  0.5250 -0.7310 -1.8673
   8123SM   C9F10803   3.644   4.984   4.096 -0.1435  0.2620 -0.2589
   8123SM   H9F10804   3.647   4.875   4.120  1.9372  0.2934 -0.1788
   8123SM   H9G10805   3.547   5.024   4.133  1.0951  1.9197  1.3714
   8123SM  C10F10806   3.767   5.049   4.162 -0.2823  0.6862 -0.3178
   8123SM  H10F10807   3.771   5.151   4.120 -1.1649  0.2037 -1.6475
   8123SM  H10G10808   3.858   4.996   4.126 -0.2956  0.9863 -0.7968
   8123SM  C11F10809   3.752   5.052   4.313  0.0502 -0.1389  0.1363
   8123SM  H11F10810   3.729   4.954   4.358  2.0946 -0.2076  1.1338
   8123SM  H11G10811   3.674   5.128   4.335  1.0239  1.6162 -1.9976
   8123SM  C12F10812   3.886   5.095   4.376 -0.6556 -0.1694 -0.2041
   8123SM  H12F10813   3.918   5.182   4.316 -1.9280 -1.3186 -2.6828
   8123SM  H12G10814   3.966   5.019   4.364  2.0447  2.4704  0.1627
   8123SM  C13F10815   3.872   5.121   4.524  0.5084 -0.0521 -0.1382
   8123SM  H13F10816   3.971   5.146   4.567  0.5070 -1.5578  0.8115
   8123SM  H13G10817   3.832   5.028   4.570  0.5071  0.1970  0.3666
   8123SM  C14F10818   3.774   5.241   4.544 -0.0291  0.6412 -0.6452
   8123SM  H14F10819   3.667   5.216   4.522 -0.0687 -1.7011  1.6889
   8123SM  H14G10820   3.810   5.323   4.478 -0.4103  1.6547  0.3793
   8123SM  C15F10821   3.782   5.284   4.688  0.2802  0.1212 -0.5100
   8123SM  H15F10822   3.718   5.375   4.689 -1.8898 -1.3240 -1.1880
   8123SM  H15G10823   3.887   5.314   4.711 -0.0687  0.9416  0.0788
   8123SM  C16F10824   3.749   5.186   4.794  0.2224 -0.6588 -0.3505
   8123SM  H16F10825   3.819   5.100   4.793  2.0490  0.7525 -1.8972
   8123SM  H16G10826   3.646   5.146   4.781 -0.2594  0.1287  0.8003
   8123SM  C17F10827   3.754   5.250   4.934  0.4718 -0.5831 -0.1120
   8123SM  H17F10828   3.663   5.311   4.949 -1.5774 -3.3438 -0.4134
   8123SM  H17G10829   3.854   5.297   4.949  0.8650 -0.9659 -1.4091
   8123SM  C18F10830   3.735   5.147   5.044 -0.7981  0.2253 -0.4466
   8123SM  H18F10831   3.818   5.074   5.035 -2.2607 -1.3934 -1.4716
   8123SM  H18G10832   3.637   5.094   5.044 -1.1482  0.8268  1.0607
   8123SM  C19F10833   3.743   5.235   5.179  0.1474  0.3856 -0.1581
   8123SM  H19F10834   3.669   5.318   5.168 -3.0355 -1.6579  3.3714
   8123SM  H19G10835   3.844   5.278   5.199  1.7491 -2.4602 -1.5827
   8123SM  C20F10836   3.713   5.171   5.314 -0.1083  0.6340 -0.3087
   8123SM  H20F10837   3.615   5.121   5.331 -0.0516  0.9811  1.2111
   8123SM  H20G10838   3.699   5.253   5.388 -0.9276 -1.1922  1.6619
   8123SM  C21F10839   3.833   5.087   5.368  0.1602 -0.6008  0.0809
   8123SM  H21F10840   3.924   5.150   5.381  0.3732 -0.4643 -1.7977
   8123SM  H21G10841   3.855   5.012   5.289 -1.2707 -0.2550 -0.6803
   8123SM  C22F10842   3.812   5.028   5.507  0.1874  0.1993 -0.2448
   8123SM  H22F10843   3.725   4.960   5.493  0.3804 -0.0043 -0.4768
   8123SM  H22G10844   3.791   5.110   5.579  2.4299 -0.0298  0.7458
   8123SM  C23F10845   3.930   4.950   5.561  0.0791 -0.5499 -0.1900
   8123SM  H23F10846   3.896   4.891   5.649  0.0642 -0.5376 -0.1871
   8123SM  H23G10847   4.015   5.019   5.580  0.1049 -0.8175  0.7315
   8123SM  H23H10848   3.962   4.879   5.482  0.8966 -1.7152  1.1324
   8223SM     N10849   5.012   4.133   2.538 -0.4212 -0.4888  0.3618
   8223SM   C1510850   4.874   4.150   2.488 -0.0056 -0.1424  0.1747
   8223SM  H15A10851   4.812   4.063   2.502  0.2868  0.0133  2.9076
   8223SM  H15B10852   4.871   4.169   2.382  0.8671  0.3281  0.2287
   8223SM  H15C10853   4.811   4.228   2.530 -1.7087 -1.0200 -0.6255
   8223SM   C1410854   5.071   4.015   2.467 -0.9795  0.7008 -0.2274
   8223SM  H14A10855   5.169   3.999   2.510 -0.6300 -0.2428 -1.3339
   8223SM  H14B10856   5.093   4.035   2.363 -0.2498 -2.3921 -0.7635
   8223SM  H14C10857   5.016   3.924   2.478  2.3869 -1.4970 -0.0608
   8223SM   C1310858   5.091   4.258   2.497 -0.3056  0.1151 -0.0648
   8223SM  H13A10859   5.195   4.245   2.525 -0.5857 -1.1418  0.5129
   8223SM  H13B10860   5.047   4.349   2.534 -1.3848  0.4453 -2.0319
   8223SM  H13C10861   5.105   4.264   2.391 -0.9190  2.1492 -0.0584
   8223SM   C1210862   5.015   4.104   2.692  0.1692  0.7781  0.2109
   8223SM  H12A10863   5.116   4.075   2.717 -0.0326 -1.3075 -1.1975
   8223SM  H12B10864   4.950   4.020   2.710 -1.2799  1.0010 -3.1805
   8223SM   C1110865   4.961   4.225   2.780  0.3984 -0.4697  0.2251
   8223SM  H11A10866   4.928   4.198   2.883 -1.5247  0.1177 -0.1913
   8223SM  H11B10867   4.866   4.261   2.736  0.4922 -0.2561  0.1951
   8223SM     P10868   5.179   4.332   2.866 -0.3262 -0.0214  0.3439
   8223SM   O1310869   5.237   4.193   2.859  0.9029 -0.9251  0.2713
   8223SM   O1410870   5.264   4.445   2.828  0.7533 -1.0430 -0.0855
   8223SM   O1110871   5.119   4.366   3.013 -0.3153  0.4080  0.4556
   8223SM   O1210872   5.042   4.341   2.789 -0.0987  0.3237  0.4302
   8223SM   C1S10873   5.076   4.498   3.047 -0.2390  0.3332 -0.3038
   8223SM   H1S10874   4.967   4.515   3.037 -0.3924 -0.6066 -0.3999
   8223SM   H1T10875   5.132   4.575   2.990  1.2439  1.3778  2.3693
   8223SM    NF10876   5.043   4.635   3.251 -0.6722  0.5381 -0.1781
   8223SM   HNF10877   5.084   4.725   3.261  2.4055 -0.6779 -0.6478
   8223SM   C2S10878   5.122   4.527   3.194 -0.2381 -0.1315 -0.2138
   8223SM   H2S10879   5.103   4.438   3.258 -0.6418 -0.6576 -1.0457
   8223SM   C3S10880   5.271   4.551   3.200 -0.0797  0.0519 -0.4665
   8223SM   H3S10881   5.294   4.642   3.141  1.5465  1.6512  2.3843
   8223SM    O310882   5.359   4.454   3.146 -0.4119  0.3293 -0.4418
   8223SM   HO310883   5.315   4.405   3.076  1.9594  0.2666 -1.9952
   8223SM   C4S10884   5.300   4.578   3.349 -0.5361 -0.0406 -0.0901
   8223SM   H4S10885   5.281   4.683   3.376 -0.7106 -0.2237  0.5106
   8223SM   C5S10886   5.350   4.499   3.446 -0.0023 -0.3967  0.2485
   8223SM   H5S10887   5.378   4.397   3.417 -0.4638 -0.5422  0.3007
   8223SM   C6S10888   5.372   4.537   3.593  0.4092 -0.0746  0.1544
   8223SM   H6S10889   5.482   4.546   3.606  0.2433  1.7430  0.5524
   8223SM   H6T10890   5.341   4.459   3.665  0.8503  0.6091  1.0969
   8223SM   C7S10891   5.326   4.680   3.626  0.3434 -0.3717 -0.5723
   8223SM   H7S10892   5.217   4.700   3.622  0.4435  1.1203  1.9943
   8223SM   H7T10893   5.375   4.757   3.562  0.9509  1.3186  1.8035
   8223SM   C8S10894   5.347   4.709   3.770 -0.0809 -0.1800  0.6921
   8223SM   H8S10895   5.371   4.817   3.776 -0.0086 -0.2718  3.3838
   8223SM   H8T10896   5.439   4.661   3.808  1.4683  0.0213 -2.4913
   8223SM   C9S10897   5.241   4.672   3.876 -0.6417 -0.7200 -0.5544
   8223SM   H9S10898   5.249   4.565   3.903 -0.0838 -0.6404 -0.3912
   8223SM   H9T10899   5.136   4.692   3.846 -0.6143  3.3029  1.2535
   8223SM  C10S10900   5.273   4.763   4.000  0.1171  0.0353  0.3455
   8223SM  H10S10901   5.269   4.871   3.976  0.9282  0.3713  1.5819
   8223SM  H10T10902   5.373   4.744   4.046  0.0787 -0.1089  0.3695
   8223SM  C11S10903   5.166   4.754   4.112  0.1234  0.1402  0.6196
   8223SM  H11S10904   5.166   4.651   4.151  1.5746  0.1263  0.6301
   8223SM  H11T10905   5.070   4.799   4.077  1.1989  2.7235  0.7321
   8223SM  C12S10906   5.209   4.836   4.231  0.4406  0.7835 -0.5018
   8223SM  H12S10907   5.195   4.944   4.209 -2.0797  0.4455 -0.8140
   8223SM  H12T10908   5.315   4.813   4.254  0.8819  2.2754 -0.9207
   8223SM  C13S10909   5.126   4.799   4.352  0.1670  0.0128  0.7795
   8223SM  H13S10910   5.161   4.698   4.384 -2.0182 -0.4480  1.9450
   8223SM  H13T10911   5.020   4.791   4.318  0.3196  0.2278  0.2322
   8223SM  C14S10912   5.143   4.897   4.473 -0.7011 -0.4083  0.1661
   8223SM  H14S10913   5.092   4.994   4.456  1.8346  1.2788  1.4778
   8223SM  H14T10914   5.249   4.932   4.479 -0.4439 -0.9121 -1.0582
   8223SM  C15S10915   5.084   4.835   4.598 -0.3916 -0.0288 -0.4522
   8223SM  H15S10916   5.153   4.757   4.639 -1.0028 -0.1589  0.3752
   8223SM  H15T10917   4.992   4.778   4.571 -1.5717 -0.1320  3.2309
   8223SM  C16S10918   5.056   4.934   4.705 -1.0073  0.1371  0.4623
   8223SM  H16S10919   5.016   5.030   4.667  1.8414  1.0171 -0.6332
   8223SM  H16T10920   5.155   4.956   4.751 -1.2347  0.0357  0.9974
   8223SM  C17S10921   4.976   4.878   4.823 -0.0210  0.3431 -0.2655
   8223SM  H17S10922   5.008   4.776   4.851 -0.7282  0.1055 -0.2974
   8223SM  H17T10923   4.866   4.864   4.809 -0.0450 -2.7010  1.9391
   8223SM  C18S10924   4.986   4.957   4.959 -0.2597 -0.0481 -0.1097
   8223SM  H18S10925   4.910   4.922   5.032  0.9037 -1.4517  0.4774
   8223SM  H18T10926   4.988   5.067   4.940 -0.4202  0.8777  4.2754
   8223SM  H18U10927   5.080   4.932   5.011 -0.5523  0.3618  0.6384
   8223SM   C1F10928   4.918   4.620   3.294 -0.9807  0.0919 -0.2489
   8223SM    OF10929   4.869   4.503   3.295 -0.0368 -0.7669  0.3938
   8223SM   C2F10930   4.854   4.747   3.340  0.3351 -0.8961 -0.7658
   8223SM   H2F10931   4.792   4.785   3.255  1.3607 -0.4787 -1.3482
   8223SM   H2G10932   4.935   4.820   3.361  0.3546 -1.5617  1.7811
   8223SM   C3F10933   4.767   4.723   3.459  0.4009  0.6000 -0.1582
   8223SM   H3F10934   4.694   4.646   3.429 -0.3293  1.7147 -1.3355
   8223SM   H3G10935   4.699   4.805   3.489 -0.6292 -1.0410  2.3013
   8223SM   C4F10936   4.844   4.681   3.585  0.3086 -0.6671  0.8904
   8223SM   H4F10937   4.915   4.758   3.621 -1.0598  0.4281  1.3235
   8223SM   H4G10938   4.919   4.601   3.567 -0.4346 -0.7611 -2.3519
   8223SM   C5F10939   4.749   4.653   3.703 -0.3984  0.1381  0.3675
   8223SM   H5F10940   4.702   4.555   3.683  0.1486  0.2649 -1.7787
   8223SM   H5G10941   4.666   4.727   3.711 -1.1687 -0.6722  0.0591
   8223SM   C6F10942   4.827   4.630   3.838  0.2257  0.2594 -0.0186
   8223SM   H6F10943   4.889   4.719   3.866 -0.4185  0.2292  1.6368
   8223SM   H6G10944   4.892   4.540   3.837 -0.7226 -0.4353 -0.4235
   8223SM   C7F10945   4.726   4.601   3.958 -0.5145 -0.1061 -0.6657
   8223SM   H7F10946   4.684   4.499   3.945  0.7841 -0.4580 -2.4389
   8223SM   H7G10947   4.644   4.674   3.945 -2.4464 -2.0212  0.0635
   8223SM   C8F10948   4.795   4.602   4.090  0.0296  0.4214 -0.6320
   8223SM   H8F10949   4.823   4.709   4.101  0.5660  0.1191  1.1965
   8223SM   H8G10950   4.888   4.543   4.082  0.4357  0.8471  0.7489
   8223SM   C9F10951   4.701   4.546   4.201 -0.4056  0.6734 -0.9335
   8223SM   H9F10952   4.703   4.436   4.193 -0.4992  0.6038 -0.0577
   8223SM   H9G10953   4.594   4.569   4.181 -0.8701 -1.3464 -0.9400
   8223SM  C10F10954   4.739   4.594   4.340 -0.3317 -0.6617 -0.5543
   8223SM  H10F10955   4.720   4.703   4.354  0.6668 -0.2942 -1.8809
   8223SM  H10G10956   4.849   4.588   4.354 -0.4982 -0.4794  1.0794
   8223SM  C11F10957   4.671   4.519   4.453  0.2251 -0.0093 -0.3219
   8223SM  H11F10958   4.708   4.414   4.459 -0.4984 -0.2369  0.3912
   8223SM  H11G10959   4.565   4.496   4.428  0.8272 -1.3096 -1.8006
   8223SM  C12F10960   4.677   4.596   4.587 -0.6251 -0.4413  0.4031
   8223SM  H12F10961   4.618   4.686   4.561 -1.8713 -1.6496 -1.1269
   8223SM  H12G10962   4.778   4.631   4.617 -0.0770 -0.4175 -1.3498
   8223SM  C13F10963   4.604   4.522   4.693 -0.3938  0.1559  0.4526
   8223SM  H13F10964   4.642   4.418   4.705 -2.0425 -0.4376  0.7436
   8223SM  H13G10965   4.500   4.514   4.657 -0.2153 -1.8079  0.2580
   8223SM  C14F10966   4.611   4.578   4.841 -0.2637 -0.0820  0.8619
   8223SM  H14F10967   4.565   4.679   4.831  1.5514  0.6641 -0.5451
   8223SM  H14G10968   4.717   4.600   4.868 -0.3175 -1.2126  2.1034
   8223SM  C15F10969   4.546   4.489   4.948  0.3664 -0.1994 -0.4045
   8223SM  H15F10970   4.578   4.384   4.929  1.0228 -0.6378  2.5929
   8223SM  H15G10971   4.438   4.492   4.922  0.3459  0.1895 -0.2741
   8223SM  C16F10972   4.564   4.539   5.095  0.3049  0.3260 -0.0084
   8223SM  H16F10973   4.525   4.469   5.172 -1.0969  1.0929  0.0181
   8223SM  H16G10974   4.501   4.630   5.107  1.1647  0.9442 -0.1381
   8223SM  C17F10975   4.706   4.577   5.130 -0.2577 -0.2389  0.1910
   8223SM  H17F10976   4.726   4.669   5.071 -1.3693  0.2033  0.4743
   8223SM  H17G10977   4.773   4.491   5.107 -1.5947 -1.0990 -0.6222
   8223SM  C18F10978   4.731   4.615   5.284  0.5768  0.8270  0.2048
   8223SM  H18F10979   4.842   4.615   5.298  0.6140 -0.6110  0.0895
   8223SM  H18G10980   4.694   4.538   5.355  0.4963 -1.5134 -2.1689
   8223SM  C19F10981   4.697   4.758   5.313  0.3654  0.7949  0.3266
   8223SM  H19F10982   4.589   4.770   5.289 -0.3696 -1.2378  2.3112
   8223SM  H19G10983   4.758   4.823   5.247 -1.0675  0.0317 -1.8952
   8223SM  C20F10984   4.706   4.793   5.459 -0.4613 -0.6075 -0.0858
   8223SM  H20F10985   4.811   4.777   5.492 -0.5851 -0.4573  0.3925
   8223SM  H20G10986   4.634   4.730   5.514 -0.2651  0.9352  2.0923
   8223SM  C21F10987   4.668   4.945   5.480 -0.0341 -0.4015 -0.4505
   8223SM  H21F10988   4.558   4.956   5.468 -0.0285  0.2873  0.0843
   8223SM  H21G10989   4.723   4.999   5.401  1.5421 -1.2156  0.0496
   8223SM  C22F10990   4.713   4.987   5.627  0.2136  0.3569  0.0929
   8223SM  H22F10991   4.693   5.094   5.645  0.5688  0.2438  1.2115
   8223SM  H22G10992   4.823   4.969   5.628  0.1910  0.2183  0.0892
   8223SM  C23F10993   4.644   4.906   5.745 -0.8155 -0.5934 -0.1460
   8223SM  H23F10994   4.675   4.800   5.759  1.9244  0.5108  4.0692
   8223SM  H23G10995   4.536   4.929   5.738 -0.9731 -1.0791  0.5270
   8223SM  H23H10996   4.671   4.951   5.843 -2.1419  0.6145 -0.3013
   8323SM     N10997   4.550   4.024   2.951  0.5696 -0.0200  0.4333
   8323SM   C1510998   4.632   4.056   2.830  0.3173 -0.4329  0.1958
   8323SM  H15A10999   4.734   4.024   2.847  0.0782 -1.5404 -0.3569
   8323SM  H15B11000   4.626   4.161   2.806 -0.6687  0.0446  2.2443
   8323SM  H15C11001   4.594   3.992   2.752 -2.4822 -0.1267  1.1958
   8323SM   C1411002   4.562   4.126   3.061 -0.1307  0.1590  0.5876
   8323SM  H14A11003   4.666   4.128   3.089 -0.1105 -1.9236  0.8148
   8323SM  H14B11004   4.501   4.108   3.148 -0.6866  2.9660  0.8657
   8323SM  H14C11005   4.542   4.223   3.018  0.2632 -0.8153 -1.9501
   8323SM   C1311006   4.404   4.022   2.912  0.2573  0.0839 -0.5160
   8323SM  H13A11007   4.387   3.949   2.835 -0.6014  1.5585 -1.7708
   8323SM  H13B11008   4.383   4.120   2.874  5.2035  2.3016  1.5826
   8323SM  H13C11009   4.344   3.987   2.995  0.7156 -0.7579 -0.5252
   8323SM   C1211010   4.582   3.886   3.007  0.2866 -0.7549  0.3763
   8323SM  H12A11011   4.581   3.818   2.924  1.1940 -1.4104  0.8755
   8323SM  H12B11012   4.511   3.856   3.082  1.1367 -0.0308  1.5197
   8323SM   C1111013   4.715   3.863   3.073 -0.3893 -0.0706 -0.1986
   8323SM  H11A11014   4.722   3.757   3.106 -1.0250  0.4526  1.7661
   8323SM  H11B11015   4.702   3.912   3.172 -0.7136 -0.1299 -0.2092
   8323SM     P11016   4.915   3.817   2.918 -0.2168  0.1800  0.7496
   8323SM   O1311017   4.829   3.770   2.801  0.1228  0.7405 -0.3868
   8323SM   O1411018   5.044   3.886   2.873 -0.1619 -0.0287 -0.1372
   8323SM   O1111019   4.948   3.699   3.024 -0.2684 -0.4561 -0.1985
   8323SM   O1211020   4.833   3.915   3.008  0.0479 -0.1025  0.7370
   8323SM   C1S11021   5.056   3.711   3.121 -0.6496 -0.0083 -0.0940
   8323SM   H1S11022   5.119   3.792   3.079 -0.6038 -0.2536 -0.5136
   8323SM   H1T11023   5.118   3.619   3.122  0.0850  0.4463 -1.3542
   8323SM    NF11024   5.104   3.814   3.350  0.0554 -1.0520  0.3224
   8323SM   HNF11025   5.119   3.784   3.444  0.3540  1.7105  1.2318
   8323SM   C2S11026   5.010   3.739   3.266  0.7685 -0.3115 -0.2677
   8323SM   H2S11027   4.919   3.803   3.255  0.1303 -1.1191  0.1438
   8323SM   C3S11028   4.949   3.608   3.325 -0.2933 -0.0683 -0.1805
   8323SM   H3S11029   5.026   3.535   3.360 -0.2461 -0.0980 -0.3486
   8323SM    O311030   4.875   3.540   3.222  0.2134  0.0440 -0.3416
   8323SM   HO311031   4.910   3.573   3.139 -1.4509  0.6839 -0.8213
   8323SM   C4S11032   4.871   3.646   3.452 -0.8369  0.2524 -0.3068
   8323SM   H4S11033   4.940   3.667   3.535  0.0555 -0.9196 -0.7158
   8323SM   C5S11034   4.740   3.642   3.485 -0.4630  0.0885  0.1989
   8323SM   H5S11035   4.669   3.605   3.409  0.9837 -1.2276 -0.5717
   8323SM   C6S11036   4.672   3.664   3.616  0.2704 -0.0646 -0.1958
   8323SM   H6S11037   4.614   3.577   3.655  0.9124 -0.9035 -1.0468
   8323SM   H6T11038   4.594   3.742   3.609  1.4074  1.6149  3.3753
   8323SM   C7S11039   4.761   3.721   3.726 -0.5260 -0.3767  0.2852
   8323SM   H7S11040   4.768   3.828   3.698 -2.8059 -0.5993 -1.4599
   8323SM   H7T11041   4.862   3.675   3.721  0.7140  1.7055  3.3835
   8323SM   C8S11042   4.716   3.718   3.871  0.3498  0.0900  0.3810
   8323SM   H8S11043   4.705   3.612   3.903 -1.9915 -0.1294 -0.9266
   8323SM   H8T11044   4.614   3.760   3.878  0.4456  0.0527  3.1233
   8323SM   C9S11045   4.809   3.794   3.972 -0.2361 -0.2864  0.0254
   8323SM   H9S11046   4.814   3.896   3.929 -0.5662  0.4513  1.6653
   8323SM   H9T11047   4.912   3.754   3.970 -0.4274 -0.7746 -0.4339
   8323SM  C10S11048   4.748   3.782   4.110  0.5899 -0.1898 -0.6112
   8323SM  H10S11049   4.739   3.673   4.128 -0.6413 -0.2053 -1.2382
   8323SM  H10T11050   4.648   3.830   4.109  0.7743  0.1958 -0.9347
   8323SM  C11S11051   4.825   3.857   4.228 -0.0707 -0.3312 -0.0219
   8323SM  H11S11052   4.859   3.958   4.196 -0.3163 -0.0266  0.6453
   8323SM  H11T11053   4.918   3.800   4.250  0.3105 -0.0574 -0.8922
   8323SM  C12S11054   4.745   3.879   4.350 -0.5656  0.8178  0.4476
   8323SM  H12S11055   4.748   3.781   4.402 -1.6227  0.4440 -0.1623
   8323SM  H12T11056   4.639   3.904   4.326 -0.9666 -1.4533 -0.3553
   8323SM  C13S11057   4.808   3.977   4.443 -0.1483 -0.1945 -0.1827
   8323SM  H13S11058   4.829   4.073   4.390  0.8424 -0.0373  0.4823
   8323SM  H13T11059   4.910   3.939   4.464 -0.2433 -0.2861  0.1174
   8323SM  C14S11060   4.726   4.011   4.571 -0.2469 -0.8768 -0.8419
   8323SM  H14S11061   4.616   4.013   4.554 -0.5732  0.7387  1.0952
   8323SM  H14T11062   4.758   4.103   4.625  0.4265 -1.3596 -0.4063
   8323SM  C15S11063   4.748   3.905   4.682  0.2854  0.3179 -0.1470
   8323SM  H15S11064   4.720   3.812   4.627  1.4279  0.3472 -0.8180
   8323SM  H15T11065   4.677   3.916   4.767  1.6034  1.5105  0.8596
   8323SM  C16S11066   4.890   3.897   4.738  0.7454  0.1835 -0.2140
   8323SM  H16S11067   4.966   3.883   4.658  0.6698 -3.6739  0.2247
   8323SM  H16T11068   4.896   3.804   4.798 -1.3837  0.8532  1.1049
   8323SM  C17S11069   4.925   4.014   4.833 -0.0668  0.2433 -0.2892
   8323SM  H17S11070   4.838   4.039   4.896 -0.9826  0.8885 -1.7537
   8323SM  H17T11071   4.934   4.101   4.764 -1.0387  1.7409  1.3897
   8323SM  C18S11072   5.047   3.979   4.917  1.0795 -0.6478  1.1164
   8323SM  H18S11073   5.085   4.075   4.958 -1.1879  0.6913  0.2697
   8323SM  H18T11074   5.122   3.934   4.848 -0.4795 -0.0939 -1.0842
   8323SM  H18U11075   5.013   3.915   5.001 -0.9350 -0.9578  0.1267
   8323SM   C1F11076   5.137   3.938   3.311  0.1409  0.1908 -0.3944
   8323SM    OF11077   5.101   3.996   3.211  0.7025 -0.5233  0.4213
   8323SM   C2F11078   5.226   4.001   3.412 -0.1239 -0.7746 -0.0407
   8323SM   H2F11079   5.334   3.977   3.398  0.4903  1.9648 -0.6371
   8323SM   H2G11080   5.190   3.959   3.508 -1.0681 -2.0530 -0.9324
   8323SM   C3F11081   5.222   4.155   3.421  0.2480  0.5048  0.0164
   8323SM   H3F11082   5.244   4.190   3.318  3.4859 -0.4786  0.2755
   8323SM   H3G11083   5.315   4.182   3.475  0.6367 -1.0903  0.2118
   8323SM   C4F11084   5.094   4.210   3.487 -0.5800 -0.5800  0.2229
   8323SM   H4F11085   5.007   4.172   3.430 -0.5919  1.4963 -1.2199
   8323SM   H4G11086   5.109   4.320   3.485  0.3276 -0.6956 -0.0742
   8323SM   C5F11087   5.079   4.170   3.637 -0.0818 -0.3806 -0.0790
   8323SM   H5F11088   5.170   4.204   3.692 -0.0920  1.0786 -0.9188
   8323SM   H5G11089   5.062   4.061   3.651 -3.5108 -0.1736 -1.7026
   8323SM   C6F11090   4.968   4.250   3.698  0.3336  0.0370 -0.2387
   8323SM   H6F11091   4.877   4.231   3.638  0.6132  1.7406 -1.2605
   8323SM   H6G11092   4.982   4.358   3.677 -1.1843  0.2319 -0.3986
   8323SM   C7F11093   4.929   4.212   3.841  0.3324 -0.3874 -0.3430
   8323SM   H7F11094   4.922   4.102   3.850 -1.0552 -0.1787  1.8983
   8323SM   H7G11095   4.828   4.248   3.872 -1.0579 -4.5411  0.6365
   8323SM   C8F11096   5.026   4.268   3.946  0.0253  0.2198  1.1088
   8323SM   H8F11097   5.027   4.378   3.931 -1.8424  0.0763 -0.5350
   8323SM   H8G11098   5.129   4.229   3.934  0.4205  1.0078  1.7977
   8323SM   C9F11099   4.986   4.234   4.085  1.0482  0.0598 -0.2815
   8323SM   H9F11100   4.978   4.124   4.096  0.0583  0.1657  0.1902
   8323SM   H9G11101   4.884   4.278   4.087  0.6994 -0.6572 -1.2524
   8323SM  C10F11102   5.061   4.304   4.196 -0.6069 -0.1451 -0.8747
   8323SM  H10F11103   5.070   4.413   4.172 -1.3824  0.0147 -0.4586
   8323SM  H10G11104   5.165   4.267   4.205 -0.7748 -0.5722 -0.7000
   8323SM  C11F11105   5.000   4.301   4.327 -0.1831 -0.5517 -0.2609
   8323SM  H11F11106   4.981   4.199   4.366 -2.6682  0.6552  2.0830
   8323SM  H11G11107   4.902   4.354   4.328  0.3103  0.3769 -0.2752
   8323SM  C12F11108   5.085   4.371   4.434 -0.4441 -0.6195  0.1786
   8323SM  H12F11109   5.086   4.479   4.409 -2.2524 -0.4149  0.8114
   8323SM  H12G11110   5.193   4.347   4.439  0.0022  0.8317 -1.5104
   8323SM  C13F11111   5.016   4.372   4.571 -0.0850  0.8252  0.9643
   8323SM  H13F11112   5.013   4.262   4.590 -1.5551  0.1929 -2.2903
   8323SM  H13G11113   4.920   4.420   4.547 -0.1042  0.8694  1.1291
   8323SM  C14F11114   5.066   4.460   4.683 -0.4395 -0.3521 -0.1658
   8323SM  H14F11115   5.039   4.566   4.662 -3.2356 -0.0637  3.8170
   8323SM  H14G11116   5.175   4.444   4.696 -0.5225  0.0361  1.1350
   8323SM  C15F11117   5.006   4.414   4.817 -0.0114 -0.2840 -0.4594
   8323SM  H15F11118   5.013   4.303   4.819 -0.3905 -0.3029  0.9682
   8323SM  H15G11119   4.898   4.437   4.832 -0.0943 -0.9233 -0.0406
   8323SM  C16F11120   5.079   4.483   4.938  0.2378  0.1622 -0.6004
   8323SM  H16F11121   5.036   4.585   4.952 -1.9448 -0.7249 -0.4070
   8323SM  H16G11122   5.188   4.479   4.921  0.5722  0.9807  1.1206
   8323SM  C17F11123   5.054   4.406   5.075 -0.1537  0.6221 -0.2589
   8323SM  H17F11124   5.091   4.301   5.072 -2.0640 -0.0952 -0.0084
   8323SM  H17G11125   4.945   4.399   5.092 -0.0915 -0.6509 -0.3115
   8323SM  C18F11126   5.114   4.485   5.192  0.0078  0.5136 -0.1042
   8323SM  H18F11127   5.080   4.591   5.192 -1.1218  0.1695 -0.9789
   8323SM  H18G11128   5.224   4.486   5.178  0.0098  0.7503 -0.0749
   8323SM  C19F11129   5.078   4.438   5.334  0.1823  0.4921  0.0178
   8323SM  H19F11130   5.116   4.334   5.343  1.4073  0.5919 -2.9753
   8323SM  H19G11131   4.970   4.444   5.359  0.0821 -0.1755 -0.2146
   8323SM  C20F11132   5.167   4.520   5.434 -0.6685 -0.5733 -0.2332
   8323SM  H20F11133   5.268   4.515   5.389 -0.1215 -2.1038  1.0776
   8323SM  H20G11134   5.174   4.473   5.535 -0.5996 -1.2111 -0.5273
   8323SM  C21F11135   5.123   4.666   5.468 -0.0450 -0.1548 -0.6707
   8323SM  H21F11136   5.039   4.704   5.405 -0.5526 -1.1642 -0.6221
   8323SM  H21G11137   5.218   4.721   5.454  1.1150 -1.5630  1.2060
   8323SM  C22F11138   5.076   4.694   5.613 -0.0889  0.0143  0.2340
   8323SM  H22F11139   5.050   4.802   5.613 -0.8563 -0.0893  3.1935
   8323SM  H22G11140   5.166   4.682   5.677  0.6668  3.8091  0.1069
   8323SM  C23F11141   4.959   4.608   5.653  0.0477  0.0157 -0.7691
   8323SM  H23F11142   4.987   4.501   5.657  1.0187  0.2633 -0.5627
   8323SM  H23G11143   4.879   4.621   5.577 -1.4530  0.0181  0.7535
   8323SM  H23H11144   4.916   4.636   5.751  0.8711 -1.4680  0.0477
   8423SM     N11145   3.200   3.616   2.635 -0.4049 -0.0927 -0.0811
   8423SM   C1511146   3.242   3.713   2.521  0.5391 -0.0259 -0.3548
   8423SM  H15A11147   3.332   3.763   2.555  1.0689 -0.3663 -1.2099
   8423SM  H15B11148   3.167   3.784   2.489 -0.4973  0.0616  2.0708
   8423SM  H15C11149   3.259   3.660   2.429  0.0432  2.5175 -2.0336
   8423SM   C1411150   3.147   3.705   2.742  0.4328 -0.3834 -0.8421
   8423SM  H14A11151   3.055   3.758   2.722  1.2113  0.7780 -1.4425
   8423SM  H14B11152   3.220   3.781   2.766  0.1499 -0.5096  0.5525
   8423SM  H14C11153   3.137   3.648   2.834  3.0347  0.3146 -0.0423
   8423SM   C1311154   3.092   3.527   2.590  0.0411 -0.3695  0.9801
   8423SM  H13A11155   3.016   3.581   2.537  1.0893  0.0333 -0.1747
   8423SM  H13B11156   3.049   3.471   2.672 -0.6245 -1.3008  0.0303
   8423SM  H13C11157   3.134   3.456   2.519 -0.1937 -0.5934  1.0647
   8423SM   C1211158   3.318   3.541   2.685  0.2171  0.0400  0.1222
   8423SM  H12A11159   3.283   3.478   2.766  2.5661  0.5644  1.6612
   8423SM  H12B11160   3.394   3.611   2.716 -0.3576  1.2240 -1.0604
   8423SM   C1111161   3.388   3.443   2.590 -0.1204 -1.2916  0.6373
   8423SM  H11A11162   3.403   3.503   2.498 -0.8315 -1.3783  0.4539
   8423SM  H11B11163   3.311   3.367   2.562 -3.6893  2.4105 -0.6361
   8423SM     P11164   3.620   3.481   2.686  0.2551 -0.0660 -0.1562
   8423SM   O1311165   3.739   3.400   2.694  0.3035  0.0546  0.3680
   8423SM   O1411166   3.622   3.602   2.603 -0.0585 -0.8753  0.5431
   8423SM   O1111167   3.566   3.514   2.830 -0.6758 -0.2146  0.2659
   8423SM   O1211168   3.513   3.387   2.626  0.2411 -0.1045  0.1186
   8423SM   C1S11169   3.547   3.412   2.924  0.3978 -0.5504 -0.4019
   8423SM   H1S11170   3.611   3.324   2.900  0.8821 -0.2047 -0.3804
   8423SM   H1T11171   3.441   3.378   2.919  0.0294  0.2835  1.2212
   8423SM    NF11172   3.615   3.359   3.158  0.1018  0.2752  0.1975
   8423SM   HNF11173   3.539   3.325   3.213  0.8902 -1.0999  0.4815
   8423SM   C2S11174   3.579   3.464   3.069  0.6444  0.9917 -0.6629
   8423SM   H2S11175   3.671   3.526   3.064 -0.7724  3.1944 -0.6760
   8423SM   C3S11176   3.465   3.562   3.110  0.0358 -0.3209 -0.4347
   8423SM   H3S11177   3.369   3.507   3.109 -0.0113 -0.3281  1.3646
   8423SM    O311178   3.454   3.666   3.015  0.0935 -0.2827  0.3920
   8423SM   HO311179   3.502   3.627   2.941  0.1314  0.5680 -0.0345
   8423SM   C4S11180   3.495   3.619   3.245  0.6443  0.4563 -0.6270
   8423SM   H4S11181   3.428   3.593   3.328 -0.0280  3.3176 -0.1761
   8423SM   C5S11182   3.582   3.712   3.286 -0.4484  0.2007  0.3818
   8423SM   H5S11183   3.636   3.764   3.206 -1.9921  0.8802 -0.2621
   8423SM   C6S11184   3.600   3.776   3.421 -0.2278  0.0503 -0.2924
   8423SM   H6S11185   3.584   3.886   3.413  1.1031  0.1330 -2.3306
   8423SM   H6T11186   3.700   3.755   3.465 -0.1025 -1.2401 -1.1590
   8423SM   C7S11187   3.507   3.732   3.543  0.0502 -0.4568 -0.0938
   8423SM   H7S11188   3.547   3.631   3.570  2.4957  0.4472 -0.0506
   8423SM   H7T11189   3.401   3.716   3.515  0.1345  0.2004 -0.8063
   8423SM   C8S11190   3.527   3.828   3.663  0.1088 -0.0332 -0.2319
   8423SM   H8S11191   3.469   3.919   3.639  0.1034  0.4375  1.4352
   8423SM   H8T11192   3.635   3.853   3.673 -0.0118  1.3729 -2.0022
   8423SM   C9S11193   3.475   3.782   3.799 -0.1184  0.2128 -0.1269
   8423SM   H9S11194   3.521   3.685   3.826  2.2293  0.3360 -3.1526
   8423SM   H9T11195   3.365   3.767   3.797 -0.2316  0.9056  0.4777
   8423SM  C10S11196   3.520   3.872   3.912  0.5416 -0.6031 -0.1572
   8423SM  H10S11197   3.466   3.969   3.901  3.1981  0.9838 -0.0649
   8423SM  H10T11198   3.625   3.907   3.923  0.4728 -0.9943  2.2720
   8423SM  C11S11199   3.478   3.812   4.049  0.0435  0.7240 -0.3150
   8423SM  H11S11200   3.525   3.712   4.038  1.8914  1.5260 -0.1859
   8423SM  H11T11201   3.369   3.804   4.065 -0.3308  2.6816 -1.5362
   8423SM  C12S11202   3.559   3.885   4.156  0.1244  0.8332  0.2210
   8423SM  H12S11203   3.518   3.986   4.174  1.5158  1.4371  0.0917
   8423SM  H12T11204   3.668   3.886   4.133  0.1666 -3.3892 -0.6068
   8423SM  C13S11205   3.562   3.815   4.295  0.5651 -0.2295  0.1644
   8423SM  H13S11206   3.600   3.711   4.295  0.1078 -0.4393  2.3813
   8423SM  H13T11207   3.461   3.805   4.342 -0.1121 -2.1463 -1.5419
   8423SM  C14S11208   3.647   3.905   4.389 -0.3282  0.2862 -0.1097
   8423SM  H14S11209   3.610   4.008   4.370 -1.4542  0.1129  0.9621
   8423SM  H14T11210   3.752   3.894   4.357 -0.5868 -2.2788 -0.2964
   8423SM  C15S11211   3.619   3.868   4.538  0.1336 -0.9482  0.7256
   8423SM  H15S11212   3.639   3.762   4.563 -0.1509 -1.0825  0.3873
   8423SM  H15T11213   3.511   3.883   4.557  0.0117 -1.3504  0.3497
   8423SM  C16S11214   3.703   3.951   4.635 -0.6406 -1.1756  0.0778
   8423SM  H16S11215   3.716   4.056   4.600 -0.9701 -0.5477  1.7836
   8423SM  H16T11216   3.803   3.903   4.637 -0.6176 -1.0903  2.0472
   8423SM  C17S11217   3.643   3.951   4.776 -0.4679  0.2039  0.1631
   8423SM  H17S11218   3.591   3.854   4.794  1.4796 -0.9553 -0.1276
   8423SM  H17T11219   3.579   4.041   4.791  0.9038  1.2797 -0.2130
   8423SM  C18S11220   3.756   3.956   4.878 -0.3217  0.6864 -0.7855
   8423SM  H18S11221   3.854   3.922   4.839  0.2195  0.5930  0.6092
   8423SM  H18T11222   3.732   3.900   4.971  2.0668 -0.4751 -0.7867
   8423SM  H18U11223   3.770   4.063   4.902  1.4964  0.6047 -1.3338
   8423SM   C1F11224   3.740   3.312   3.171  0.7213  0.0368  0.0858
   8423SM    OF11225   3.831   3.369   3.112  0.1089 -0.6203  0.1101
   8423SM   C2F11226   3.763   3.194   3.256 -0.0050  1.0429 -0.5538
   8423SM   H2F11227   3.817   3.111   3.206 -0.5814 -1.4177  2.5911
   8423SM   H2G11228   3.668   3.161   3.303  1.3208 -2.0043  0.2115
   8423SM   C3F11229   3.848   3.232   3.382  0.5188  0.3216  0.5242
   8423SM   H3F11230   3.944   3.282   3.355 -0.3832  1.1679 -1.2539
   8423SM   H3G11231   3.884   3.141   3.435 -0.9260 -0.3007  0.4537
   8423SM   C4F11232   3.783   3.325   3.481 -0.0326  0.2863  0.7747
   8423SM   H4F11233   3.688   3.284   3.522 -0.8166  0.6514 -0.6061
   8423SM   H4G11234   3.757   3.416   3.423 -0.2717 -0.5452 -0.4686
   8423SM   C5F11235   3.867   3.353   3.610 -0.5890 -0.1216  0.2365
   8423SM   H5F11236   3.959   3.409   3.582 -0.1521 -0.6079  0.6810
   8423SM   H5G11237   3.911   3.258   3.647  2.2358  0.9625 -0.0572
   8423SM   C6F11238   3.789   3.433   3.713  0.2686  0.3023 -0.3883
   8423SM   H6F11239   3.717   3.376   3.776  2.0232 -1.4317  0.1394
   8423SM   H6G11240   3.751   3.517   3.651 -0.8548  1.4260  1.7139
   8423SM   C7F11241   3.883   3.510   3.814  0.0828 -0.1601 -0.7613
   8423SM   H7F11242   3.977   3.529   3.758  0.9008 -0.7131  0.3841
   8423SM   H7G11243   3.912   3.443   3.897  1.1601  1.2252  0.0325
   8423SM   C8F11244   3.808   3.630   3.870  0.9118 -0.4818 -0.4054
   8423SM   H8F11245   3.716   3.591   3.919  1.1473  0.4772  0.8421
   8423SM   H8G11246   3.776   3.702   3.791  1.3565  0.2348  0.0648
   8423SM   C9F11247   3.887   3.708   3.982 -0.5047  0.2636  0.2331
   8423SM   H9F11248   3.840   3.808   3.994 -1.8648 -0.3386  0.0979
   8423SM   H9G11249   3.992   3.720   3.950 -0.2957 -0.6048  0.5631
   8423SM  C10F11250   3.884   3.636   4.118 -0.3404 -0.1159  0.1893
   8423SM  H10F11251   3.929   3.535   4.109  1.7818  0.4056  3.1191
   8423SM  H10G11252   3.776   3.622   4.140 -0.1608 -2.1258 -0.0107
   8423SM  C11F11253   3.951   3.723   4.226  0.7210  0.3826  0.4798
   8423SM  H11F11254   3.896   3.818   4.243 -0.8473 -0.8339  2.6496
   8423SM  H11G11255   4.057   3.738   4.197  1.0326 -1.1799  0.7191
   8423SM  C12F11256   3.959   3.662   4.365 -0.2093 -0.3711 -0.1547
   8423SM  H12F11257   4.023   3.571   4.357  0.3592  0.0623 -0.6023
   8423SM  H12G11258   3.864   3.623   4.406 -0.1491  1.3576  1.8035
   8423SM  C13F11259   4.015   3.759   4.462  0.1126  0.4839 -0.3778
   8423SM  H13F11260   3.956   3.854   4.465  2.8801  2.3127 -0.4357
   8423SM  H13G11261   4.116   3.795   4.434  0.7615 -1.3760 -0.5414
   8423SM  C14F11262   4.019   3.699   4.601 -0.0538 -0.2985  0.0950
   8423SM  H14F11263   4.079   3.605   4.591  0.6347 -0.0480  1.6312
   8423SM  H14G11264   3.913   3.680   4.627  0.3196 -0.4012  1.6532
   8423SM  C15F11265   4.101   3.779   4.698 -0.1703 -0.2969 -0.3320
   8423SM  H15F11266   4.047   3.876   4.707 -0.4163 -0.3630 -1.0506
   8423SM  H15G11267   4.201   3.792   4.650 -0.3144 -0.3888 -0.6561
   8423SM  C16F11268   4.129   3.696   4.828  0.5498 -0.4196  0.0570
   8423SM  H16F11269   4.181   3.601   4.802 -0.1762 -1.0407  0.8355
   8423SM  H16G11270   4.038   3.666   4.883  1.2848 -1.3391  0.8134
   8423SM  C17F11271   4.215   3.780   4.920  0.5683 -0.1901 -0.8608
   8423SM  H17F11272   4.170   3.882   4.922 -0.8801 -0.8088 -0.5649
   8423SM  H17G11273   4.314   3.789   4.869  1.4172 -1.9485  0.3923
   8423SM  C18F11274   4.234   3.715   5.060  0.0144  0.2200  0.9580
   8423SM  H18F11275   4.293   3.625   5.032  1.2426  1.5279 -0.9502
   8423SM  H18G11276   4.136   3.681   5.100 -0.2922 -1.1327 -0.7904
   8423SM  C19F11277   4.294   3.815   5.153 -0.6060  0.6844  0.0264
   8423SM  H19F11278   4.226   3.903   5.155  1.5963  2.5395 -0.9908
   8423SM  H19G11279   4.396   3.840   5.115  0.4001  0.2754  2.2638
   8423SM  C20F11280   4.307   3.754   5.297 -0.9600 -0.4599  0.3486
   8423SM  H20F11281   4.394   3.685   5.294 -0.4893  0.1585 -0.7992
   8423SM  H20G11282   4.213   3.701   5.324 -2.9554  2.1570 -1.0069
   8423SM  C21F11283   4.338   3.860   5.401  0.0037  0.9627  0.6506
   8423SM  H21F11284   4.253   3.932   5.401 -1.8419 -1.0193  2.8320
   8423SM  H21G11285   4.433   3.912   5.377  0.5186 -0.1763  0.2000
   8423SM  C22F11286   4.340   3.795   5.540  0.3366  0.0811  0.3673
   8423SM  H22F11287   4.390   3.864   5.611  0.2400  1.2994 -0.7117
   8423SM  H22G11288   4.400   3.701   5.544 -0.1417 -0.2749 -0.6696
   8423SM  C23F11289   4.205   3.786   5.601  0.4623  0.7492 -0.5734
   8423SM  H23F11290   4.211   3.740   5.702 -0.4311 -1.8252 -1.6007
   8423SM  H23G11291   4.148   3.698   5.564 -0.2435 -0.0201  2.1166
   8423SM  H23H11292   4.156   3.885   5.599  1.0120  1.0233 -0.6378
   8523SM     N11293   5.782   3.871   2.659 -0.4813 -0.0620  0.0721
   8523SM   C1511294   5.732   3.775   2.552 -1.0148 -0.1056 -0.7319
   8523SM  H15A11295   5.733   3.672   2.585 -1.5655  0.3130  0.6582
   8523SM  H15B11296   5.781   3.781   2.456 -1.2434 -1.5668 -0.9626
   8523SM  H15C11297   5.629   3.803   2.539 -1.3533 -0.3283  1.1754
   8523SM   C1411298   5.929   3.873   2.635  0.2573 -0.5614 -0.1207
   8523SM  H14A11299   5.987   3.799   2.689 -0.1121 -0.2866  0.6677
   8523SM  H14B11300   5.968   3.965   2.676  3.6740 -1.6650 -0.5868
   8523SM  H14C11301   5.958   3.873   2.531 -0.2105  0.1117 -0.2567
   8523SM   C1311302   5.718   4.001   2.633  0.4350  0.5387 -0.5515
   8523SM  H13A11303   5.612   3.998   2.612  0.5772  3.6106 -2.3091
   8523SM  H13B11304   5.764   4.045   2.546  0.9975  0.2199 -0.4184
   8523SM  H13C11305   5.747   4.059   2.719  0.7103 -0.1051 -0.2000
   8523SM   C1211306   5.749   3.822   2.798  0.2086  0.1783  1.1969
   8523SM  H12A11307   5.811   3.736   2.816  0.8391  0.4267  0.2645
   8523SM  H12B11308   5.645   3.796   2.806 -0.2619  1.5141 -0.1251
   8523SM   C1111309   5.762   3.923   2.916 -0.6878  0.6691 -0.2975
   8523SM  H11A11310   5.737   3.875   3.013  0.4232  0.5179 -0.0672
   8523SM  H11B11311   5.687   4.004   2.907 -2.0674  0.3374  4.8719
   8523SM     P11312   5.943   4.094   3.002  0.0796 -0.1557  0.4783
   8523SM   O1311313   6.083   4.066   3.030  0.4458 -0.0488  0.1022
   8523SM   O1411314   5.919   4.220   2.935  0.1537 -0.3838  0.3169
   8523SM   O1111315   5.857   4.080   3.132  0.0865 -0.5265 -0.4390
   8523SM   O1211316   5.893   3.976   2.914 -0.1175  0.0804 -0.5299
   8523SM   C1S11317   5.880   3.984   3.239  0.6344 -0.4066  0.6953
   8523SM   H1S11318   5.989   3.969   3.256  0.9156  0.6295 -0.1458
   8523SM   H1T11319   5.816   3.893   3.229 -0.6722  0.5346  0.2454
   8523SM    NF11320   5.879   3.971   3.487 -0.0370  0.1717  0.2909
   8523SM   HNF11321   5.807   3.922   3.535  0.0221 -0.4024 -0.1958
   8523SM   C2S11322   5.829   4.046   3.368  0.4704 -0.2049  0.4222
   8523SM   H2S11323   5.871   4.147   3.382 -0.3218  0.0166  1.3780
   8523SM   C3S11324   5.674   4.056   3.367 -1.1468  0.1502  0.2494
   8523SM   H3S11325   5.632   3.955   3.386 -0.7442 -0.1691 -0.5291
   8523SM    O311326   5.616   4.092   3.239 -0.3291 -0.1290 -0.2004
   8523SM   HO311327   5.694   4.098   3.185 -1.7505 -0.9794 -2.5079
   8523SM   C4S11328   5.620   4.142   3.477 -0.1783 -0.5034  0.8628
   8523SM   H4S11329   5.591   4.244   3.449 -0.9088 -0.7289  0.7721
   8523SM   C5S11330   5.567   4.096   3.594  0.1973  0.2151 -0.1115
   8523SM   H5S11331   5.572   3.989   3.616  0.6050  0.3073  0.2617
   8523SM   C6S11332   5.497   4.191   3.689  0.4517 -0.1869  0.3928
   8523SM   H6S11333   5.395   4.150   3.705  0.3779  0.8452  3.0739
   8523SM   H6T11334   5.488   4.298   3.659 -0.2914  0.2883  2.1602
   8523SM   C7S11335   5.566   4.196   3.823 -0.2909  0.2301  0.9043
   8523SM   H7S11336   5.676   4.211   3.812 -0.3729 -0.5977 -1.7335
   8523SM   H7T11337   5.540   4.099   3.870  0.6415  1.1731  3.5902
   8523SM   C8S11338   5.502   4.306   3.913 -0.2135  0.2978  0.5807
   8523SM   H8S11339   5.395   4.276   3.915 -0.1981  0.2613  2.2980
   8523SM   H8T11340   5.516   4.404   3.862  3.5458 -0.3025  0.2345
   8523SM   C9S11341   5.564   4.319   4.056 -0.2916 -0.5052  0.0305
   8523SM   H9S11342   5.675   4.325   4.060 -0.3208  0.1573 -0.0164
   8523SM   H9T11343   5.541   4.225   4.110 -1.3347 -0.2734  0.0129
   8523SM  C10S11344   5.495   4.431   4.138 -0.1617 -0.4482  0.5294
   8523SM  H10S11345   5.389   4.449   4.110 -0.7601 -0.0838  2.8555
   8523SM  H10T11346   5.555   4.520   4.110 -0.5551  0.3294  2.1134
   8523SM  C11S11347   5.505   4.418   4.295 -0.0115 -0.3045  0.5398
   8523SM  H11S11348   5.613   4.404   4.315  0.7980  0.1421 -2.9146
   8523SM  H11T11349   5.456   4.326   4.334  0.0508  0.2497  2.0145
   8523SM  C12S11350   5.458   4.542   4.370 -0.2497 -0.6322  0.4084
   8523SM  H12S11351   5.351   4.564   4.350 -0.8928 -2.1866  1.8453
   8523SM  H12T11352   5.512   4.632   4.335  2.6662 -2.2030  0.6011
   8523SM  C13S11353   5.477   4.537   4.527  0.2062 -0.1583 -0.2806
   8523SM  H13S11354   5.585   4.541   4.553  1.3408 -0.3318 -4.2142
   8523SM  H13T11355   5.440   4.439   4.564  0.4840 -0.1257  0.0921
   8523SM  C14S11356   5.397   4.637   4.615  0.0037 -0.0731  0.4476
   8523SM  H14S11357   5.287   4.628   4.617  0.0290 -0.4979  2.5856
   8523SM  H14T11358   5.421   4.741   4.583 -1.8478  0.5004  0.8085
   8523SM  C15S11359   5.431   4.615   4.760 -0.2460 -0.1891 -0.0234
   8523SM  H15S11360   5.542   4.624   4.769 -0.1581 -0.9376 -0.2593
   8523SM  H15T11361   5.399   4.510   4.777  1.1450 -0.8664 -1.2996
   8523SM  C16S11362   5.361   4.703   4.864  0.8318  0.4436 -0.1077
   8523SM  H16S11363   5.254   4.673   4.864  0.9419 -0.1191 -1.9290
   8523SM  H16T11364   5.370   4.811   4.838  1.8215  0.8708  1.7981
   8523SM  C17S11365   5.408   4.679   5.010 -0.0362  0.0529  0.4632
   8523SM  H17S11366   5.514   4.712   5.021  0.1336  0.5543 -2.0984
   8523SM  H17T11367   5.413   4.573   5.043  0.5610 -0.1313 -0.2041
   8523SM  C18S11368   5.330   4.766   5.112 -0.7468 -0.1100 -0.1089
   8523SM  H18S11369   5.395   4.780   5.202  1.4307 -0.8478 -1.4906
   8523SM  H18T11370   5.237   4.714   5.143 -1.6927  0.8389 -1.3061
   8523SM  H18U11371   5.307   4.866   5.072 -0.3669  0.4760  1.0696
   8523SM   C1F11372   6.004   3.960   3.517 -0.5052  0.1440 -0.1713
   8523SM    OF11373   6.090   4.020   3.453  0.2811 -0.5299  0.0441
   8523SM   C2F11374   6.042   3.864   3.628  0.0333  0.2345 -0.3240
   8523SM   H2F11375   6.064   3.765   3.585 -2.9216  0.0481 -1.6408
   8523SM   H2G11376   5.955   3.865   3.697  0.3650 -1.7942  0.1609
   8523SM   C3F11377   6.168   3.903   3.710  0.0073 -0.3881 -0.5336
   8523SM   H3F11378   6.259   3.907   3.648  2.4395  2.1509  2.8214
   8523SM   H3G11379   6.185   3.824   3.786 -0.7431  0.7185  0.8488
   8523SM   C4F11380   6.156   4.040   3.788 -0.0363  0.5091 -0.1607
   8523SM   H4F11381   6.124   4.115   3.712  0.6008  1.3422  0.3813
   8523SM   H4G11382   6.261   4.058   3.819  0.2048  0.6787 -1.0296
   8523SM   C5F11383   6.061   4.037   3.907  0.0217 -0.1347 -0.3887
   8523SM   H5F11384   6.100   3.962   3.980  0.2959  1.3212  1.0227
   8523SM   H5G11385   5.956   4.010   3.882  0.2734 -0.1243 -1.5090
   8523SM   C6F11386   6.053   4.165   3.991 -0.2774 -0.0381 -0.6010
   8523SM   H6F11387   6.005   4.242   3.926 -1.2590 -2.0292 -2.3347
   8523SM   H6G11388   6.156   4.196   4.017 -0.6203  0.1327  0.5911
   8523SM   C7F11389   5.969   4.150   4.124  0.1532 -0.6730 -0.4442
   8523SM   H7F11390   6.000   4.049   4.160  0.1746 -0.7563 -0.6942
   8523SM   H7G11391   5.863   4.152   4.091 -0.5839  2.7108  1.6468
   8523SM   C8F11392   6.010   4.259   4.232  0.0577 -0.2047  0.5609
   8523SM   H8F11393   5.980   4.360   4.197  1.5596 -0.1199 -0.5553
   8523SM   H8G11394   6.119   4.273   4.241 -0.3272  3.3657  1.0982
   8523SM   C9F11395   5.953   4.237   4.370  0.1017 -0.1801 -0.0326
   8523SM   H9F11396   6.006   4.158   4.428  0.5055  0.2996  0.2553
   8523SM   H9G11397   5.853   4.196   4.344  0.5986 -1.0596 -0.6227
   8523SM  C10F11398   5.931   4.360   4.460 -0.7448  0.1415 -0.4456
   8523SM  H10F11399   5.848   4.421   4.419 -1.7837 -0.1377  1.1117
   8523SM  H10G11400   6.027   4.412   4.476 -0.0806 -0.9424 -0.8034
   8523SM  C11F11401   5.880   4.325   4.604 -0.1770 -0.2962  0.5737
   8523SM  H11F11402   5.922   4.233   4.649 -1.7726 -0.7172  1.2573
   8523SM  H11G11403   5.770   4.312   4.592 -0.3149  1.3302 -0.2236
   8523SM  C12F11404   5.906   4.442   4.703  0.0484 -0.4889  0.5394
   8523SM  H12F11405   5.911   4.535   4.643 -1.1140 -1.4057 -1.0759
   8523SM  H12G11406   6.008   4.434   4.745  0.8286  0.0343 -1.1771
   8523SM  C13F11407   5.812   4.441   4.821  0.2177  0.7692 -0.0184
   8523SM  H13F11408   5.802   4.338   4.861  2.9348 -0.4105 -2.0990
   8523SM  H13G11409   5.713   4.474   4.781  0.8543  0.4802 -1.9496
   8523SM  C14F11410   5.846   4.554   4.928  0.2243  0.4964  0.7801
   8523SM  H14F11411   5.767   4.548   5.007  0.4670 -0.9279  0.9399
   8523SM  H14G11412   5.840   4.655   4.882  0.4900 -0.8170 -2.3520
   8523SM  C15F11413   5.977   4.540   4.999  0.4503  0.7845  0.4635
   8523SM  H15F11414   5.988   4.629   5.065  1.7219  0.4904  0.6631
   8523SM  H15G11415   6.059   4.542   4.924 -1.2529  0.5517 -1.5035
   8523SM  C16F11416   5.980   4.409   5.070 -0.3313 -0.1984 -0.3582
   8523SM  H16F11417   5.991   4.330   4.992  2.2987 -1.0346  0.7612
   8523SM  H16G11418   5.893   4.387   5.136  2.3040  1.5014  4.1379
   8523SM  C17F11419   6.095   4.397   5.169 -0.4586  0.2054  0.2006
   8523SM  H17F11420   6.088   4.302   5.227  0.9318  1.0047  1.7615
   8523SM  H17G11421   6.092   4.489   5.231  1.1774  1.1800 -1.0842
   8523SM  C18F11422   6.239   4.390   5.105 -0.4015  0.1841  0.2928
   8523SM  H18F11423   6.321   4.393   5.180  1.4277  0.0697 -1.6214
   8523SM  H18G11424   6.249   4.477   5.036  1.6679  1.2972  1.8745
   8523SM  C19F11425   6.266   4.273   5.016 -0.4820  0.7374  0.5732
   8523SM  H19F11426   6.218   4.297   4.919  1.3299 -0.0223 -0.5749
   8523SM  H19G11427   6.222   4.180   5.058 -1.8547  1.1408  0.0567
   8523SM  C20F11428   6.420   4.249   4.990  0.1986  0.4776  0.1282
   8523SM  H20F11429   6.462   4.201   5.081 -1.0788 -2.7990 -0.8527
   8523SM  H20G11430   6.478   4.343   4.977 -1.7190  1.5252 -1.4139
   8523SM  C21F11431   6.447   4.126   4.894  0.3429 -0.1917  0.0228
   8523SM  H21F11432   6.414   4.153   4.791  0.2578 -1.1544 -0.2099
   8523SM  H21G11433   6.382   4.043   4.929  0.0359  0.7517  1.7794
   8523SM  C22F11434   6.590   4.074   4.888  0.2434  0.5220  0.0819
   8523SM  H22F11435   6.627   4.065   4.992  2.3957  1.1835 -0.5730
   8523SM  H22G11436   6.652   4.153   4.840 -1.1522  0.7909 -1.3760
   8523SM  C23F11437   6.593   3.951   4.792  0.6609  0.1870 -0.7949
   8523SM  H23F11438   6.692   3.929   4.747  0.7283  0.3956 -0.7517
   8523SM  H23G11439   6.530   3.973   4.703 -1.9939 -2.5587  0.2309
   8523SM  H23H11440   6.558   3.853   4.830 -3.2766  1.3234 -1.0848
   8623SM     N11441   3.542   3.026   2.695 -0.0404 -1.0410  0.8929
   8623SM   C1511442   3.672   3.060   2.750 -0.2990  0.0542 -1.4076
   8623SM  H15A11443   3.748   3.025   2.681  0.7311 -2.2651  0.7293
   8623SM  H15B11444   3.688   3.004   2.841 -1.2438 -0.0180 -1.2792
   8623SM  H15C11445   3.695   3.164   2.769  0.9247 -0.4111 -0.1322
   8623SM   C1411446   3.535   3.083   2.557  0.3384  0.3048  0.0700
   8623SM  H14A11447   3.454   3.043   2.499 -0.7752 -1.6597  2.7548
   8623SM  H14B11448   3.623   3.053   2.503  0.5894 -0.5603  0.9333
   8623SM  H14C11449   3.536   3.191   2.554 -0.9595  0.3034 -2.2031
   8623SM   C1311450   3.529   2.879   2.681  0.2856  0.0772 -0.2561
   8623SM  H13A11451   3.620   2.839   2.638 -0.0353 -0.5631 -0.3567
   8623SM  H13B11452   3.450   2.854   2.612 -1.0157  1.0436  0.8272
   8623SM  H13C11453   3.516   2.821   2.771  3.0136  0.2593  0.3455
   8623SM   C1211454   3.433   3.090   2.776  0.0580  0.6087  0.6169
   8623SM  H12A11455   3.341   3.055   2.733 -1.3913  3.2770  1.2988
   8623SM  H12B11456   3.424   3.196   2.757 -1.3887  0.2792 -0.7189
   8623SM   C1111457   3.408   3.070   2.924  0.5047  0.3465  0.3425
   8623SM  H11A11458   3.311   3.114   2.956 -0.1857 -1.9817  1.6643
   8623SM  H11B11459   3.485   3.132   2.975 -0.5006  1.9525  0.0121
   8623SM     P11460   3.517   2.898   3.080  0.0959  0.1175 -0.0243
   8623SM   O1311461   3.531   2.751   3.108  0.0026  0.5694 -0.5145
   8623SM   O1411462   3.649   2.959   3.044  0.1902 -0.3181  0.0692
   8623SM   O1111463   3.466   2.964   3.210  0.2200 -0.0258  0.4590
   8623SM   O1211464   3.405   2.931   2.960 -0.0252  0.9470  0.4586
   8623SM   C1S11465   3.345   2.932   3.284 -0.1810  0.7563 -0.3066
   8623SM   H1S11466   3.331   2.822   3.293 -1.0679  0.9616  1.0902
   8623SM   H1T11467   3.260   2.967   3.221 -0.4116  0.8907  0.0745
   8623SM    NF11468   3.244   2.916   3.506 -0.3465 -0.4999  0.0871
   8623SM   HNF11469   3.153   2.955   3.511  0.3844  1.1770  1.8339
   8623SM   C2S11470   3.337   2.988   3.430  0.0932 -0.1011  0.0044
   8623SM   H2S11471   3.441   2.974   3.468  0.1995 -3.7903 -1.3230
   8623SM   C3S11472   3.318   3.139   3.431  0.1058  0.0124 -0.4988
   8623SM   H3S11473   3.215   3.152   3.389 -1.0654 -1.2008  1.7937
   8623SM    O311474   3.402   3.216   3.341  0.1958  0.2852 -0.2429
   8623SM   HO311475   3.445   3.160   3.277 -0.4305  1.3739 -1.6715
   8623SM   C4S11476   3.306   3.208   3.568 -0.0470 -0.2250  0.6912
   8623SM   H4S11477   3.204   3.220   3.608  0.5894 -0.3120  2.4385
   8623SM   C5S11478   3.408   3.265   3.635  0.7923  0.1372 -0.1660
   8623SM   H5S11479   3.510   3.261   3.594  1.2886  0.7699  0.9341
   8623SM   C6S11480   3.386   3.316   3.774  0.1309  0.3861 -0.0170
   8623SM   H6S11481   3.488   3.336   3.813  0.0763  1.8256 -0.5462
   8623SM   H6T11482   3.343   3.231   3.830 -1.8876  2.3418  1.6087
   8623SM   C7S11483   3.293   3.440   3.785  0.5108  0.3795  0.3322
   8623SM   H7S11484   3.191   3.418   3.750 -0.1613  0.4585  2.1167
   8623SM   H7T11485   3.316   3.527   3.720 -0.1421  1.1919  1.1696
   8623SM   C8S11486   3.264   3.490   3.928 -0.3556  0.0585  0.0828
   8623SM   H8S11487   3.204   3.583   3.922 -2.4510 -1.0458  2.1983
   8623SM   H8T11488   3.359   3.533   3.966 -0.5819  0.1399  0.5614
   8623SM   C9S11489   3.192   3.388   4.022 -0.2892  0.4625 -0.3936
   8623SM   H9S11490   3.243   3.289   4.022 -0.3082  0.4332  1.0389
   8623SM   H9T11491   3.091   3.365   3.982 -0.9159  1.1286  0.7694
   8623SM  C10S11492   3.189   3.444   4.164 -0.3905 -0.5557  0.3105
   8623SM  H10S11493   3.140   3.544   4.155 -2.3797 -1.6550 -2.3820
   8623SM  H10T11494   3.296   3.451   4.194 -0.4599  2.6592  0.1733
   8623SM  C11S11495   3.133   3.339   4.266 -0.0508 -0.3007  0.0556
   8623SM  H11S11496   3.175   3.242   4.232 -1.5514 -0.4204 -1.5941
   8623SM  H11T11497   3.024   3.331   4.246 -0.0101  2.6570 -1.9145
   8623SM  C12S11498   3.185   3.371   4.409  0.4132  0.1647 -0.5068
   8623SM  H12S11499   3.295   3.385   4.409  0.7980 -2.2551 -1.3608
   8623SM  H12T11500   3.169   3.277   4.467  2.2617  0.3389  0.3405
   8623SM  C13S11501   3.118   3.488   4.486  0.2914 -0.2547  0.9832
   8623SM  H13S11502   3.011   3.477   4.459  0.5628 -4.0427  0.9239
   8623SM  H13T11503   3.144   3.582   4.433 -0.8597 -2.5469 -4.3313
   8623SM  C14S11504   3.151   3.519   4.631  0.1458  0.0049  0.4599
   8623SM  H14S11505   3.259   3.523   4.653  0.5630  1.2655 -1.5917
   8623SM  H14T11506   3.113   3.442   4.702  0.7767  0.9552  1.8675
   8623SM  C15S11507   3.108   3.660   4.675  0.0215  0.6828 -0.3099
   8623SM  H15S11508   3.157   3.746   4.624 -1.7587  1.4154 -0.8518
   8623SM  H15T11509   3.127   3.664   4.784  1.4168  0.3263 -0.5147
   8623SM  C16S11510   2.962   3.704   4.637 -0.0659  0.1329 -0.4982
   8623SM  H16S11511   2.938   3.691   4.529  1.1846 -1.4456 -0.6108
   8623SM  H16T11512   2.930   3.809   4.659 -5.2764 -1.7525  2.8897
   8623SM  C17S11513   2.858   3.626   4.720  0.4234  0.2125 -0.4419
   8623SM  H17S11514   2.775   3.696   4.746 -2.1824 -1.6591 -3.0496
   8623SM  H17T11515   2.908   3.582   4.809 -0.2535  3.7764  1.8753
   8623SM  C18S11516   2.793   3.503   4.654  0.1149  0.4644 -0.5349
   8623SM  H18S11517   2.875   3.435   4.624 -2.0569 -3.1818  1.0298
   8623SM  H18T11518   2.732   3.525   4.564 -0.1979 -1.4916 -0.8600
   8623SM  H18U11519   2.725   3.453   4.727 -0.3474 -0.5094 -1.6031
   8623SM   C1F11520   3.269   2.793   3.557 -0.2756 -0.3330  0.6230
   8623SM    OF11521   3.373   2.729   3.528  0.2786  0.0483  0.5797
   8623SM   C2F11522   3.160   2.725   3.642  0.2382 -0.0282  0.4806
   8623SM   H2F11523   3.065   2.755   3.593  0.8999  1.0463 -0.1879
   8623SM   H2G11524   3.166   2.765   3.746  2.2764  2.3134 -0.4458
   8623SM   C3F11525   3.179   2.571   3.651  0.2764  0.7845 -0.3444
   8623SM   H3F11526   3.270   2.542   3.709  1.5375  0.8630 -2.1935
   8623SM   H3G11527   3.194   2.544   3.544  1.1344 -0.5486  0.0877
   8623SM   C4F11528   3.053   2.498   3.699 -0.0988 -0.4731  0.0962
   8623SM   H4F11529   2.992   2.501   3.606  0.7875  1.7732 -0.4801
   8623SM   H4G11530   2.994   2.549   3.779  1.3292  1.3944  0.0391
   8623SM   C5F11531   3.072   2.354   3.735 -0.0221  0.0604  0.1032
   8623SM   H5F11532   3.165   2.319   3.685 -0.0142 -1.6294  1.2172
   8623SM   H5G11533   2.991   2.293   3.690 -0.8921  1.5773 -0.4761
   8623SM   C6F11534   3.086   2.321   3.885 -0.4816  0.2159  0.2991
   8623SM   H6F11535   3.101   2.211   3.887  0.9632  0.3066 -1.8035
   8623SM   H6G11536   2.989   2.334   3.938 -0.5628  0.3974  0.1106
   8623SM   C7F11537   3.194   2.399   3.959 -0.7432  0.5060  0.8102
   8623SM   H7F11538   3.193   2.510   3.951  0.8702  0.4433 -0.8918
   8623SM   H7G11539   3.290   2.377   3.907 -2.0542  0.5028 -1.8155
   8623SM   C8F11540   3.213   2.363   4.110  0.3791  0.1427  0.6275
   8623SM   H8F11541   3.117   2.383   4.162  0.4781  2.9218 -0.0931
   8623SM   H8G11542   3.295   2.418   4.161  1.0985  2.1972 -2.4957
   8623SM   C9F11543   3.247   2.211   4.132 -0.5773 -0.5823 -0.2699
   8623SM   H9F11544   3.357   2.199   4.125 -0.6486 -1.1151 -0.4980
   8623SM   H9G11545   3.191   2.158   4.052 -0.3407 -0.8823 -0.2392
   8623SM  C10F11546   3.211   2.147   4.269  0.2187 -0.7285  0.6609
   8623SM  H10F11547   3.105   2.174   4.282 -0.0456 -1.5778  0.3375
   8623SM  H10G11548   3.272   2.197   4.348 -1.2599 -1.5664  2.4168
   8623SM  C11F11549   3.224   1.998   4.275 -0.3711 -0.2570  0.1395
   8623SM  H11F11550   3.191   1.972   4.172 -0.0569  0.9428 -0.2736
   8623SM  H11G11551   3.148   1.949   4.340 -0.0196 -0.0409  0.7240
   8623SM  C12F11552   3.363   1.949   4.315  0.0771  0.6625 -0.6711
   8623SM  H12F11553   3.431   2.007   4.248 -1.1282 -0.4792 -3.0282
   8623SM  H12G11554   3.357   1.839   4.298 -0.3753  0.5069  0.4173
   8623SM  C13F11555   3.390   1.977   4.461 -0.0968 -0.0075 -0.0976
   8623SM  H13F11556   3.335   1.899   4.516 -1.4424 -0.1961 -1.6355
   8623SM  H13G11557   3.359   2.075   4.503  0.2826 -0.3192  0.9435
   8623SM  C14F11558   3.543   1.959   4.480 -0.1751  0.2084  0.2241
   8623SM  H14F11559   3.588   2.027   4.404  0.0999 -1.0589 -0.7845
   8623SM  H14G11560   3.568   1.852   4.460 -0.0442  0.1695  0.5767
   8623SM  C15F11561   3.592   1.994   4.624  0.3820 -0.9798 -0.1591
   8623SM  H15F11562   3.671   1.922   4.657  0.7175  0.0277  1.3403
   8623SM  H15G11563   3.518   1.995   4.707  0.6258 -2.1858  0.0999
   8623SM  C16F11564   3.664   2.136   4.628 -0.9809  0.7569  0.3538
   8623SM  H16F11565   3.604   2.213   4.574 -1.9282  0.0070  0.3050
   8623SM  H16G11566   3.749   2.119   4.559  0.0060  0.4870  1.6086
   8623SM  C17F11567   3.717   2.176   4.758  0.2802 -0.4494 -0.0752
   8623SM  H17F11568   3.777   2.092   4.799 -0.9455 -0.7099  1.2426
   8623SM  H17G11569   3.630   2.181   4.827  1.5833 -0.0246  1.6082
   8623SM  C18F11570   3.808   2.301   4.747 -0.1573 -0.2673 -0.8003
   8623SM  H18F11571   3.763   2.393   4.707  1.1860  0.2972 -1.0755
   8623SM  H18G11572   3.892   2.279   4.678  0.6884 -0.3643  0.2189
   8623SM  C19F11573   3.859   2.337   4.891  0.0025 -0.2162  0.5286
   8623SM  H19F11574   3.943   2.410   4.893 -1.8820  2.0900  3.0256
   8623SM  H19G11575   3.896   2.247   4.943  0.6270 -1.0823 -1.3211
   8623SM  C20F11576   3.752   2.400   4.984  0.2895 -0.0266 -0.3041
   8623SM  H20F11577   3.677   2.325   5.016  0.0578  0.1179 -0.5013
   8623SM  H20G11578   3.696   2.479   4.930 -0.1747 -1.3897 -1.9053
   8623SM  C21F11579   3.808   2.468   5.110 -0.0483 -0.0178  0.1974
   8623SM  H21F11580   3.878   2.396   5.156  0.1212 -0.7028 -1.1007
   8623SM  H21G11581   3.729   2.487   5.186 -1.7071 -0.8453 -1.2516
   8623SM  C22F11582   3.879   2.605   5.073  0.4628 -1.2093  0.8752
   8623SM  H22F11583   3.800   2.677   5.044  1.4954  1.3020  3.7285
   8623SM  H22G11584   3.954   2.589   4.993 -1.1203 -0.9895 -0.7083
   8623SM  C23F11585   3.941   2.673   5.188 -0.2783  0.2183 -0.0964
   8623SM  H23F11586   3.956   2.781   5.165 -1.7236  0.3614 -0.4685
   8623SM  H23G11587   4.029   2.619   5.230 -2.9054 -2.4530  2.5136
   8623SM  H23H11588   3.870   2.668   5.274  0.6602  0.1041  0.6974
   8723SM     N11589   4.678   2.803   2.871 -0.1042 -0.1663 -0.5103
   8723SM   C1511590   4.614   2.668   2.849 -0.1962 -0.1673 -0.1446
   8723SM  H15A11591   4.534   2.660   2.920 -1.2350  0.8805 -1.1504
   8723SM  H15B11592   4.680   2.588   2.878 -2.8303 -1.5821  2.4828
   8723SM  H15C11593   4.572   2.662   2.750 -2.8216  2.3984  0.6775
   8723SM   C1411594   4.762   2.814   2.752  0.0899 -0.7028  0.0081
   8723SM  H14A11595   4.714   2.781   2.661  0.7348  0.1446 -0.6642
   8723SM  H14B11596   4.843   2.746   2.766  0.1340 -0.3795  1.4010
   8723SM  H14C11597   4.792   2.916   2.730 -2.1910  0.2368  0.9000
   8723SM   C1311598   4.570   2.915   2.872 -0.2319  0.7944 -0.1619
   8723SM  H13A11599   4.513   2.924   2.780 -0.7093 -0.6439 -0.0223
   8723SM  H13B11600   4.613   3.011   2.896  0.9865  0.7847 -2.0528
   8723SM  H13C11601   4.497   2.889   2.947  0.5421 -2.5616 -0.4104
   8723SM   C1211602   4.760   2.813   2.997 -0.1476 -0.1048 -0.3908
   8723SM  H12A11603   4.702   2.809   3.089  1.6582 -4.4108  0.7748
   8723SM  H12B11604   4.803   2.912   3.001 -2.7234  1.1180 -1.0615
   8723SM   C1111605   4.884   2.722   3.015 -0.1105 -0.2611  0.1904
   8723SM  H11A11606   4.928   2.751   3.113 -0.2315 -1.8161  0.7354
   8723SM  H11B11607   4.959   2.740   2.935  0.0759  0.3674  0.4953
   8723SM     P11608   4.791   2.498   3.127 -0.0489  0.1665  0.4681
   8723SM   O1311609   4.705   2.406   3.049  0.0424  0.2255 -0.2126
   8723SM   O1411610   4.891   2.441   3.215  0.5621  0.4950  0.5530
   8723SM   O1111611   4.710   2.616   3.207  0.8741  0.5093  0.7081
   8723SM   O1211612   4.857   2.581   3.013 -0.8766 -0.5657  0.5422
   8723SM   C1S11613   4.671   2.597   3.346  0.7993 -0.4293  0.3455
   8723SM   H1S11614   4.762   2.579   3.407  1.5146  0.5182 -0.4111
   8723SM   H1T11615   4.600   2.513   3.361  1.7208 -1.3485 -0.3134
   8723SM    NF11616   4.593   2.738   3.532  0.3058 -0.2147  0.7224
   8723SM   HNF11617   4.503   2.729   3.574  1.0854  0.3944  2.6307
   8723SM   C2S11618   4.601   2.726   3.387 -0.6926  0.2011 -0.3683
   8723SM   H2S11619   4.665   2.815   3.365  0.9327  0.1858  3.4516
   8723SM   C3S11620   4.464   2.735   3.313  0.0978  0.1852 -0.3320
   8723SM   H3S11621   4.418   2.635   3.330  0.4935  0.1079  0.3351
   8723SM    O311622   4.479   2.750   3.170  0.0177 -0.5753  0.3737
   8723SM   HO311623   4.559   2.700   3.155  0.6273 -0.2315  2.1368
   8723SM   C4S11624   4.379   2.844   3.374 -0.6379  0.0855 -0.2785
   8723SM   H4S11625   4.334   2.809   3.467 -2.2342 -0.6342 -1.2876
   8723SM   C5S11626   4.366   2.979   3.344  0.0186  0.0901  0.7644
   8723SM   H5S11627   4.419   3.029   3.262 -0.3560 -1.3765 -0.4323
   8723SM   C6S11628   4.288   3.075   3.428 -0.4029  0.2447 -0.6391
   8723SM   H6S11629   4.193   3.103   3.377 -0.3786  1.2910 -0.1431
   8723SM   H6T11630   4.355   3.163   3.438  0.0530 -0.1407 -0.2804
   8723SM   C7S11631   4.248   3.035   3.572 -0.0129 -0.4502 -0.2322
   8723SM   H7S11632   4.322   2.970   3.623 -0.6768 -2.6059 -1.9044
   8723SM   H7T11633   4.149   2.986   3.570 -0.9325  1.3381 -0.6965
   8723SM   C8S11634   4.225   3.160   3.657  0.9911 -0.1234  0.4526
   8723SM   H8S11635   4.143   3.221   3.614  2.2024  0.4017 -1.1746
   8723SM   H8T11636   4.318   3.219   3.671  0.3099  1.5567 -1.6599
   8723SM   C9S11637   4.184   3.112   3.805 -0.4016 -0.1586 -0.3556
   8723SM   H9S11638   4.267   3.056   3.854  0.8099  1.7648 -0.1122
   8723SM   H9T11639   4.091   3.052   3.794 -1.0254  0.7262 -0.0958
   8723SM  C10S11640   4.142   3.232   3.897 -0.0142 -0.2273 -0.2643
   8723SM  H10S11641   4.078   3.304   3.842  0.5750  0.2244 -0.3722
   8723SM  H10T11642   4.231   3.295   3.918  0.2574 -0.5648 -0.3949
   8723SM  C11S11643   4.070   3.184   4.024 -0.2362  1.0176  0.6471
   8723SM  H11S11644   4.099   3.077   4.034 -1.5931  0.6451  0.7380
   8723SM  H11T11645   3.960   3.191   4.013 -0.2052  0.7702  0.1606
   8723SM  C12S11646   4.118   3.261   4.147  0.5206  0.3947  0.0279
   8723SM  H12S11647   4.094   3.369   4.138  1.7224  0.7602  0.9789
   8723SM  H12T11648   4.228   3.264   4.162  1.0390  1.0100 -3.1493
   8723SM  C13S11649   4.048   3.210   4.274  0.4929 -0.4773 -0.6669
   8723SM  H13S11650   4.059   3.099   4.284  0.0640 -0.3865  1.3421
   8723SM  H13T11651   3.940   3.235   4.276  0.2049 -1.6651  0.6098
   8723SM  C14S11652   4.111   3.261   4.405 -0.3149  0.1868 -0.7152
   8723SM  H14S11653   4.099   3.372   4.406 -2.1438  0.0522  1.3385
   8723SM  H14T11654   4.219   3.235   4.410 -0.7379 -1.5423  0.6312
   8723SM  C15S11655   4.041   3.210   4.531 -0.6906  0.2583  0.3948
   8723SM  H15S11656   4.072   3.103   4.533  0.7322  0.6238 -0.4485
   8723SM  H15T11657   3.930   3.218   4.535 -0.7607 -0.5314  0.2962
   8723SM  C16S11658   4.108   3.271   4.654 -0.6487 -0.1625 -0.6685
   8723SM  H16S11659   4.065   3.372   4.670 -0.9943  0.0915 -2.8663
   8723SM  H16T11660   4.218   3.277   4.640 -0.8806  1.0416 -2.2712
   8723SM  C17S11661   4.073   3.200   4.787  0.3827  0.3637  0.0338
   8723SM  H17S11662   4.124   3.102   4.782  2.0089  1.2122 -1.2810
   8723SM  H17T11663   3.963   3.185   4.790  0.0959  2.2985  3.1751
   8723SM  C18S11664   4.111   3.281   4.919 -0.8334  0.2636 -0.1264
   8723SM  H18S11665   4.092   3.218   5.008 -0.9446 -1.7974 -1.5463
   8723SM  H18T11666   4.052   3.376   4.924  0.2634  0.9246  0.8657
   8723SM  H18U11667   4.216   3.315   4.916 -0.7466  0.0047  0.0133
   8723SM   C1F11668   4.695   2.758   3.611 -0.6528 -0.4319 -0.2121
   8723SM    OF11669   4.810   2.746   3.573  0.2518 -0.1782 -0.4029
   8723SM   C2F11670   4.672   2.810   3.750 -0.0412 -0.6860  0.0035
   8723SM   H2F11671   4.588   2.882   3.752  0.9429  0.4845  0.1098
   8723SM   H2G11672   4.761   2.867   3.783 -0.1115 -0.1679 -0.6973
   8723SM   C3F11673   4.648   2.692   3.840  0.8567 -0.1532 -0.6703
   8723SM   H3F11674   4.714   2.609   3.809  0.7822 -0.7291  0.6433
   8723SM   H3G11675   4.541   2.662   3.837  0.5651  0.4730  1.3313
   8723SM   C4F11676   4.669   2.723   3.987 -0.5062  0.3297  0.6503
   8723SM   H4F11677   4.600   2.807   4.011 -0.3874  0.1038  1.8793
   8723SM   H4G11678   4.772   2.761   4.001  1.0488 -3.4829  0.8190
   8723SM   C5F11679   4.666   2.594   4.067  0.6545 -0.2797 -0.3699
   8723SM   H5F11680   4.764   2.541   4.060 -0.0970 -1.7288 -0.4363
   8723SM   H5G11681   4.581   2.534   4.027 -0.8565  1.9011 -0.5936
   8723SM   C6F11682   4.633   2.615   4.218 -0.2766  0.4632  0.8820
   8723SM   H6F11683   4.551   2.689   4.230 -1.0955 -0.3388  0.3837
   8723SM   H6G11684   4.718   2.671   4.262 -0.2354 -0.1259  1.5808
   8723SM   C7F11685   4.598   2.499   4.301  0.0352  0.0325  1.4025
   8723SM   H7F11686   4.662   2.411   4.278 -0.2335  0.2622 -0.2959
   8723SM   H7G11687   4.492   2.477   4.276  0.0668  0.0860  1.2223
   8723SM   C8F11688   4.605   2.538   4.454  0.6006  0.4636 -0.9279
   8723SM   H8F11689   4.506   2.577   4.485  0.5451 -0.8835  0.7824
   8723SM   H8G11690   4.689   2.603   4.488  1.0996 -0.1225 -1.0313
   8723SM   C9F11691   4.611   2.415   4.546 -0.3912 -0.8418 -0.1125
   8723SM   H9F11692   4.697   2.356   4.509  1.4982  0.2367  2.3079
   8723SM   H9G11693   4.516   2.356   4.541 -0.7484 -0.3956  1.2162
   8723SM  C10F11694   4.641   2.460   4.692 -0.6321  0.3770  0.4605
   8723SM  H10F11695   4.560   2.524   4.733 -0.4563  0.7474  0.2384
   8723SM  H10G11696   4.733   2.520   4.672 -0.5486 -0.2634 -1.2781
   8723SM  C11F11697   4.671   2.365   4.802 -0.4245  0.4239  0.3830
   8723SM  H11F11698   4.581   2.312   4.840 -1.2485  1.9770  0.7192
   8723SM  H11G11699   4.700   2.428   4.888  0.5125  2.2283 -1.1829
   8723SM  C12F11700   4.786   2.264   4.766 -0.5285  0.4982  0.3064
   8723SM  H12F11701   4.863   2.316   4.706 -1.7154  0.7888 -1.0151
   8723SM  H12G11702   4.759   2.193   4.685  1.5982 -0.9869  0.8055
   8723SM  C13F11703   4.836   2.178   4.884 -0.4962  0.2088  0.2696
   8723SM  H13F11704   4.906   2.102   4.844 -2.3960 -0.4216 -2.1184
   8723SM  H13G11705   4.760   2.120   4.942  0.9797 -1.1085  0.9557
   8723SM  C14F11706   4.920   2.270   4.980  0.5478  0.0466 -0.3469
   8723SM  H14F11707   4.853   2.323   5.052  1.2183  0.9174 -0.3545
   8723SM  H14G11708   4.977   2.342   4.918  1.6562  1.3811  2.0898
   8723SM  C15F11709   5.032   2.200   5.065  0.3895 -0.4059  0.7170
   8723SM  H15F11710   5.109   2.151   5.001 -0.6511 -1.6237  0.3398
   8723SM  H15G11711   4.981   2.126   5.131 -1.9140 -1.2005 -1.7241
   8723SM  C16F11712   5.106   2.303   5.142  0.4451 -0.4419 -0.4255
   8723SM  H16F11713   5.037   2.382   5.180  1.5025 -0.5380  1.9006
   8723SM  H16G11714   5.183   2.349   5.077 -0.6248 -2.0769 -2.9867
   8723SM  C17F11715   5.169   2.242   5.266  0.4560 -0.1304  0.2674
   8723SM  H17F11716   5.236   2.161   5.232  2.3234  0.4696  2.2574
   8723SM  H17G11717   5.085   2.201   5.327 -1.3500  1.5542 -0.9520
   8723SM  C18F11718   5.245   2.348   5.343  0.0100 -0.1246 -0.1186
   8723SM  H18F11719   5.162   2.405   5.391  1.0321  1.9815 -0.6979
   8723SM  H18G11720   5.303   2.416   5.277 -0.5039  0.3947 -0.0439
   8723SM  C19F11721   5.357   2.295   5.435 -0.0524 -0.5157  0.2697
   8723SM  H19F11722   5.402   2.380   5.490  0.9496 -0.9103  0.0891
   8723SM  H19G11723   5.442   2.248   5.380  0.4609  1.2339 -0.4850
   8723SM  C20F11724   5.304   2.203   5.546  0.0591  0.6199 -0.4180
   8723SM  H20F11725   5.257   2.107   5.516 -0.4567  0.7618 -0.0686
   8723SM  H20G11726   5.216   2.258   5.584 -0.8905 -1.2371  0.2346
   8723SM  C21F11727   5.394   2.175   5.666 -0.2264 -0.3618 -0.4057
   8723SM  H21F11728   5.324   2.128   5.738  0.1578 -1.2912 -0.6219
   8723SM  H21G11729   5.424   2.272   5.710 -4.6159  0.2849  1.6713
   8723SM  C22F11730   5.511   2.081   5.645 -0.3483  0.7417  0.1323
   8723SM  H22F11731   5.568   2.112   5.555 -0.8500 -0.6900 -0.7136
   8723SM  H22G11732   5.465   1.986   5.612 -0.5672  1.6476 -2.3466
   8723SM  C23F11733   5.590   2.080   5.776  0.4377 -0.0249  0.3690
   8723SM  H23F11734   5.532   2.055   5.867  2.2448 -1.2604  1.2446
   8723SM  H23G11735   5.646   2.174   5.795 -0.4001  0.1174  2.3747
   8723SM  H23H11736   5.665   1.998   5.768  0.1265 -0.4163  1.3431
   8823SM     N11737   2.250   2.165   2.762  0.1820  0.2770  0.2667
   8823SM   C1511738   2.283   2.282   2.672  0.2618  0.6212 -0.2466
   8823SM  H15A11739   2.269   2.261   2.567 -0.1888  2.5012 -0.6135
   8823SM  H15B11740   2.387   2.304   2.695  0.2618 -0.1288  0.4870
   8823SM  H15C11741   2.229   2.371   2.700  1.8559  1.5627 -0.0302
   8823SM   C1411742   2.252   2.196   2.912  0.9235  0.2981  0.1618
   8823SM  H14A11743   2.353   2.224   2.937  0.5007  0.2485  2.0927
   8823SM  H14B11744   2.225   2.101   2.956  0.9235 -0.0153 -0.5060
   8823SM  H14C11745   2.184   2.273   2.945 -1.9933 -1.6453 -0.9483
   8823SM   C1311746   2.111   2.120   2.729 -0.5416  0.4666 -0.7181
   8823SM  H13A11747   2.090   2.029   2.782 -1.4752  0.6196 -0.8151
   8823SM  H13B11748   2.092   2.103   2.624 -1.1697 -0.5787 -0.4522
   8823SM  H13C11749   2.038   2.198   2.742 -1.2864  0.0150 -2.0062
   8823SM   C1211750   2.346   2.058   2.722  0.0146  0.5769  0.7220
   8823SM  H12A11751   2.448   2.091   2.710  1.3622 -3.0779  0.7593
   8823SM  H12B11752   2.314   2.016   2.628 -1.4028  0.7579  1.1008
   8823SM   C1111753   2.343   1.933   2.813 -0.2479  0.0253  0.0581
   8823SM  H11A11754   2.237   1.912   2.840 -0.5524  1.6633  0.2848
   8823SM  H11B11755   2.387   1.956   2.912 -0.6755  0.8501  0.0750
   8823SM     P11756   2.543   1.759   2.777 -0.1819 -0.2439  0.1993
   8823SM   O1311757   2.532   1.633   2.699 -0.1400 -0.0459  0.0802
   8823SM   O1411758   2.658   1.843   2.751 -0.0460 -0.2862 -0.1024
   8823SM   O1111759   2.539   1.730   2.935 -0.1376 -0.2958  0.1447
   8823SM   O1211760   2.403   1.830   2.745  0.2148 -0.1601  0.0104
   8823SM   C1S11761   2.434   1.643   2.971  0.1197 -0.1641 -0.5293
   8823SM   H1S11762   2.448   1.544   2.923  1.9667 -0.7930  1.1870
   8823SM   H1T11763   2.337   1.674   2.926 -0.0848 -3.0022 -2.3283
   8823SM    NF11764   2.332   1.533   3.167  0.1141  0.3343  0.3443
   8823SM   HNF11765   2.259   1.555   3.231 -0.6961 -0.1801 -0.3783
   8823SM   C2S11766   2.431   1.630   3.127 -1.1054 -0.4427 -0.4826
   8823SM   H2S11767   2.535   1.599   3.153 -1.6618  0.2526  3.0356
   8823SM   C3S11768   2.425   1.764   3.202  0.4485 -0.4267 -0.0749
   8823SM   H3S11769   2.328   1.814   3.183  1.0576  0.9131  0.1975
   8823SM    O311770   2.510   1.867   3.150 -0.1039  0.2586 -0.2929
   8823SM   HO311771   2.528   1.823   3.067 -2.0849 -0.4708 -0.3797
   8823SM   C4S11772   2.440   1.757   3.356  0.3338  0.0453  0.4014
   8823SM   H4S11773   2.342   1.727   3.396 -0.2160  1.2475 -0.0130
   8823SM   C5S11774   2.549   1.794   3.442  0.1065 -0.6303 -0.3338
   8823SM   H5S11775   2.639   1.840   3.400  0.6087  0.1883  1.5148
   8823SM   C6S11776   2.538   1.791   3.592 -0.1832 -0.4622 -0.5294
   8823SM   H6S11777   2.607   1.873   3.622 -1.1645  0.1876  0.0094
   8823SM   H6T11778   2.589   1.701   3.632  1.6571  0.9666  0.4698
   8823SM   C7S11779   2.400   1.804   3.665  0.0140  0.3515 -0.2313
   8823SM   H7S11780   2.329   1.725   3.632 -1.4151  2.4053 -2.5154
   8823SM   H7T11781   2.350   1.899   3.636  0.6957  0.4080 -1.2796
   8823SM   C8S11782   2.425   1.803   3.812  0.0760 -0.4984  0.5284
   8823SM   H8S11783   2.471   1.900   3.842  0.7924 -0.0100 -1.9316
   8823SM   H8T11784   2.501   1.723   3.824 -0.7212 -1.7552 -2.1231
   8823SM   C9S11785   2.300   1.790   3.898  0.2795 -0.3706 -0.3939
   8823SM   H9S11786   2.263   1.686   3.880  0.3815 -0.3947 -0.4669
   8823SM   H9T11787   2.221   1.861   3.866  0.1120 -1.9618 -4.0770
   8823SM  C10S11788   2.322   1.816   4.047  0.0717  0.1932  0.1115
   8823SM  H10S11789   2.344   1.924   4.047 -3.5210  1.0472  0.8373
   8823SM  H10T11790   2.403   1.746   4.076  0.9347  1.0723 -0.1282
   8823SM  C11S11791   2.205   1.778   4.133 -0.0444  0.2571 -0.0902
   8823SM  H11S11792   2.173   1.673   4.122  0.2066  0.3245 -1.6784
   8823SM  H11T11793   2.134   1.852   4.090  0.5142  0.4505 -0.6937
   8823SM  C12S11794   2.224   1.807   4.286  0.2433  0.2597 -0.1987
   8823SM  H12S11795   2.244   1.914   4.307  1.2565 -0.1852  1.2043
   8823SM  H12T11796   2.322   1.764   4.314 -0.7135  0.2542  3.7584
   8823SM  C13S11797   2.099   1.757   4.368 -0.2496  0.2923  0.1472
   8823SM  H13S11798   2.113   1.647   4.374  0.8601  0.2620 -1.8429
   8823SM  H13T11799   2.007   1.782   4.312 -2.4995 -0.3508  3.2956
   8823SM  C14S11800   2.108   1.828   4.500  0.1351  0.0607 -0.7719
   8823SM  H14S11801   2.087   1.937   4.497  1.0339  0.3503  1.5590
   8823SM  H14T11802   2.210   1.814   4.540  1.2178  3.2451 -2.0870
   8823SM  C15S11803   2.003   1.782   4.605 -0.4504 -0.2088  0.9165
   8823SM  H15S11804   2.026   1.852   4.688  1.5177 -0.6859  0.8384
   8823SM  H15T11805   2.028   1.675   4.625  0.5310  0.0530  1.1294
   8823SM  C16S11806   1.853   1.787   4.581 -0.4629  0.0527  0.2048
   8823SM  H16S11807   1.828   1.750   4.480 -0.6442  0.6675  0.0197
   8823SM  H16T11808   1.822   1.894   4.585 -0.2071  0.1346 -0.0155
   8823SM  C17S11809   1.780   1.717   4.691 -0.1976 -0.3204 -0.2469
   8823SM  H17S11810   1.804   1.609   4.703 -1.6281 -0.6174  0.1894
   8823SM  H17T11811   1.671   1.711   4.670 -0.4432 -1.2379  1.1414
   8823SM  C18S11812   1.798   1.774   4.834 -0.0160  0.0538  0.1746
   8823SM  H18S11813   1.899   1.755   4.876 -0.6944  0.1058  1.8991
   8823SM  H18T11814   1.726   1.721   4.899  0.3969 -0.9349 -0.1641
   8823SM  H18U11815   1.773   1.882   4.832 -0.3001  0.0107  1.0709
   8823SM   C1F11816   2.350   1.412   3.121 -0.0596  0.0690 -0.1310
   8823SM    OF11817   2.465   1.366   3.102 -0.2265 -0.1470 -0.1643
   8823SM   C2F11818   2.230   1.323   3.094 -0.5253 -0.3110 -0.1651
   8823SM   H2F11819   2.209   1.316   2.985  2.4917  0.4159 -0.8780
   8823SM   H2G11820   2.148   1.365   3.157  0.0061  1.2572 -0.4968
   8823SM   C3F11821   2.256   1.180   3.164  0.0674 -0.1088  0.1539
   8823SM   H3F11822   2.257   1.188   3.275 -0.0350 -1.3684  0.2612
   8823SM   H3G11823   2.361   1.154   3.139  0.1953 -0.1842  0.7695
   8823SM   C4F11824   2.162   1.064   3.136 -0.1238  0.0730  0.1350
   8823SM   H4F11825   2.190   1.012   3.041 -0.9701  0.6888 -0.4684
   8823SM   H4G11826   2.057   1.094   3.117 -0.7696 -2.4348 -0.6373
   8823SM   C5F11827   2.166   0.961   3.249 -0.4653  0.2618 -0.0551
   8823SM   H5F11828   2.155   1.014   3.346  1.5590 -0.2969  0.5278
   8823SM   H5G11829   2.273   0.930   3.251 -0.2210  1.1015  0.2735
   8823SM   C6F11830   2.066   0.847   3.229  0.4508  0.5730 -0.1257
   8823SM   H6F11831   2.101   0.780   3.147  0.7390 -0.3320  0.7234
   8823SM   H6G11832   1.960   0.880   3.217  0.4007  0.6497  0.5009
   8823SM   C7F11833   2.065   0.756   3.350 -0.9959 -1.1958 -0.2833
   8823SM   H7F11834   2.165   0.718   3.381 -0.5521  1.7049  2.3554
   8823SM   H7G11835   2.017   0.663   3.313 -0.5496 -1.8734  0.7646
   8823SM   C8F11836   1.989   0.813   3.476 -0.2346  0.1174  0.1416
   8823SM   H8F11837   1.903   0.874   3.440 -1.3486  0.0215  2.3981
   8823SM   H8G11838   2.056   0.884   3.529 -0.1030  0.0749  0.0316
   8823SM   C9F11839   1.948   0.720   3.591 -0.3100  0.5548  0.9040
   8823SM   H9F11840   1.889   0.634   3.553 -0.3220  0.6072  0.8027
   8823SM   H9G11841   1.885   0.782   3.658  1.7074  0.9683  2.5365
   8823SM  C10F11842   2.070   0.669   3.673 -0.1766  0.2490 -0.1571
   8823SM  H10F11843   2.120   0.752   3.728  2.6888 -0.1623 -1.9632
   8823SM  H10G11844   2.145   0.611   3.616 -0.3543 -1.3583  1.1674
   8823SM  C11F11845   2.020   0.572   3.784 -0.7357  0.1904  0.2871
   8823SM  H11F11846   1.970   0.479   3.749  1.2120 -0.0280 -2.2673
   8823SM  H11G11847   1.950   0.635   3.842 -0.1127  0.5221  0.6921
   8823SM  C12F11848   2.140   0.525   3.870 -0.2818  0.4186  0.3149
   8823SM  H12F11849   2.206   0.608   3.904  0.1628  0.8910 -1.5884
   8823SM  H12G11850   2.207   0.455   3.817  0.6950  1.7159 -0.2384
   8823SM  C13F11851   2.085   0.449   3.981 -0.5209  0.2452 -0.4615
   8823SM  H13F11852   2.039   0.349   3.962 -0.2387  0.0603 -0.1723
   8823SM  H13G11853   1.995   0.510   4.006 -0.5281  0.7689 -1.6764
   8823SM  C14F11854   2.173   0.414   4.111  1.1847 -0.6343  0.2729
   8823SM  H14F11855   2.191   0.514   4.157  0.8413  1.2989 -3.4744
   8823SM  H14G11856   2.266   0.363   4.078  1.6021 -0.9185  1.7765
   8823SM  C15F11857   2.093   0.327   4.206 -0.4240  0.6659  0.8658
   8823SM  H15F11858   2.057   0.240   4.147  0.0897  0.6413  0.5771
   8823SM  H15G11859   1.999   0.384   4.220 -1.3923 -0.9590  1.1324
   8823SM  C16F11860   2.156   0.284   4.332 -0.4144 -0.0749  0.9092
   8823SM  H16F11861   2.231   0.205   4.312 -0.2633  0.3363 -0.1883
   8823SM  H16G11862   2.073   0.234   4.387 -0.6909  0.0129  0.5712
   8823SM  C17F11863   2.224   0.390   4.422  0.3253 -0.7123  1.2474
   8823SM  H17F11864   2.149   0.470   4.441  0.3823 -0.1940 -0.5665
   8823SM  H17G11865   2.313   0.434   4.372  1.0361 -1.7518  1.5631
   8823SM  C18F11866   2.275   0.319   4.546  0.2824  0.1185  0.0400
   8823SM  H18F11867   2.357   0.248   4.517 -0.2009 -0.0492 -0.9665
   8823SM  H18G11868   2.200   0.251   4.592 -0.0440 -0.4776 -1.3128
   8823SM  C19F11869   2.317   0.410   4.661  0.0088 -0.3149 -0.1432
   8823SM  H19F11870   2.227   0.466   4.694 -1.0554  0.1004 -3.4447
   8823SM  H19G11871   2.400   0.476   4.630  0.4925 -0.1949  1.3429
   8823SM  C20F11872   2.385   0.331   4.783  0.1617 -0.7245  0.1219
   8823SM  H20F11873   2.488   0.306   4.751  0.4682 -0.5442  0.9504
   8823SM  H20G11874   2.334   0.235   4.807  0.0434 -0.1317  2.4560
   8823SM  C21F11875   2.379   0.417   4.915 -0.7808 -0.2068  0.6696
   8823SM  H21F11876   2.429   0.516   4.901  0.1941 -0.5690  1.4617
   8823SM  H21G11877   2.430   0.360   4.996 -0.3340  2.2084  2.1931
   8823SM  C22F11878   2.236   0.434   4.969 -0.4491  0.1188  0.0222
   8823SM  H22F11879   2.188   0.334   4.978 -1.5871  0.7307  1.1157
   8823SM  H22G11880   2.178   0.501   4.902 -0.9755 -0.3605 -0.0119
   8823SM  C23F11881   2.239   0.496   5.109  0.3043  0.0292 -0.3569
   8823SM  H23F11882   2.334   0.464   5.157 -0.8099 -2.4091  0.3976
   8823SM  H23G11883   2.147   0.478   5.169 -1.2302  1.1078 -2.2734
   8823SM  H23H11884   2.252   0.606   5.095 -2.5949  0.3474 -1.2455
   8923SM     N11885   6.488   2.188   2.835 -0.4208  1.0360  0.1250
   8923SM   C1511886   6.573   2.136   2.726 -0.6084  0.2788  0.7733
   8923SM  H15A11887   6.656   2.091   2.779 -0.8183 -1.0485  0.0127
   8923SM  H15B11888   6.608   2.210   2.655  0.2513 -0.0132  0.8854
   8923SM  H15C11889   6.524   2.065   2.661  0.0365  0.7591 -0.2661
   8923SM   C1411890   6.377   2.239   2.763 -0.1756 -0.1910  0.0953
   8923SM  H14A11891   6.307   2.290   2.828 -2.3445 -0.3922 -1.9333
   8923SM  H14B11892   6.326   2.168   2.700 -0.1755 -0.4794  0.4181
   8923SM  H14C11893   6.401   2.318   2.694  1.9454 -1.7724 -1.0941
   8923SM   C1311894   6.441   2.075   2.919  0.0706  0.4386 -0.6407
   8923SM  H13A11895   6.527   2.012   2.940  0.2131 -0.6301 -3.9352
   8923SM  H13B11896   6.370   2.011   2.869 -1.4617  1.0913  0.6041
   8923SM  H13C11897   6.382   2.115   3.001 -0.9739  0.4359 -1.3748
   8923SM   C1211898   6.553   2.291   2.921  1.1285  0.2193  0.9795
   8923SM  H12A11899   6.470   2.318   2.985  0.9116  0.1673  0.7232
   8923SM  H12B11900   6.572   2.373   2.853 -2.5662 -0.7131 -1.5379
   8923SM   C1111901   6.673   2.255   3.009  0.4947 -0.5584 -0.1837
   8923SM  H11A11902   6.630   2.209   3.100  3.2616 -0.7509  1.1163
   8923SM  H11B11903   6.715   2.357   3.025 -1.0006 -0.3032  2.7123
   8923SM     P11904   6.829   2.038   2.997 -0.2465  0.0755 -0.0348
   8923SM   O1311905   6.846   1.939   2.884  0.2454 -0.5100  0.0017
   8923SM   O1411906   6.943   2.067   3.083  0.0540 -0.0314 -0.2624
   8923SM   O1111907   6.711   1.979   3.089 -0.3233 -0.5703  0.0434
   8923SM   O1211908   6.769   2.173   2.943 -0.3739 -0.2409  0.2053
   8923SM   C1S11909   6.733   1.859   3.161 -0.3224 -0.0170 -0.2977
   8923SM   H1S11910   6.835   1.816   3.151 -0.0807  0.8521 -1.9593
   8923SM   H1T11911   6.651   1.786   3.144  0.0367 -0.5474  0.2171
   8923SM    NF11912   6.767   1.773   3.392  0.3501 -0.2710 -0.4265
   8923SM   HNF11913   6.691   1.731   3.441 -1.5186  1.8504 -1.3024
   8923SM   C2S11914   6.721   1.885   3.315 -0.7165 -0.2005 -0.3156
   8923SM   H2S11915   6.784   1.974   3.337  0.9773 -1.7791  1.7255
   8923SM   C3S11916   6.577   1.935   3.350 -0.0647 -0.1267 -0.1608
   8923SM   H3S11917   6.500   1.857   3.330 -1.7429  1.2578  0.5776
   8923SM    O311918   6.520   2.039   3.270  0.5582  0.2348 -0.1681
   8923SM   HO311919   6.571   2.033   3.188 -0.7573 -0.2761 -0.9768
   8923SM   C4S11920   6.553   1.950   3.503  0.4436 -0.6277 -0.0045
   8923SM   H4S11921   6.543   1.855   3.558  1.7184 -0.6960  0.1297
   8923SM   C5S11922   6.545   2.065   3.572 -0.6831 -0.1597  0.1076
   8923SM   H5S11923   6.557   2.159   3.515 -2.8565  0.1896  0.1122
   8923SM   C6S11924   6.515   2.082   3.725  0.1389 -0.4475 -0.0447
   8923SM   H6S11925   6.429   2.151   3.732  0.2070  0.0465 -3.0124
   8923SM   H6T11926   6.600   2.140   3.767  0.3313  0.2552 -1.3553
   8923SM   C7S11927   6.476   1.960   3.806  0.7201  0.1210 -0.7066
   8923SM   H7S11928   6.571   1.916   3.842 -0.0994 -2.5484 -1.5710
   8923SM   H7T11929   6.409   1.891   3.749  0.3300  0.9022 -1.2108
   8923SM   C8S11930   6.386   1.991   3.929 -0.2403  0.0561  1.0454
   8923SM   H8S11931   6.314   2.058   3.878  0.6179 -0.1800 -0.5430
   8923SM   H8T11932   6.434   2.044   4.014  0.4998  1.3735 -0.1598
   8923SM   C9S11933   6.316   1.863   3.983 -0.1887  0.3670  0.3843
   8923SM   H9S11934   6.308   1.783   3.906 -3.8869  1.6118 -0.6894
   8923SM   H9T11935   6.212   1.881   4.016 -0.5953 -1.8168  0.4681
   8923SM  C10S11936   6.384   1.800   4.110 -0.3363  0.1858  0.0837
   8923SM  H10S11937   6.374   1.874   4.193  0.3249  1.9058 -1.3080
   8923SM  H10T11938   6.492   1.782   4.087 -0.6213 -0.1664 -1.0199
   8923SM  C11S11939   6.321   1.669   4.155 -0.3030  0.3284  0.2134
   8923SM  H11S11940   6.336   1.593   4.076  0.6031 -0.5005  1.1510
   8923SM  H11T11941   6.215   1.663   4.190  0.4411 -0.5373  2.5082
   8923SM  C12S11942   6.395   1.616   4.279 -0.3589  1.0140 -0.4259
   8923SM  H12S11943   6.393   1.697   4.356  1.6477  1.2760 -0.5830
   8923SM  H12T11944   6.503   1.600   4.261 -0.5336 -0.7194 -0.0867
   8923SM  C13S11945   6.335   1.488   4.347 -0.1255 -0.5864  0.0138
   8923SM  H13S11946   6.409   1.438   4.412  0.6551  0.6194  0.0783
   8923SM  H13T11947   6.301   1.420   4.265 -1.3830  1.3134 -1.1291
   8923SM  C14S11948   6.208   1.536   4.429  0.4134  0.1548 -0.4074
   8923SM  H14S11949   6.125   1.563   4.360  0.7486 -0.8527 -1.2262
   8923SM  H14T11950   6.235   1.626   4.488  1.2017  1.0208 -2.0167
   8923SM  C15S11951   6.142   1.424   4.515 -0.3029 -0.2608 -0.3874
   8923SM  H15S11952   6.210   1.388   4.596  2.1927 -1.6902 -2.9464
   8923SM  H15T11953   6.128   1.333   4.453  1.5289 -1.4757  0.8888
   8923SM  C16S11954   6.013   1.472   4.578 -0.0378  0.0004 -0.3792
   8923SM  H16S11955   5.965   1.392   4.638 -1.6659  0.6665 -0.7385
   8923SM  H16T11956   5.939   1.490   4.497  1.3466  1.6109 -1.3331
   8923SM  C17S11957   6.021   1.604   4.671  0.7452  0.2931 -0.2542
   8923SM  H17S11958   5.923   1.616   4.722  1.8431 -0.6335  2.1969
   8923SM  H17T11959   6.025   1.681   4.591 -1.5634  1.0192  0.2481
   8923SM  C18S11960   6.137   1.616   4.763  0.2864  0.2702  0.6450
   8923SM  H18S11961   6.123   1.693   4.841 -1.8332 -0.5159  1.1082
   8923SM  H18T11962   6.228   1.649   4.707 -1.1024  0.7171 -1.4779
   8923SM  H18U11963   6.144   1.518   4.815 -0.9218  0.1759  0.6562
   8923SM   C1F11964   6.893   1.745   3.421  0.5729  0.3969 -0.5610
   8923SM    OF11965   6.982   1.804   3.366  1.0582 -0.4348 -0.0138
   8923SM   C2F11966   6.925   1.648   3.529 -0.1594  0.1215 -0.5072
   8923SM   H2F11967   6.908   1.542   3.500  3.0945 -0.9337  0.9314
   8923SM   H2G11968   6.863   1.672   3.618 -0.5640 -1.3535 -0.3616
   8923SM   C3F11969   7.068   1.661   3.583  0.1982 -0.1414 -0.0089
   8923SM   H3F11970   7.115   1.761   3.590 -0.2138  0.0909 -0.4599
   8923SM   H3G11971   7.137   1.608   3.514  3.0983  1.3318  1.5925
   8923SM   C4F11972   7.088   1.606   3.719  0.2857 -0.8085 -0.1195
   8923SM   H4F11973   7.022   1.519   3.740 -2.3040  0.7225 -1.4938
   8923SM   H4G11974   7.045   1.675   3.794 -2.6905 -1.2560 -1.2984
   8923SM   C5F11975   7.234   1.576   3.742  0.0220  0.3215  0.2831
   8923SM   H5F11976   7.295   1.667   3.724  1.0172 -0.6572 -1.5621
   8923SM   H5G11977   7.268   1.508   3.661 -1.0964  1.1002 -0.8647
   8923SM   C6F11978   7.262   1.495   3.871 -0.1196 -0.3153  0.9212
   8923SM   H6F11979   7.190   1.528   3.948  0.1368  1.5099  0.4480
   8923SM   H6G11980   7.363   1.532   3.899 -0.4273 -0.2085  1.9114
   8923SM   C7F11981   7.260   1.342   3.862  0.4631  0.5058 -0.1979
   8923SM   H7F11982   7.302   1.316   3.962 -0.3125  0.5952  0.1655
   8923SM   H7G11983   7.320   1.303   3.778 -1.2651 -2.1829 -0.3102
   8923SM   C8F11984   7.115   1.268   3.855  0.0279 -0.7612 -0.7468
   8923SM   H8F11985   7.078   1.284   3.752 -3.4141 -1.0646  0.3303
   8923SM   H8G11986   7.041   1.316   3.922  1.7142 -1.1874  1.5602
   8923SM   C9F11987   7.129   1.125   3.895  0.5471 -0.0903  0.8472
   8923SM   H9F11988   7.169   1.116   3.998  0.3014  0.5959  1.0072
   8923SM   H9G11989   7.208   1.087   3.827  0.4366 -0.5545  0.9779
   8923SM  C10F11990   6.997   1.051   3.875  0.1575  0.2117  0.2177
   8923SM  H10F11991   6.942   1.091   3.787  1.9438 -1.4267 -1.7581
   8923SM  H10G11992   6.941   1.056   3.971  0.2940  1.4540  0.2430
   8923SM  C11F11993   7.017   0.906   3.838 -0.9764 -0.5552 -1.1930
   8923SM  H11F11994   7.052   0.847   3.924  0.6006 -0.6486 -1.8751
   8923SM  H11G11995   7.096   0.891   3.761  0.1440 -0.2896 -0.1225
   8923SM  C12F11996   6.893   0.845   3.774 -0.3033 -0.1084 -0.0173
   8923SM  H12F11997   6.877   0.919   3.692  1.1352  0.6264  0.3285
   8923SM  H12G11998   6.802   0.840   3.837 -1.3758 -0.5557 -1.5319
   8923SM  C13F11999   6.917   0.709   3.715  0.2075 -0.6017 -0.2329
   8923SM  H13F12000   6.991   0.723   3.634 -1.9037 -1.3070 -2.4068
   8923SM  H13G12001   6.819   0.677   3.674  0.0111  0.3281 -0.5047
   8923SM  C14F12002   6.977   0.600   3.810  0.3985 -0.1176 -0.4414
   8923SM  H14F12003   6.897   0.594   3.886  0.5023  0.9446 -0.2278
   8923SM  H14G12004   7.069   0.636   3.862 -0.1586  0.2647  0.2893
   8923SM  C15F12005   7.021   0.463   3.751 -0.4953 -0.6699  0.5274
   8923SM  H15F12006   7.082   0.489   3.662  0.0437 -1.6133  0.6125
   8923SM  H15G12007   6.933   0.408   3.710 -0.2180 -0.0874 -0.9200
   8923SM  C16F12008   7.096   0.372   3.849 -0.5569  0.5460  0.5296
   8923SM  H16F12009   7.195   0.417   3.873 -0.2276  0.3206 -0.3629
   8923SM  H16G12010   7.130   0.282   3.795  1.9375  1.0416  1.1529
   8923SM  C17F12011   7.029   0.335   3.975 -0.3033 -0.9665  0.0193
   8923SM  H17F12012   6.925   0.304   3.949 -0.3434  0.0806 -1.1257
   8923SM  H17G12013   7.021   0.425   4.040 -0.6262 -2.2428  1.8130
   8923SM  C18F12014   7.079   0.213   4.060 -0.2014  0.5261 -0.4910
   8923SM  H18F12015   7.084   0.131   3.986 -1.5463  2.2237 -2.5677
   8923SM  H18G12016   7.002   0.182   4.134 -0.2268 -1.0065 -1.1187
   8923SM  C19F12017   7.215   0.231   4.128  0.3505 -0.6954  0.3650
   8923SM  H19F12018   7.203   0.304   4.211  0.8669  0.7623 -0.8016
   8923SM  H19G12019   7.283   0.287   4.060 -2.3765  2.9846  0.3404
   8923SM  C20F12020   7.273   0.108   4.213  0.0534 -0.0518  0.0994
   8923SM  H20F12021   7.353   0.161   4.269 -1.4449  2.5999 -0.1131
   8923SM  H20G12022   7.311   0.034   4.139 -0.4555 -0.1425 -0.0732
   8923SM  C21F12023   7.177   0.046   4.309 -0.0659 -0.5727 -0.7535
   8923SM  H21F12024   7.102  -0.010   4.248 -1.2218 -0.4095  0.4605
   8923SM  H21G12025   7.135   0.133   4.363  3.4702  1.1535 -0.5433
   8923SM  C22F12026   7.246  -0.043   4.417 -0.1027 -0.2215 -0.1891
   8923SM  H22F12027   7.168  -0.091   4.481 -0.6485 -2.1772 -2.2160
   8923SM  H22G12028   7.315   0.025   4.472 -1.1992 -1.1581  2.5161
   8923SM  C23F12029   7.339  -0.148   4.353 -0.1989 -0.3490  0.1565
   8923SM  H23F12030   7.292  -0.205   4.270 -0.5075 -1.2197  0.9183
   8923SM  H23G12031   7.355  -0.220   4.436 -0.8321 -0.3987  0.2358
   8923SM  H23H12032   7.438  -0.100   4.335  0.8360 -0.9313  3.6133
   9023SM     N12033   6.914   1.438   3.022 -0.4020 -0.0054  0.1462
   9023SM   C1512034   6.992   1.353   2.922 -0.2065 -0.0335 -0.6711
   9023SM  H15A12035   7.014   1.258   2.968  1.1444  0.5231 -0.0897
   9023SM  H15B12036   7.088   1.399   2.902  0.4238 -0.8852  0.2791
   9023SM  H15C12037   6.935   1.336   2.832 -0.2902  0.5902 -0.7427
   9023SM   C1412038   7.015   1.508   3.119  0.8447  0.2013  0.9347
   9023SM  H14A12039   7.064   1.439   3.187 -1.3026 -3.0410 -0.5092
   9023SM  H14B12040   6.955   1.585   3.164  2.9112  2.9911 -0.7571
   9023SM  H14C12041   7.082   1.569   3.061 -0.7456  0.4519 -0.7469
   9023SM   C1312042   6.844   1.546   2.942 -0.6595 -0.8093 -0.0986
   9023SM  H13A12043   6.765   1.504   2.882 -0.2351 -0.9135 -0.5878
   9023SM  H13B12044   6.908   1.598   2.872 -1.3416 -0.8160 -0.7402
   9023SM  H13C12045   6.805   1.607   3.022 -0.1005 -1.8899  1.0333
   9023SM   C1212046   6.816   1.344   3.094 -0.3280 -0.7725  0.1481
   9023SM  H12A12047   6.878   1.264   3.133  1.1301  0.3069  0.1206
   9023SM  H12B12048   6.738   1.303   3.032 -1.1423 -0.5350  0.9996
   9023SM   C1112049   6.734   1.408   3.209  0.0663 -0.2783 -0.1093
   9023SM  H11A12050   6.797   1.446   3.292 -0.2245  1.5563 -0.6873
   9023SM  H11B12051   6.663   1.328   3.240 -2.1149  1.5623  0.0039
   9023SM     P12052   6.520   1.494   3.079  0.2786  0.3320 -0.0735
   9023SM   O1312053   6.481   1.616   3.013  0.2255 -0.2964  0.4584
   9023SM   O1412054   6.550   1.377   2.989  0.4103 -0.0816 -0.2631
   9023SM   O1112055   6.411   1.443   3.183  0.1864 -0.1110 -0.1860
   9023SM   O1212056   6.651   1.516   3.163 -0.1403  0.0497  0.6206
   9023SM   C1S12057   6.426   1.438   3.321 -0.4832 -0.4217  0.0128
   9023SM   H1S12058   6.526   1.432   3.369 -0.8552 -1.4959  0.6733
   9023SM   H1T12059   6.390   1.338   3.351  0.5261 -0.7783  0.0882
   9023SM    NF12060   6.395   1.558   3.545  0.0903 -0.2008 -0.4889
   9023SM   HNF12061   6.317   1.527   3.598  1.1448 -0.7393  0.7928
   9023SM   C2S12062   6.368   1.563   3.401  0.0251 -0.0081 -0.2808
   9023SM   H2S12063   6.425   1.655   3.376  0.0333 -0.0287 -0.3395
   9023SM   C3S12064   6.215   1.577   3.363  0.8089 -0.1926 -0.0833
   9023SM   H3S12065   6.154   1.498   3.412 -0.3097  0.7305  0.0634
   9023SM    O312066   6.182   1.577   3.226  0.2305 -0.5304  0.7836
   9023SM   HO312067   6.262   1.578   3.173 -0.5877  2.3135 -0.6058
   9023SM   C4S12068   6.164   1.707   3.424  1.1315  0.4898 -0.2341
   9023SM   H4S12069   6.084   1.697   3.499  1.8628 -0.1450  0.4877
   9023SM   C5S12070   6.182   1.835   3.385 -0.5756  0.2931 -0.4868
   9023SM   H5S12071   6.251   1.854   3.301 -1.5996 -0.8044 -1.6236
   9023SM   C6S12072   6.113   1.953   3.448  0.6392  0.4308 -0.9605
   9023SM   H6S12073   6.014   1.964   3.399  0.7130  3.9331 -0.5760
   9023SM   H6T12074   6.163   2.051   3.429  1.7693  0.0933  0.1318
   9023SM   C7S12075   6.096   1.946   3.605 -0.3235 -0.1394  0.2864
   9023SM   H7S12076   6.196   1.962   3.651 -0.6881  0.0893  1.0158
   9023SM   H7T12077   6.051   1.851   3.641  3.0391 -2.1074 -0.2472
   9023SM   C8S12078   5.997   2.057   3.645  0.0635  0.2316  0.3816
   9023SM   H8S12079   5.898   2.020   3.613  0.0314 -0.2733  1.0404
   9023SM   H8T12080   6.026   2.152   3.596 -1.2014  0.0837 -0.6935
   9023SM   C9S12081   5.997   2.082   3.790  0.1846 -0.8237  0.5969
   9023SM   H9S12082   6.099   2.120   3.808 -0.0791 -0.1390  0.6730
   9023SM   H9T12083   5.975   1.993   3.854 -0.4572  2.0594  4.7795
   9023SM  C10S12084   5.916   2.210   3.834  0.4689 -0.5859  0.1585
   9023SM  H10S12085   5.814   2.173   3.858 -0.0734  0.9135  0.3307
   9023SM  H10T12086   5.906   2.277   3.746 -1.8075  2.6855  2.6632
   9023SM  C11S12087   5.968   2.283   3.964 -0.0202 -0.3568  0.7040
   9023SM  H11S12088   5.904   2.365   4.002 -1.1216 -0.8930  0.0625
   9023SM  H11T12089   6.059   2.330   3.921 -1.4199  3.6285  1.6568
   9023SM  C12S12090   6.020   2.195   4.080  0.0516 -0.0944 -0.5771
   9023SM  H12S12091   6.067   2.260   4.157 -0.5096 -1.3388  0.8706
   9023SM  H12T12092   6.094   2.120   4.043  0.5698 -0.6276  1.4255
   9023SM  C13S12093   5.905   2.116   4.148  0.3619  0.3630 -0.2999
   9023SM  H13S12094   5.843   2.073   4.067 -0.0486 -0.0520  0.2229
   9023SM  H13T12095   5.835   2.179   4.206 -0.1152 -1.4976  1.2668
   9023SM  C14S12096   5.960   2.020   4.250 -0.4063 -0.1878  0.1622
   9023SM  H14S12097   6.029   1.953   4.195 -0.6857 -0.7876  0.5320
   9023SM  H14T12098   5.886   1.952   4.298  0.5779 -1.3489  0.0702
   9023SM  C15S12099   6.026   2.099   4.371 -0.4305  0.2502  0.3560
   9023SM  H15S12100   5.955   2.161   4.431  0.2165  0.2122  1.1826
   9023SM  H15T12101   6.101   2.169   4.331 -0.1520 -0.1880  0.1026
   9023SM  C16S12102   6.097   1.993   4.465  0.6342  0.2350 -0.2659
   9023SM  H16S12103   6.187   1.946   4.420 -0.4797 -1.4767 -0.8248
   9023SM  H16T12104   6.016   1.922   4.492  0.1193  1.2232  0.8335
   9023SM  C17S12105   6.148   2.054   4.599 -0.2836 -0.1731  0.5123
   9023SM  H17S12106   6.068   2.114   4.648  1.1432  0.5867  2.0282
   9023SM  H17T12107   6.227   2.130   4.577 -0.8796  0.6006  0.9743
   9023SM  C18S12108   6.209   1.950   4.690 -0.2750  0.5805  0.1309
   9023SM  H18S12109   6.290   1.905   4.628 -1.9957  0.3196 -2.0405
   9023SM  H18T12110   6.140   1.874   4.733  1.4524  0.8909  3.8233
   9023SM  H18U12111   6.260   1.998   4.776 -0.6153  0.8130  0.2040
   9023SM   C1F12112   6.511   1.581   3.612 -0.8694 -0.2850  0.3751
   9023SM    OF12113   6.617   1.615   3.549 -0.1877  0.4174 -0.2183
   9023SM   C2F12114   6.514   1.573   3.763 -0.2023 -1.2171 -0.4231
   9023SM   H2F12115   6.420   1.523   3.792 -0.7982  0.4426  0.6249
   9023SM   H2G12116   6.512   1.673   3.812 -0.7120 -0.7607 -1.3524
   9023SM   C3F12117   6.630   1.484   3.815 -0.1603 -0.3902  0.6879
   9023SM   H3F12118   6.728   1.533   3.793 -0.0171 -1.4185 -1.1818
   9023SM   H3G12119   6.636   1.389   3.757  0.0271 -0.9087  1.5445
   9023SM   C4F12120   6.609   1.440   3.957 -0.0042  0.0214 -0.1439
   9023SM   H4F12121   6.518   1.378   3.969 -0.0505  0.4783  2.4621
   9023SM   H4G12122   6.593   1.529   4.022  0.7694 -0.1296  0.2669
   9023SM   C5F12123   6.731   1.356   4.003 -0.6807 -0.3157 -0.4931
   9023SM   H5F12124   6.826   1.412   3.989 -2.3690  2.7835 -0.6594
   9023SM   H5G12125   6.737   1.260   3.948  1.4357  0.4983 -1.8266
   9023SM   C6F12126   6.709   1.312   4.153 -0.3897  1.7278 -0.1333
   9023SM   H6F12127   6.618   1.249   4.140 -0.6537  1.6899  1.6496
   9023SM   H6G12128   6.688   1.390   4.230 -1.5231 -0.0999  1.5082
   9023SM   C7F12129   6.828   1.226   4.197  0.1310 -0.1888  0.5115
   9023SM   H7F12130   6.854   1.137   4.135  1.7271  0.0265  0.8132
   9023SM   H7G12131   6.803   1.185   4.297 -0.8253 -1.7959 -0.3344
   9023SM   C8F12132   6.955   1.299   4.220  0.0277 -0.5156 -0.0611
   9023SM   H8F12133   6.935   1.382   4.291 -0.3258  1.0897 -1.9577
   9023SM   H8G12134   6.994   1.341   4.125 -0.6957 -2.6757 -1.3784
   9023SM   C9F12135   7.069   1.205   4.271 -0.5651 -0.1457  0.6616
   9023SM   H9F12136   7.092   1.123   4.200  0.6117  1.4812 -0.9213
   9023SM   H9G12137   7.039   1.154   4.365 -1.0109 -0.6143  0.2614
   9023SM  C10F12138   7.198   1.285   4.301 -0.6073 -0.6652  0.1563
   9023SM  H10F12139   7.165   1.385   4.337 -1.8536 -1.1823  0.5324
   9023SM  H10G12140   7.263   1.291   4.211 -0.1650  3.0245  0.5772
   9023SM  C11F12141   7.294   1.229   4.409 -0.1473 -0.0527 -0.0359
   9023SM  H11F12142   7.275   1.262   4.513 -0.6905  0.1489 -0.1950
   9023SM  H11G12143   7.396   1.271   4.403  0.6790 -2.1080 -1.6437
   9023SM  C12F12144   7.310   1.083   4.411 -0.2200 -0.1696  0.2472
   9023SM  H12F12145   7.354   1.035   4.321  0.9694  1.4267 -0.0839
   9023SM  H12G12146   7.205   1.049   4.425 -0.7273  0.4354 -1.7322
   9023SM  C13F12147   7.397   1.046   4.533  0.0202 -0.0836 -0.0212
   9023SM  H13F12148   7.480   1.117   4.556  0.9103 -0.6815 -1.2609
   9023SM  H13G12149   7.441   0.949   4.500  2.6255  0.6756  0.9487
   9023SM  C14F12150   7.324   1.026   4.669 -0.1115  0.1770 -0.4265
   9023SM  H14F12151   7.240   0.953   4.668  1.7705 -2.0985 -1.7145
   9023SM  H14G12152   7.281   1.120   4.710  0.4237  0.1601  0.1981
   9023SM  C15F12153   7.418   0.952   4.766 -0.5047  1.5185 -0.5302
   9023SM  H15F12154   7.510   1.011   4.789  1.6387 -2.7249  3.7213
   9023SM  H15G12155   7.446   0.860   4.710 -0.0544  1.2542  0.1094
   9023SM  C16F12156   7.356   0.917   4.901 -0.6014 -0.0991 -0.1230
   9023SM  H16F12157   7.432   0.863   4.962 -1.4214 -2.3708 -1.0001
   9023SM  H16G12158   7.282   0.840   4.872  1.1863 -1.8400 -0.2550
   9023SM  C17F12159   7.290   1.032   4.970 -0.1236 -0.7538 -0.1299
   9023SM  H17F12160   7.350   1.124   4.953 -0.3293 -0.6007 -0.0383
   9023SM  H17G12161   7.313   1.020   5.078  2.0546  0.8275 -0.3374
   9023SM  C18F12162   7.140   1.057   4.953  0.3216 -0.3084 -0.5555
   9023SM  H18F12163   7.067   0.986   4.997  0.5759 -0.2205  0.0069
   9023SM  H18G12164   7.120   1.051   4.843  2.8678 -1.4777 -1.0084
   9023SM  C19F12165   7.087   1.193   5.011 -0.1056 -0.3021  0.3379
   9023SM  H19F12166   7.145   1.282   4.976 -0.4671 -0.4841 -0.7459
   9023SM  H19G12167   7.104   1.183   5.121  2.6406 -2.6222 -0.1794
   9023SM  C20F12168   6.941   1.216   4.959 -0.4944 -0.3010 -0.5548
   9023SM  H20F12169   6.902   1.305   5.013 -0.6551 -0.3440 -0.5991
   9023SM  H20G12170   6.879   1.130   4.989 -4.1861  1.3097 -2.8800
   9023SM  C21F12171   6.931   1.233   4.812  0.3074 -0.5942  0.6441
   9023SM  H21F12172   6.824   1.257   4.797  0.4831 -0.3986 -0.3618
   9023SM  H21G12173   6.941   1.135   4.761 -1.9685 -0.3445 -0.3963
   9023SM  C22F12174   7.007   1.344   4.735 -0.0428 -0.3323  0.6168
   9023SM  H22F12175   7.107   1.297   4.736 -0.2315 -1.0200 -2.2679
   9023SM  H22G12176   7.008   1.439   4.793 -1.3280 -0.4245  0.8207
   9023SM  C23F12177   6.953   1.351   4.589  0.1951 -0.6633 -0.2951
   9023SM  H23F12178   7.010   1.425   4.531 -1.0765  0.6905  0.1273
   9023SM  H23G12179   6.843   1.369   4.594 -0.1143 -2.6218  2.3005
   9023SM  H23H12180   6.951   1.252   4.538 -2.9753  0.6835 -3.2033
   9123SM     N12181   7.426   3.863   2.862  0.2103  0.3932  0.4451
   9123SM   C1512182   7.534   3.794   2.781  0.7471  0.1693  0.1378
   9123SM  H15A12183   7.529   3.688   2.800  2.7566 -0.0648 -0.3388
   9123SM  H15B12184   7.633   3.832   2.802  1.8467 -1.9907 -0.8131
   9123SM  H15C12185   7.515   3.801   2.675  1.1300 -0.7732 -0.0017
   9123SM   C1412186   7.450   3.857   3.003  0.5406  0.1329 -0.3573
   9123SM  H14A12187   7.524   3.932   3.030  2.7818 -1.2153 -2.3526
   9123SM  H14B12188   7.484   3.757   3.027  0.8814  0.3290 -0.0017
   9123SM  H14C12189   7.361   3.879   3.059  0.0639  0.8014 -1.3590
   9123SM   C1312190   7.416   4.001   2.814  0.9960 -0.7913  0.1404
   9123SM  H13A12191   7.426   4.020   2.708  2.5329 -0.2757  0.3505
   9123SM  H13B12192   7.499   4.058   2.854  1.3971 -2.4300  1.8284
   9123SM  H13C12193   7.327   4.048   2.852  2.2236  0.8422  1.1169
   9123SM   C1212194   7.287   3.799   2.833 -1.0910 -0.0911 -0.4683
   9123SM  H12A12195   7.295   3.692   2.848 -0.9126  0.0639  0.5654
   9123SM  H12B12196   7.269   3.803   2.726 -1.9684 -2.5753 -0.4826
   9123SM   C1112197   7.170   3.842   2.922  0.7016 -0.6094 -0.0679
   9123SM  H11A12198   7.080   3.809   2.866  0.9482  0.0627 -0.8725
   9123SM  H11B12199   7.165   3.953   2.929 -0.6084 -0.6200 -0.5454
   9123SM     P12200   7.158   3.611   3.067 -0.3566 -0.3910 -0.0473
   9123SM   O1312201   7.058   3.565   2.972  0.0536 -0.0846 -0.3224
   9123SM   O1412202   7.292   3.554   3.055  0.2346 -0.2407 -0.0959
   9123SM   O1112203   7.102   3.585   3.210 -0.1547  0.5038 -0.0100
   9123SM   O1212204   7.176   3.776   3.051  0.3628 -0.1449  0.4224
   9123SM   C1S12205   7.186   3.631   3.320 -0.4189 -0.1844 -0.0176
   9123SM   H1S12206   7.217   3.737   3.310 -0.1236 -0.2494  0.1832
   9123SM   H1T12207   7.277   3.569   3.337  0.9702  1.8714  0.4436
   9123SM    NF12208   7.177   3.704   3.559  0.2760  0.1315 -1.1222
   9123SM   HNF12209   7.247   3.658   3.614 -0.0867  0.3600 -0.4609
   9123SM   C2S12210   7.112   3.622   3.454 -0.0865 -0.3896  0.7318
   9123SM   H2S12211   7.010   3.662   3.437 -0.0301 -0.6662 -0.3171
   9123SM   C3S12212   7.088   3.475   3.495 -0.2335 -0.3395  0.3334
   9123SM   H3S12213   7.184   3.450   3.546  0.9746 -1.0731 -2.1534
   9123SM    O312214   7.080   3.384   3.386  0.7088  0.3955 -0.3303
   9123SM   HO312215   7.098   3.442   3.311 -2.7630  2.0034 -0.0949
   9123SM   C4S12216   6.971   3.471   3.592  0.1181  0.2793 -0.0623
   9123SM   H4S12217   6.989   3.476   3.701 -1.0579 -4.2214  0.5121
   9123SM   C5S12218   6.840   3.464   3.559 -0.3203  0.5975 -0.0334
   9123SM   H5S12219   6.808   3.441   3.457 -0.5953 -0.9244  0.3668
   9123SM   C6S12220   6.716   3.463   3.641  0.4932 -0.4069  0.6976
   9123SM   H6S12221   6.655   3.373   3.619 -0.1339 -0.2899  1.8485
   9123SM   H6T12222   6.641   3.538   3.607  1.0237 -0.9566 -1.9316
   9123SM   C7S12223   6.736   3.465   3.796 -0.4774  0.0531  0.1230
   9123SM   H7S12224   6.792   3.559   3.813 -0.1949  0.1387 -1.1451
   9123SM   H7T12225   6.807   3.391   3.839  0.4540  0.8489 -0.0061
   9123SM   C8S12226   6.603   3.468   3.874 -0.9794 -0.4271  0.7782
   9123SM   H8S12227   6.531   3.398   3.826  1.0768 -3.1177  1.4025
   9123SM   H8T12228   6.565   3.572   3.867  0.4789  0.1405  0.9403
   9123SM   C9S12229   6.620   3.433   4.018  0.1718  0.2764 -0.2948
   9123SM   H9S12230   6.707   3.490   4.058  1.0084  0.1605 -1.9026
   9123SM   H9T12231   6.638   3.324   4.029 -1.1050  0.0983  0.2405
   9123SM  C10S12232   6.504   3.471   4.117  0.4035 -0.5676  0.4454
   9123SM  H10S12233   6.422   3.398   4.102  0.0192  0.2001 -1.4935
   9123SM  H10T12234   6.464   3.572   4.091  0.5592 -0.8338 -0.9512
   9123SM  C11S12235   6.552   3.457   4.264  0.3214 -0.8300  0.5953
   9123SM  H11S12236   6.638   3.521   4.296 -0.2114  0.0571  0.2818
   9123SM  H11T12237   6.596   3.355   4.270  2.1843  0.0169  3.9788
   9123SM  C12S12238   6.432   3.474   4.357  0.5264 -0.6429  0.2790
   9123SM  H12S12239   6.346   3.425   4.308 -0.1510 -0.6422  1.4189
   9123SM  H12T12240   6.408   3.581   4.377  1.9908 -0.2466  0.0397
   9123SM  C13S12241   6.454   3.408   4.493 -0.2994  0.3438  0.4307
   9123SM  H13S12242   6.540   3.447   4.551  0.0633 -3.2156  2.5705
   9123SM  H13T12243   6.491   3.308   4.465 -0.4999  0.0629  1.1431
   9123SM  C14S12244   6.326   3.384   4.579  0.2430  0.1911 -0.3917
   9123SM  H14S12245   6.348   3.331   4.675 -1.0288  0.4880  0.0856
   9123SM  H14T12246   6.256   3.326   4.516 -0.4182  1.8158 -1.1979
   9123SM  C15S12247   6.257   3.522   4.629 -0.3387  0.2998  1.1037
   9123SM  H15S12248   6.150   3.493   4.639 -0.5546  0.2704 -0.8209
   9123SM  H15T12249   6.261   3.596   4.547 -0.7174 -0.0108  0.7995
   9123SM  C16S12250   6.302   3.566   4.766 -0.1585 -0.4784  0.5566
   9123SM  H16S12251   6.413   3.576   4.766 -0.0973 -0.4443 -1.9203
   9123SM  H16T12252   6.289   3.486   4.842  1.6784  1.1282  2.7006
   9123SM  C17S12253   6.248   3.699   4.824 -0.0477  1.2831 -0.0442
   9123SM  H17S12254   6.137   3.702   4.828 -0.0460  1.5078 -0.1279
   9123SM  H17T12255   6.276   3.784   4.758 -0.3900  2.3875  1.1851
   9123SM  C18S12256   6.310   3.725   4.962 -0.1681  0.0671 -0.2265
   9123SM  H18S12257   6.301   3.637   5.030  2.9858 -0.8265 -0.7742
   9123SM  H18T12258   6.270   3.812   5.019 -0.5302 -0.7026  0.7303
   9123SM  H18U12259   6.418   3.752   4.958 -0.2940  0.6584  0.2430
   9123SM   C1F12260   7.171   3.836   3.555  0.3619 -0.4404  0.2931
   9123SM    OF12261   7.092   3.889   3.480  0.6682 -0.3768  0.2976
   9123SM   C2F12262   7.273   3.917   3.634  0.1913  0.1678  0.5381
   9123SM   H2F12263   7.376   3.879   3.612  1.1122  1.6959  1.9915
   9123SM   H2G12264   7.258   3.896   3.742  0.3897  0.6993  0.6729
   9123SM   C3F12265   7.267   4.070   3.615 -0.2060 -0.1369 -0.3857
   9123SM   H3F12266   7.162   4.096   3.640 -1.4813 -4.1218 -0.9981
   9123SM   H3G12267   7.306   4.093   3.513  0.8013  1.9500  0.4088
   9123SM   C4F12268   7.355   4.150   3.719  0.5057 -0.3034  0.5985
   9123SM   H4F12269   7.464   4.132   3.715  0.5113 -0.1112 -0.1911
   9123SM   H4G12270   7.316   4.136   3.822  0.7560 -0.4974  0.6688
   9123SM   C5F12271   7.352   4.296   3.679  0.2868 -0.3695 -0.6157
   9123SM   H5F12272   7.251   4.341   3.669  0.6139  0.2839 -1.0375
   9123SM   H5G12273   7.404   4.315   3.583  1.0381  1.9671  0.1936
   9123SM   C6F12274   7.423   4.384   3.791  0.2883 -0.0519  0.7850
   9123SM   H6F12275   7.382   4.365   3.892  1.8042 -1.6262  1.1365
   9123SM   H6G12276   7.407   4.490   3.760  1.6756  0.2457  1.0428
   9123SM   C7F12277   7.576   4.358   3.798  0.4496  0.8476 -0.5507
   9123SM   H7F12278   7.614   4.359   3.694  0.2205 -1.8429 -0.7504
   9123SM   H7G12279   7.596   4.251   3.824  0.8895  0.7320 -1.3340
   9123SM   C8F12280   7.647   4.446   3.901  0.1176  0.0531  0.8519
   9123SM   H8F12281   7.658   4.557   3.893  1.5743  0.0612  2.3510
   9123SM   H8G12282   7.748   4.399   3.910  0.0052 -0.6687 -1.2109
   9123SM   C9F12283   7.580   4.430   4.037 -0.3058 -0.3475 -1.2195
   9123SM   H9F12284   7.533   4.329   4.040 -0.9251 -0.0425  1.3274
   9123SM   H9G12285   7.493   4.497   4.052 -0.9278 -1.2394 -0.7270
   9123SM  C10F12286   7.670   4.427   4.162  0.2480 -0.1367 -0.3555
   9123SM  H10F12287   7.704   4.531   4.182 -0.6101 -0.2232  1.8017
   9123SM  H10G12288   7.764   4.368   4.150  2.1195  1.8740  2.7249
   9123SM  C11F12289   7.608   4.367   4.285  0.5672 -0.7853  0.0163
   9123SM  H11F12290   7.543   4.284   4.248 -0.7890  1.1650 -2.2444
   9123SM  H11G12291   7.547   4.447   4.331  3.0811  0.3306  1.6654
   9123SM  C12F12292   7.704   4.306   4.394  0.4594  0.2699  0.4289
   9123SM  H12F12293   7.788   4.375   4.416 -0.4501  1.7482 -0.5870
   9123SM  H12G12294   7.755   4.220   4.345 -1.9904 -0.5882 -0.7872
   9123SM  C13F12295   7.645   4.247   4.524 -0.4122  0.4638 -0.2981
   9123SM  H13F12296   7.717   4.196   4.591 -2.7620 -0.7821  1.4300
   9123SM  H13G12297   7.561   4.182   4.490  0.3296 -0.4197 -0.4489
   9123SM  C14F12298   7.578   4.357   4.614  0.0864  0.0037 -0.1107
   9123SM  H14F12299   7.511   4.420   4.552 -0.7718 -1.0335 -0.2594
   9123SM  H14G12300   7.660   4.418   4.657 -0.0010 -0.9927  1.5457
   9123SM  C15F12301   7.481   4.299   4.719  0.2362  0.2977 -0.3587
   9123SM  H15F12302   7.543   4.215   4.759  2.4440  1.4857 -1.0875
   9123SM  H15G12303   7.396   4.263   4.658  0.0103  2.3010 -1.2933
   9123SM  C16F12304   7.435   4.398   4.832 -0.1935  0.6595 -0.1063
   9123SM  H16F12305   7.350   4.465   4.805 -1.3000 -0.6906 -0.1133
   9123SM  H16G12306   7.518   4.450   4.884 -0.0389  0.7365 -0.4288
   9123SM  C17F12307   7.374   4.305   4.946  0.3182  0.0645 -0.5700
   9123SM  H17F12308   7.440   4.220   4.973  1.3876  1.2762  0.8375
   9123SM  H17G12309   7.285   4.266   4.893 -1.0937  1.2658  0.8190
   9123SM  C18F12310   7.344   4.388   5.068 -0.0170 -1.1265 -0.0838
   9123SM  H18F12311   7.287   4.478   5.035  0.6563 -0.2996  0.9388
   9123SM  H18G12312   7.436   4.421   5.120  2.7426 -2.3105 -3.7804
   9123SM  C19F12313   7.252   4.308   5.165  0.8510 -0.1017 -0.0577
   9123SM  H19F12314   7.164   4.285   5.101  0.3403 -2.3216  1.3485
   9123SM  H19G12315   7.216   4.373   5.247 -1.3112 -0.5247 -0.6071
   9123SM  C20F12316   7.299   4.168   5.218  0.3602  0.1983 -0.2186
   9123SM  H20F12317   7.323   4.098   5.135  0.6002  0.4087 -0.3255
   9123SM  H20G12318   7.208   4.134   5.272  0.2379 -1.0916 -1.1932
   9123SM  C21F12319   7.409   4.175   5.321  0.0657  0.3429  0.0770
   9123SM  H21F12320   7.379   4.254   5.394 -1.8521 -0.3081  0.0571
   9123SM  H21G12321   7.500   4.201   5.263  0.9990  0.2662  1.4415
   9123SM  C22F12322   7.438   4.043   5.394  0.4098  0.0545  0.6888
   9123SM  H22F12323   7.353   4.032   5.465  1.4484  0.2606  2.0210
   9123SM  H22G12324   7.529   4.053   5.457  0.5139  1.0349  0.3904
   9123SM  C23F12325   7.448   3.921   5.303  0.5250 -0.1054 -0.1009
   9123SM  H23F12326   7.511   3.950   5.217  0.7430  0.4653  0.2479
   9123SM  H23G12327   7.351   3.885   5.261 -0.0756  2.2885 -0.8800
   9123SM  H23H12328   7.493   3.833   5.354  1.9662 -0.4324 -1.8299
   9223SM     N12329   5.051   3.492   2.697 -0.1519  0.0211 -0.6970
   9223SM   C1512330   5.104   3.617   2.635  0.1131 -0.3313 -0.0886
   9223SM  H15A12331   5.060   3.708   2.673  2.2541  1.0791 -0.8210
   9223SM  H15B12332   5.086   3.625   2.529  0.1339  1.3560  0.0059
   9223SM  H15C12333   5.208   3.620   2.665  0.6917  1.7336 -2.0378
   9223SM   C1412334   4.901   3.495   2.670 -0.1591 -0.5195 -0.0482
   9223SM  H14A12335   4.844   3.565   2.729 -1.0454 -1.2457 -0.0201
   9223SM  H14B12336   4.861   3.401   2.704 -0.3576  0.1436  1.6144
   9223SM  H14C12337   4.881   3.515   2.566  0.1677  0.5138  0.0815
   9223SM   C1312338   5.099   3.372   2.626  0.6982  0.0676  0.0860
   9223SM  H13A12339   5.044   3.282   2.651 -1.1046  1.4774  1.3741
   9223SM  H13B12340   5.199   3.348   2.659  0.1786 -3.2842 -0.3667
   9223SM  H13C12341   5.097   3.383   2.519  1.3108 -1.1999 -0.0848
   9223SM   C1212342   5.088   3.493   2.849 -0.1230 -0.5649  0.4174
   9223SM  H12A12343   5.055   3.588   2.891  2.0707  0.1214  0.7037
   9223SM  H12B12344   5.195   3.502   2.863 -0.4478  2.0500  1.9719
   9223SM   C1112345   5.042   3.377   2.948  0.8720  0.4022 -0.0371
   9223SM  H11A12346   4.931   3.367   2.950  0.9948 -1.1297  1.3877
   9223SM  H11B12347   5.076   3.410   3.048  0.6468 -1.3890  0.6658
   9223SM     P12348   5.027   3.126   2.875  0.0299 -0.3875  0.4496
   9223SM   O1312349   4.918   3.161   2.778  0.0420  0.7836 -0.0099
   9223SM   O1412350   5.116   3.022   2.827  0.4250 -0.6100 -0.2899
   9223SM   O1112351   4.963   3.094   3.011  0.0200 -0.3707 -0.0313
   9223SM   O1212352   5.103   3.256   2.910  0.1054 -0.1880  0.4530
   9223SM   C1S12353   5.052   3.076   3.127 -0.0869 -0.5698 -0.1971
   9223SM   H1S12354   5.150   3.126   3.125  0.3216 -1.3373  0.1611
   9223SM   H1T12355   5.073   2.968   3.143  0.7938 -0.2080  1.1549
   9223SM    NF12356   5.078   3.078   3.372  0.0312  0.7941 -0.2739
   9223SM   HNF12357   5.067   2.990   3.418 -0.5469  0.8666 -0.2662
   9223SM   C2S12358   4.990   3.115   3.262 -0.0790 -0.2401 -0.5321
   9223SM   H2S12359   4.988   3.226   3.268  0.7120 -0.2434  0.0212
   9223SM   C3S12360   4.846   3.056   3.279 -0.1810  0.3171  0.4576
   9223SM   H3S12361   4.866   2.947   3.290 -1.3597  0.0363 -0.1094
   9223SM    O312362   4.759   3.066   3.166  0.4484 -0.3836 -0.1832
   9223SM   HO312363   4.816   3.100   3.096  1.0595  0.8275  0.8576
   9223SM   C4S12364   4.777   3.104   3.406 -0.8050 -0.3080  0.5673
   9223SM   H4S12365   4.780   3.028   3.486  2.8788 -3.7212 -2.3909
   9223SM   C5S12366   4.719   3.220   3.419 -0.3525 -0.8798  1.0998
   9223SM   H5S12367   4.731   3.293   3.338  0.8989  0.1694  2.1864
   9223SM   C6S12368   4.657   3.273   3.550  0.1159 -0.0777 -0.0498
   9223SM   H6S12369   4.559   3.320   3.529  1.1506  1.9004 -0.7381
   9223SM   H6T12370   4.719   3.359   3.586 -2.6210  1.8870  0.2754
   9223SM   C7S12371   4.633   3.169   3.659 -0.1460  0.6437 -0.1728
   9223SM   H7S12372   4.716   3.096   3.674 -0.2459  0.3484 -1.0197
   9223SM   H7T12373   4.552   3.105   3.618  0.8811 -0.1793 -0.9703
   9223SM   C8S12374   4.606   3.239   3.792  0.0273 -0.1664 -0.1583
   9223SM   H8S12375   4.520   3.308   3.778  0.9776  1.1895  0.4881
   9223SM   H8T12376   4.689   3.307   3.821 -1.3902  1.3792  0.4386
   9223SM   C9S12377   4.589   3.148   3.916 -0.2414 -0.5648 -0.4176
   9223SM   H9S12378   4.691   3.117   3.946 -0.4617  0.1184  1.1199
   9223SM   H9T12379   4.536   3.065   3.864 -1.2694  1.1103 -2.1876
   9223SM  C10S12380   4.497   3.193   4.028 -0.9348 -0.4228  0.5937
   9223SM  H10S12381   4.415   3.233   3.964  1.1468  1.4029 -1.0893
   9223SM  H10T12382   4.535   3.281   4.084 -1.9322  1.0011 -0.8529
   9223SM  C11S12383   4.453   3.075   4.122 -0.0388 -0.0436  0.2767
   9223SM  H11S12384   4.484   2.974   4.087  1.0239  0.7883 -1.3402
   9223SM  H11T12385   4.342   3.071   4.116 -0.1056 -4.4628  1.2348
   9223SM  C12S12386   4.504   3.083   4.269  0.3151  0.3218 -0.2183
   9223SM  H12S12387   4.487   3.191   4.290 -1.0727 -0.1923  1.5243
   9223SM  H12T12388   4.614   3.063   4.269  0.2973  0.2230 -0.0944
   9223SM  C13S12389   4.428   2.992   4.364 -0.2057  0.7454 -0.0641
   9223SM  H13S12390   4.442   2.887   4.330  2.7771  1.1330 -0.3219
   9223SM  H13T12391   4.322   3.023   4.356 -0.2734  0.3035 -1.1198
   9223SM  C14S12392   4.470   2.999   4.515 -0.5817 -0.4164  0.2160
   9223SM  H14S12393   4.473   3.107   4.539 -0.0645 -0.2917 -0.3769
   9223SM  H14T12394   4.575   2.962   4.512 -1.2210 -2.3153  0.0807
   9223SM  C15S12395   4.377   2.922   4.605  0.1137  0.0016  0.1990
   9223SM  H15S12396   4.387   2.817   4.572  0.9852 -0.1694  0.9855
   9223SM  H15T12397   4.272   2.954   4.588 -0.5288 -0.6500  2.5468
   9223SM  C16S12398   4.407   2.925   4.750  0.5806  0.2594 -0.7255
   9223SM  H16S12399   4.383   3.019   4.805  0.1011 -0.5793  0.5476
   9223SM  H16T12400   4.515   2.900   4.760  0.6192  1.2442  2.9149
   9223SM  C17S12401   4.335   2.821   4.842 -0.3593  1.2434  0.3542
   9223SM  H17S12402   4.387   2.812   4.940 -2.4609  0.2261  1.4542
   9223SM  H17T12403   4.341   2.727   4.783  0.6832  2.3057 -1.3166
   9223SM  C18S12404   4.190   2.860   4.865  0.1699  0.3373  0.6490
   9223SM  H18S12405   4.135   2.788   4.928 -1.2478  1.0933  0.3116
   9223SM  H18T12406   4.135   2.874   4.769  2.1155  0.9725 -0.4253
   9223SM  H18U12407   4.181   2.956   4.920  1.7699 -0.0779  1.7073
   9223SM   C1F12408   5.192   3.147   3.405 -0.1994 -1.0140 -0.0420
   9223SM    OF12409   5.243   3.228   3.332  0.2121  0.9422 -0.0577
   9223SM   C2F12410   5.247   3.114   3.542 -1.1255  0.1686  0.4150
   9223SM   H2F12411   5.350   3.155   3.538  0.0805 -2.4748  1.9543
   9223SM   H2G12412   5.269   3.005   3.548  0.2894  0.3496 -0.8273
   9223SM   C3F12413   5.155   3.171   3.654 -0.7065 -0.2396  0.1848
   9223SM   H3F12414   5.215   3.153   3.746 -0.2620  2.7121  0.5727
   9223SM   H3G12415   5.058   3.117   3.666 -1.1700 -0.1403 -2.6140
   9223SM   C4F12416   5.121   3.319   3.642  0.5203 -0.6095  0.1193
   9223SM   H4F12417   5.089   3.337   3.537  0.9979  1.6423  0.3085
   9223SM   H4G12418   5.210   3.386   3.654 -0.4934  0.7852  0.0941
   9223SM   C5F12419   5.008   3.371   3.744 -0.1387  0.9879  0.6239
   9223SM   H5F12420   4.913   3.313   3.733  0.3917  0.2918 -0.4531
   9223SM   H5G12421   4.981   3.472   3.703 -1.0384 -0.2281 -2.0384
   9223SM   C6F12422   5.056   3.375   3.888 -0.1323  0.0473 -0.6965
   9223SM   H6F12423   5.146   3.440   3.889 -0.7182  0.9472 -2.1873
   9223SM   H6G12424   5.096   3.275   3.914  0.3207  0.2978 -0.3957
   9223SM   C7F12425   4.944   3.412   3.988 -0.3900 -0.0441  0.3007
   9223SM   H7F12426   4.850   3.360   3.962  0.7288 -1.8680 -0.2920
   9223SM   H7G12427   4.923   3.520   3.973  0.9901  0.4911  1.8544
   9223SM   C8F12428   4.990   3.376   4.134  0.3832  0.0728  0.1024
   9223SM   H8F12429   5.071   3.449   4.157  0.7579 -0.8027  1.7247
   9223SM   H8G12430   5.037   3.275   4.128 -1.4581 -0.7713 -0.7191
   9223SM   C9F12431   4.875   3.369   4.232  0.0126 -0.3065  0.4500
   9223SM   H9F12432   4.820   3.276   4.207  0.2548 -0.2431 -0.3535
   9223SM   H9G12433   4.798   3.447   4.220 -0.0055 -0.5896 -1.6628
   9223SM  C10F12434   4.917   3.352   4.391  0.0159 -0.3031 -0.1260
   9223SM  H10F12435   4.952   3.247   4.391 -1.8550 -0.9664 -0.0612
   9223SM  H10G12436   4.821   3.358   4.447 -0.2836 -0.4382 -0.6201
   9223SM  C11F12437   5.026   3.455   4.440  1.1584 -0.4391  0.9615
   9223SM  H11F12438   4.976   3.554   4.428  0.3640 -1.0560 -1.2741
   9223SM  H11G12439   5.111   3.471   4.370  0.6018 -0.0375  0.3705
   9223SM  C12F12440   5.068   3.438   4.591 -0.0326  0.7025 -0.4258
   9223SM  H12F12441   5.116   3.338   4.601 -0.1196  0.7177  0.1923
   9223SM  H12G12442   4.987   3.439   4.668  2.1010 -2.3527  2.0913
   9223SM  C13F12443   5.166   3.547   4.644 -0.5124  0.9534  0.1105
   9223SM  H13F12444   5.090   3.628   4.658  0.7462  2.5668 -1.9229
   9223SM  H13G12445   5.244   3.578   4.572 -0.4744  0.3243 -0.1240
   9223SM  C14F12446   5.230   3.500   4.777 -0.1970 -0.6048 -0.4994
   9223SM  H14F12447   5.283   3.406   4.752 -0.6196 -0.6725 -1.1967
   9223SM  H14G12448   5.154   3.478   4.855  0.6895  1.1644  0.9380
   9223SM  C15F12449   5.310   3.614   4.839  0.6469  0.5254 -0.1156
   9223SM  H15F12450   5.233   3.681   4.883 -0.7307 -1.4108  0.5589
   9223SM  H15G12451   5.361   3.659   4.750 -0.7046 -0.1721 -1.2852
   9223SM  C16F12452   5.422   3.570   4.937 -0.4733  0.3768  0.2278
   9223SM  H16F12453   5.475   3.485   4.889 -1.0533 -0.7526  1.5232
   9223SM  H16G12454   5.376   3.527   5.028  2.0821  0.5185  1.6743
   9223SM  C17F12455   5.523   3.674   4.986  0.4909 -0.4498  0.5454
   9223SM  H17F12456   5.594   3.623   5.054  1.0580 -1.9153 -1.0837
   9223SM  H17G12457   5.475   3.748   5.054  0.2367  0.6637 -0.7846
   9223SM  C18F12458   5.596   3.746   4.877 -0.0224 -0.5779  0.2408
   9223SM  H18F12459   5.526   3.814   4.825  1.7208  0.3709 -0.9428
   9223SM  H18G12460   5.641   3.681   4.799 -1.1715  0.0278 -0.9520
   9223SM  C19F12461   5.713   3.830   4.930  0.1246  0.0754 -0.1622
   9223SM  H19F12462   5.684   3.892   5.017  1.2163 -0.5636  0.6798
   9223SM  H19G12463   5.731   3.899   4.845 -0.8926 -0.2072 -0.6263
   9223SM  C20F12464   5.835   3.753   4.971 -0.0793 -0.3478 -0.6142
   9223SM  H20F12465   5.869   3.701   4.880 -1.6836 -0.5380 -1.1295
   9223SM  H20G12466   5.804   3.679   5.048 -0.2033  0.0837 -0.2413
   9223SM  C21F12467   5.952   3.835   5.038  0.2350 -0.3570  0.2303
   9223SM  H21F12468   5.996   3.909   4.968  2.0751 -2.1857 -0.6435
   9223SM  H21G12469   6.037   3.772   5.071  0.6531 -0.2831 -0.6830
   9223SM  C22F12470   5.906   3.902   5.169 -0.2217  0.2936 -1.2032
   9223SM  H22F12471   5.901   3.818   5.241  2.1234  0.7023 -0.4839
   9223SM  H22G12472   5.813   3.963   5.160 -0.6674 -0.4796 -2.1312
   9223SM  C23F12473   6.014   3.991   5.222 -0.8378 -0.0838 -0.3708
   9223SM  H23F12474   6.054   4.066   5.151  0.9745 -1.5845 -1.0164
   9223SM  H23G12475   6.100   3.930   5.257 -0.6152  0.0818 -0.6270
   9223SM  H23H12476   5.984   4.047   5.313  1.8604  2.8397 -1.1262
   9323SM     N12477   6.413   4.226   2.943 -0.3514  0.3661  0.0626
   9323SM   C1512478   6.305   4.332   2.943 -0.3821  0.2997  0.4278
   9323SM  H15A12479   6.223   4.306   3.009 -0.4832  0.9878  0.5755
   9323SM  H15B12480   6.268   4.345   2.842 -2.2785 -2.4758  0.6310
   9323SM  H15C12481   6.357   4.418   2.982  1.0773 -0.0699 -0.6335
   9323SM   C1412482   6.518   4.270   2.848 -0.1752  0.3177 -0.1085
   9323SM  H14A12483   6.565   4.361   2.884  1.8039 -0.2612 -1.0809
   9323SM  H14B12484   6.470   4.282   2.752  0.4457 -2.0972 -0.7816
   9323SM  H14C12485   6.586   4.187   2.838  2.0750  1.9202  0.8427
   9323SM   C1312486   6.473   4.214   3.082  0.4971  0.3176  0.6653
   9323SM  H13A12487   6.567   4.166   3.057 -0.0544  0.8811 -3.0216
   9323SM  H13B12488   6.417   4.153   3.151 -1.2420  1.0200 -0.0904
   9323SM  H13C12489   6.504   4.310   3.121  0.5809  0.6753 -0.2540
   9323SM   C1212490   6.358   4.096   2.899 -0.5061  0.8724 -0.4206
   9323SM  H12A12491   6.317   4.105   2.799 -1.0985  0.1666 -0.2488
   9323SM  H12B12492   6.269   4.086   2.958  0.0011  0.6979  0.3233
   9323SM   C1112493   6.453   3.970   2.904 -0.0727  0.5323  0.3559
   9323SM  H11A12494   6.391   3.884   2.871  0.2137  0.5103 -0.1369
   9323SM  H11B12495   6.484   3.949   3.009  5.3650 -1.1797 -1.2534
   9323SM     P12496   6.723   3.968   2.852  0.0593 -0.1360 -0.1491
   9323SM   O1312497   6.771   3.843   2.784  0.3302 -0.1198  0.8083
   9323SM   O1412498   6.792   4.094   2.819 -0.2312 -0.6179  0.5193
   9323SM   O1112499   6.720   3.937   3.005 -0.3125 -0.1735 -0.0266
   9323SM   O1212500   6.571   3.985   2.818  0.0710  0.1501 -0.1825
   9323SM   C1S12501   6.831   3.987   3.083  0.4973  0.5179  0.0650
   9323SM   H1S12502   6.878   4.083   3.052  0.4018  0.2544 -0.9125
   9323SM   H1T12503   6.916   3.916   3.084  1.9490  2.0966 -2.2350
   9323SM    NF12504   6.894   4.064   3.298 -0.0927 -0.2474 -0.8696
   9323SM   HNF12505   6.925   4.022   3.383 -1.5478  0.7270  0.1879
   9323SM   C2S12506   6.787   4.001   3.229  0.0230 -0.7552 -0.5141
   9323SM   H2S12507   6.704   4.073   3.217  0.8805  0.4969  0.7304
   9323SM   C3S12508   6.755   3.862   3.292  0.0426  0.0229  0.2297
   9323SM   H3S12509   6.845   3.799   3.304  0.3606  0.3622 -0.3499
   9323SM    O312510   6.675   3.779   3.213 -0.0361  0.4524  0.0258
   9323SM   HO312511   6.677   3.804   3.121  0.8698 -0.2157 -0.1472
   9323SM   C4S12512   6.695   3.872   3.431 -0.0208  0.1994  0.3397
   9323SM   H4S12513   6.586   3.886   3.431 -0.0532  0.3633 -2.0258
   9323SM   C5S12514   6.763   3.859   3.546  1.0173 -0.6834 -0.0966
   9323SM   H5S12515   6.873   3.857   3.544  1.0096 -0.8710 -0.5731
   9323SM   C6S12516   6.704   3.865   3.685 -0.4298  0.5538 -0.0861
   9323SM   H6S12517   6.732   3.963   3.730 -0.6468  0.7712 -0.4176
   9323SM   H6T12518   6.750   3.780   3.740 -1.0690  0.6437  0.6045
   9323SM   C7S12519   6.551   3.854   3.711 -0.1771  0.4634  0.2817
   9323SM   H7S12520   6.521   3.758   3.664 -0.4482  1.0483 -0.7779
   9323SM   H7T12521   6.500   3.935   3.653  1.7070  0.0989 -2.0611
   9323SM   C8S12522   6.505   3.839   3.855  0.4283 -0.3964 -0.1862
   9323SM   H8S12523   6.579   3.772   3.904  1.2649 -1.3737 -2.6275
   9323SM   H8T12524   6.403   3.794   3.860  0.1708 -0.4223 -3.5781
   9323SM   C9S12525   6.505   3.984   3.923 -0.0749  0.0024  0.4299
   9323SM   H9S12526   6.451   4.054   3.856 -0.5043 -1.2815 -0.6190
   9323SM   H9T12527   6.608   4.023   3.942  0.3671 -0.3959 -0.9889
   9323SM  C10S12528   6.435   3.991   4.057  0.1442  0.1737  0.5751
   9323SM  H10S12529   6.469   3.909   4.124 -1.9001  0.0617  1.5353
   9323SM  H10T12530   6.326   3.973   4.060 -0.1915  2.1087  1.5082
   9323SM  C11S12531   6.455   4.123   4.129 -0.7847  0.5348 -0.4986
   9323SM  H11S12532   6.405   4.207   4.077  2.9962  2.7228 -0.9248
   9323SM  H11T12533   6.558   4.162   4.118 -2.1953  4.5454 -1.0634
   9323SM  C12S12534   6.411   4.119   4.277  0.0500  0.2734  0.1228
   9323SM  H12S12535   6.478   4.048   4.330  1.8151 -0.4397 -2.8502
   9323SM  H12T12536   6.308   4.077   4.282  0.0391  0.1763 -0.6937
   9323SM  C13S12537   6.412   4.262   4.339  0.3724  0.4125  0.1293
   9323SM  H13S12538   6.332   4.324   4.294  0.8320  1.3881  0.6221
   9323SM  H13T12539   6.509   4.309   4.314 -1.0587  2.2417 -2.4278
   9323SM  C14S12540   6.389   4.264   4.490  0.0154  0.2065  0.2927
   9323SM  H14S12541   6.482   4.221   4.533 -0.0749  0.0052  0.2901
   9323SM  H14T12542   6.300   4.203   4.519 -1.5813  1.7072 -1.2046
   9323SM  C15S12543   6.373   4.409   4.543 -0.2521  0.4241  0.5296
   9323SM  H15S12544   6.448   4.471   4.488 -0.9085  0.1833 -0.6847
   9323SM  H15T12545   6.272   4.450   4.521  0.5236  1.4891 -1.4094
   9323SM  C16S12546   6.397   4.425   4.691  0.7952  0.5913 -0.0384
   9323SM  H16S12547   6.488   4.370   4.725  0.7482 -0.5843 -1.7191
   9323SM  H16T12548   6.314   4.373   4.743  1.0362  0.9525  0.7284
   9323SM  C17S12549   6.397   4.570   4.753 -1.0804  0.4157 -0.4033
   9323SM  H17S12550   6.494   4.619   4.730 -0.1632 -0.2487  1.7859
   9323SM  H17T12551   6.398   4.541   4.860  3.2820 -0.0669 -0.3725
   9323SM  C18S12552   6.279   4.656   4.712  0.1953 -0.1419  0.2043
   9323SM  H18S12553   6.277   4.755   4.763 -0.4862 -0.8703  1.6539
   9323SM  H18T12554   6.182   4.604   4.728  0.0873  0.3588  1.2988
   9323SM  H18U12555   6.283   4.691   4.607 -1.6124  0.2299  0.2213
   9323SM   C1F12556   6.921   4.200   3.295  0.0956  0.1915 -0.2411
   9323SM    OF12557   6.866   4.267   3.211 -0.4416 -0.3941 -0.4311
   9323SM   C2F12558   7.016   4.244   3.402  0.0467 -0.7895 -0.3572
   9323SM   H2F12559   7.117   4.243   3.357  0.8391 -2.9775  1.2716
   9323SM   H2G12560   7.005   4.163   3.478 -0.1474  0.1895  0.6829
   9323SM   C3F12561   6.986   4.382   3.466 -0.1975  0.2761  0.4596
   9323SM   H3F12562   6.976   4.464   3.391 -0.5392  1.2024  1.4890
   9323SM   H3G12563   7.078   4.411   3.521  0.2942  2.5855 -1.3928
   9323SM   C4F12564   6.859   4.384   3.556 -0.1803  0.4167  0.0388
   9323SM   H4F12565   6.760   4.368   3.508  0.4594 -2.8806 -0.4292
   9323SM   H4G12566   6.847   4.490   3.588 -0.7386  0.6319 -0.8632
   9323SM   C5F12567   6.874   4.305   3.687 -0.3401 -0.5250 -0.0535
   9323SM   H5F12568   6.946   4.353   3.757 -2.0725 -0.5866  1.8922
   9323SM   H5G12569   6.910   4.204   3.657  2.2728  0.2213  0.3417
   9323SM   C6F12570   6.738   4.277   3.754  0.5184  0.2594  0.0966
   9323SM   H6F12571   6.764   4.211   3.839  1.7436 -1.5369 -1.5838
   9323SM   H6G12572   6.661   4.225   3.693  0.8812  0.0595 -0.1956
   9323SM   C7F12573   6.669   4.406   3.801 -0.4056  0.6736  0.4505
   9323SM   H7F12574   6.638   4.453   3.705  1.6361 -1.7740 -1.5513
   9323SM   H7G12575   6.754   4.463   3.843 -0.3556  0.8358  0.1339
   9323SM   C8F12576   6.555   4.380   3.898 -0.7730  0.1582  0.4404
   9323SM   H8F12577   6.587   4.368   4.004  0.7198  2.0290  0.2530
   9323SM   H8G12578   6.484   4.306   3.855  1.2202 -0.6007 -1.7387
   9323SM   C9F12579   6.465   4.505   3.910  1.2556  0.2727 -0.4054
   9323SM   H9F12580   6.390   4.512   3.828 -1.6705  0.9736  2.1386
   9323SM   H9G12581   6.531   4.594   3.906  1.1923  0.4967  2.0537
   9323SM  C10F12582   6.381   4.496   4.037 -0.1448  0.2194  0.6068
   9323SM  H10F12583   6.420   4.431   4.118 -1.6015  1.3985  2.3289
   9323SM  H10G12584   6.281   4.456   4.009  0.3511 -0.6709  0.0314
   9323SM  C11F12585   6.358   4.636   4.081 -0.1394  0.1363 -0.0504
   9323SM  H11F12586   6.330   4.690   3.988  2.8633  1.3355 -0.3801
   9323SM  H11G12587   6.453   4.676   4.122  0.7548 -1.3395 -0.6368
   9323SM  C12F12588   6.247   4.636   4.192 -0.1617 -0.0890  0.1153
   9323SM  H12F12589   6.295   4.592   4.282  0.4241  0.6585  0.1794
   9323SM  H12G12590   6.166   4.566   4.164  1.2798 -1.7890  0.0381
   9323SM  C13F12591   6.190   4.769   4.231  0.5563 -0.1806  0.9166
   9323SM  H13F12592   6.146   4.811   4.138 -1.3266 -2.3478  0.7344
   9323SM  H13G12593   6.270   4.841   4.259 -0.3631  1.3394 -0.1830
   9323SM  C14F12594   6.081   4.748   4.331 -0.3737 -0.0643  0.2543
   9323SM  H14F12595   6.119   4.673   4.403 -1.2226 -0.6403  0.1070
   9323SM  H14G12596   5.991   4.700   4.287  0.2043 -1.4547  0.5458
   9323SM  C15F12597   6.062   4.882   4.418  0.3446  0.0194 -0.3559
   9323SM  H15F12598   6.008   4.964   4.366  1.7488  2.0054  1.1909
   9323SM  H15G12599   6.163   4.916   4.446  0.6907 -2.3394  1.5683
   9323SM  C16F12600   5.971   4.864   4.539  0.4091 -0.0149 -0.9197
   9323SM  H16F12601   5.984   4.950   4.609  0.5132  0.0358 -1.0024
   9323SM  H16G12602   5.992   4.776   4.603 -2.1069 -0.1476 -0.1639
   9323SM  C17F12603   5.819   4.861   4.508  0.0903  1.1036 -0.5727
   9323SM  H17F12604   5.804   4.790   4.424 -1.1106  0.8550 -0.1739
   9323SM  H17G12605   5.792   4.967   4.488 -0.9055  1.3246  1.6093
   9323SM  C18F12606   5.725   4.814   4.620  0.3855 -0.0022 -0.0530
   9323SM  H18F12607   5.749   4.712   4.657 -0.9050  0.3419  1.8748
   9323SM  H18G12608   5.620   4.801   4.588  0.6165 -0.6745 -0.5782
   9323SM  C19F12609   5.722   4.900   4.748  0.2013  0.1127  0.3065
   9323SM  H19F12610   5.823   4.894   4.795  1.1635  0.6138 -1.5792
   9323SM  H19G12611   5.642   4.850   4.807  0.2523  0.3357  0.5688
   9323SM  C20F12612   5.682   5.046   4.733 -1.1362  0.5617  0.0938
   9323SM  H20F12613   5.580   5.034   4.691 -0.9801 -1.0147  0.1094
   9323SM  H20G12614   5.744   5.105   4.663 -0.2606 -1.0812 -0.5482
   9323SM  C21F12615   5.677   5.123   4.863 -0.4610  0.4689 -0.3267
   9323SM  H21F12616   5.645   5.229   4.856  0.6576  0.9821  1.6877
   9323SM  H21G12617   5.785   5.135   4.890 -0.1363  1.2713 -1.8453
   9323SM  C22F12618   5.599   5.055   4.970  0.0075  0.5450 -0.1143
   9323SM  H22F12619   5.632   4.949   4.981 -1.9142 -0.1931 -0.9902
   9323SM  H22G12620   5.491   5.065   4.944  0.1347  0.1013 -0.8313
   9323SM  C23F12621   5.606   5.131   5.105 -0.0629  0.1758 -0.4305
   9323SM  H23F12622   5.706   5.134   5.153  0.9656  0.5606 -2.4676
   9323SM  H23G12623   5.534   5.107   5.186  0.8366  0.0552  0.3448
   9323SM  H23H12624   5.577   5.235   5.079  0.3805  0.2830 -0.5040
   9423SM     N12625   5.417   6.633   2.655  0.4179  0.3054  0.8214
   9423SM   C1512626   5.549   6.562   2.660 -0.1760 -0.8016 -0.3668
   9423SM  H15A12627   5.542   6.458   2.635  0.2308 -0.3660 -2.4642
   9423SM  H15B12628   5.590   6.582   2.758  1.0032  2.5484 -1.4013
   9423SM  H15C12629   5.622   6.612   2.598  1.1906 -0.2483  1.5783
   9423SM   C1412630   5.359   6.642   2.519  0.3711 -0.8320  0.0928
   9423SM  H14A12631   5.271   6.704   2.528  0.8489  0.0175 -0.8831
   9423SM  H14B12632   5.331   6.543   2.488  1.3615 -0.6219 -1.5931
   9423SM  H14C12633   5.426   6.680   2.443  0.0351  1.2766  0.7837
   9423SM   C1312634   5.315   6.561   2.736 -0.2202  0.3418  0.8004
   9423SM  H13A12635   5.296   6.466   2.688  0.2892  1.4740 -1.8302
   9423SM  H13B12636   5.224   6.619   2.741  1.2030  2.7636  0.5937
   9423SM  H13C12637   5.358   6.531   2.830 -0.3102 -1.6951  0.2315
   9423SM   C1212638   5.446   6.770   2.713  0.4509  0.1572  0.5798
   9423SM  H12A12639   5.531   6.816   2.665 -0.3241  1.8328  0.7467
   9423SM  H12B12640   5.479   6.756   2.815  2.0407  0.6497  0.1647
   9423SM   C1112641   5.331   6.870   2.720 -0.1089 -0.2314 -0.2302
   9423SM  H11A12642   5.270   6.869   2.627 -0.8492  2.5253  0.1198
   9423SM  H11B12643   5.368   6.974   2.735  2.0852 -1.2928  2.4317
   9423SM     P12644   5.242   6.926   2.960  0.0930  0.4864  0.1632
   9423SM   O1312645   5.371   6.906   3.032 -0.3008 -0.2861  0.2689
   9423SM   O1412646   5.202   7.061   2.911 -0.6517  0.2721  0.3213
   9423SM   O1112647   5.124   6.860   3.047 -0.3903  0.0052 -0.3448
   9423SM   O1212648   5.244   6.830   2.829 -0.7065  0.0395  0.2383
   9423SM   C1S12649   5.105   6.717   3.050  0.5325 -0.4776  0.5414
   9423SM   H1S12650   5.204   6.668   3.064  1.0917  0.7651  1.0253
   9423SM   H1T12651   5.063   6.677   2.954  0.9611 -1.3155  0.6921
   9423SM    NF12652   4.981   6.557   3.201  0.2023 -0.2346  0.2062
   9423SM   HNF12653   4.902   6.512   3.160  0.7017 -0.1106 -0.9300
   9423SM   C2S12654   4.996   6.697   3.159  0.4566  0.4600 -0.7596
   9423SM   H2S12655   5.031   6.762   3.242  0.2769  0.7308 -0.8965
   9423SM   C3S12656   4.861   6.763   3.098 -0.2328  0.1391  0.3487
   9423SM   H3S12657   4.851   6.706   3.003  0.9845  0.4704  0.0058
   9423SM    O312658   4.871   6.901   3.073 -0.2675  0.0987  0.6635
   9423SM   HO312659   4.966   6.915   3.076 -0.0721 -1.1767  0.9227
   9423SM   C4S12660   4.746   6.722   3.190 -0.5492  0.2635 -0.1974
   9423SM   H4S12661   4.696   6.629   3.160  1.7905 -1.4543  0.8958
   9423SM   C5S12662   4.701   6.786   3.301 -0.1770 -0.5126 -0.1833
   9423SM   H5S12663   4.755   6.878   3.324 -1.0730 -0.0475  0.1112
   9423SM   C6S12664   4.576   6.751   3.376 -0.0211 -0.6873 -0.5957
   9423SM   H6S12665   4.497   6.816   3.334 -2.7475 -3.9566 -0.9940
   9423SM   H6T12666   4.602   6.761   3.483 -0.1492  0.1037 -0.6360
   9423SM   C7S12667   4.520   6.611   3.351 -0.6192  0.7892 -0.1708
   9423SM   H7S12668   4.597   6.541   3.390 -0.3606  0.5020 -1.1859
   9423SM   H7T12669   4.504   6.586   3.244 -2.6617 -1.8260  0.6639
   9423SM   C8S12670   4.388   6.587   3.431  0.3326 -0.2762 -0.1868
   9423SM   H8S12671   4.343   6.490   3.402  0.2660  0.1932 -1.7194
   9423SM   H8T12672   4.320   6.666   3.394  0.6417 -0.4361 -1.1236
   9423SM   C9S12673   4.412   6.561   3.586  0.0121 -0.1681  0.1317
   9423SM   H9S12674   4.519   6.537   3.602  0.0591  0.2475  0.4409
   9423SM   H9T12675   4.351   6.473   3.618 -0.4689 -0.9840 -2.7524
   9423SM  C10S12676   4.378   6.682   3.664  0.5522  0.0071 -0.4481
   9423SM  H10S12677   4.273   6.694   3.631  0.3700 -0.8131 -0.1776
   9423SM  H10T12678   4.434   6.773   3.634  1.8056  0.4125  2.7968
   9423SM  C11S12679   4.372   6.659   3.814 -0.5706  0.7659 -0.4562
   9423SM  H11S12680   4.384   6.759   3.860 -1.5317  0.2688  0.9709
   9423SM  H11T12681   4.456   6.592   3.842 -1.3749 -0.5975 -1.1980
   9423SM  C12S12682   4.240   6.605   3.868  0.5365 -0.0441  0.4692
   9423SM  H12S12683   4.197   6.528   3.801  0.3526 -1.9763  2.6757
   9423SM  H12T12684   4.168   6.689   3.876  0.5758  0.0882 -0.4874
   9423SM  C13S12685   4.254   6.543   4.003 -0.0512  0.2928 -0.0562
   9423SM  H13S12686   4.337   6.469   4.001 -0.0869  0.2450  0.1854
   9423SM  H13T12687   4.163   6.493   4.040  1.5581 -0.8373  2.7162
   9423SM  C14S12688   4.286   6.652   4.120  0.5660 -0.6894  0.1439
   9423SM  H14S12689   4.364   6.719   4.079 -0.6132 -0.0596 -1.1748
   9423SM  H14T12690   4.320   6.598   4.210  1.2972  1.5765  1.3010
   9423SM  C15S12691   4.162   6.738   4.165 -0.4743  0.3933 -0.0985
   9423SM  H15S12692   4.120   6.778   4.070 -0.7063  2.8236  0.9611
   9423SM  H15T12693   4.202   6.828   4.217 -0.0188  0.4839 -0.5992
   9423SM  C16S12694   4.059   6.668   4.249  0.1063 -0.2303  0.0100
   9423SM  H16S12695   4.110   6.609   4.328 -0.0108 -1.6303 -0.9220
   9423SM  H16T12696   4.009   6.589   4.188  1.1477 -0.3138 -0.7794
   9423SM  C17S12697   3.948   6.758   4.308 -0.0743  0.5050 -0.3264
   9423SM  H17S12698   4.005   6.821   4.379 -1.0821  0.5825  0.4412
   9423SM  H17T12699   3.882   6.694   4.371  1.2683  0.7478  1.3742
   9423SM  C18S12700   3.884   6.838   4.192  0.1691 -0.0048 -0.4790
   9423SM  H18S12701   3.858   6.766   4.111  0.8349  0.5123 -1.1654
   9423SM  H18T12702   3.954   6.910   4.144 -0.8077  2.1220  1.1039
   9423SM  H18U12703   3.795   6.899   4.218  1.0249  0.6242  1.1407
   9423SM   C1F12704   5.078   6.486   3.261  0.5607 -0.3988 -0.1264
   9423SM    OF12705   5.178   6.540   3.298 -0.6671 -0.3539 -0.2277
   9423SM   C2F12706   5.050   6.343   3.283 -0.5751  0.1901  0.1572
   9423SM   H2F12707   5.006   6.300   3.190 -2.1483 -0.8244  1.3243
   9423SM   H2G12708   4.968   6.343   3.359  0.1167 -0.9359  0.9170
   9423SM   C3F12709   5.175   6.266   3.336 -0.2483  0.1835  0.0856
   9423SM   H3F12710   5.219   6.316   3.425 -0.5346 -2.7818  2.0642
   9423SM   H3G12711   5.249   6.256   3.254  0.0620  0.0634  0.3797
   9423SM   C4F12712   5.138   6.136   3.396  0.0169 -0.4160 -0.0949
   9423SM   H4F12713   5.097   6.068   3.319  2.1307 -2.3535  0.3540
   9423SM   H4G12714   5.051   6.141   3.465 -0.5952 -2.1998 -0.6670
   9423SM   C5F12715   5.251   6.079   3.474 -0.4329 -0.1279 -0.1470
   9423SM   H5F12716   5.295   6.150   3.547 -0.3046 -0.0116 -0.3393
   9423SM   H5G12717   5.330   6.040   3.407 -0.6194 -0.4442 -0.1836
   9423SM   C6F12718   5.212   5.972   3.577  0.5211  0.6811 -0.0349
   9423SM   H6F12719   5.308   5.918   3.588  0.1840 -0.4642 -2.1406
   9423SM   H6G12720   5.146   5.900   3.525 -2.6315  2.8340  0.6851
   9423SM   C7F12721   5.144   6.024   3.701 -0.1713  0.3844  0.0003
   9423SM   H7F12722   5.038   6.047   3.680 -0.4654  3.1074  3.5799
   9423SM   H7G12723   5.196   6.117   3.734  1.6739 -0.3344 -0.7367
   9423SM   C8F12724   5.148   5.924   3.825 -0.6579  0.3628  0.6667
   9423SM   H8F12725   5.254   5.892   3.836 -1.5781 -2.7773  1.3895
   9423SM   H8G12726   5.082   5.837   3.804 -0.7222  0.8125 -1.0899
   9423SM   C9F12727   5.107   5.996   3.956  0.3458 -0.8661 -0.2161
   9423SM   H9F12728   4.997   5.985   3.955  0.1201  0.9072 -1.5633
   9423SM   H9G12729   5.140   6.102   3.950 -0.4899 -0.5486  0.6074
   9423SM  C10F12730   5.152   5.926   4.080  0.4590 -0.1717 -0.2533
   9423SM  H10F12731   5.181   5.823   4.051 -0.3453 -0.0988 -1.4023
   9423SM  H10G12732   5.070   5.916   4.154  1.4200  0.1059  0.8691
   9423SM  C11F12733   5.284   5.985   4.147  0.8184 -0.3861  0.1005
   9423SM  H11F12734   5.366   5.996   4.072  2.4856 -1.6500  1.6602
   9423SM  H11G12735   5.324   5.918   4.226 -0.9788  1.8864  3.1579
   9423SM  C12F12736   5.251   6.110   4.216  0.2153 -0.0709 -0.1749
   9423SM  H12F12737   5.206   6.076   4.312  0.3942 -0.1416 -0.1141
   9423SM  H12G12738   5.182   6.176   4.160 -0.5639 -1.3477 -0.7827
   9423SM  C13F12739   5.377   6.189   4.261  0.1719 -0.1292  0.6233
   9423SM  H13F12740   5.428   6.219   4.168  2.7866 -1.3242  1.5659
   9423SM  H13G12741   5.444   6.112   4.305 -3.3141 -4.1635 -0.4511
   9423SM  C14F12742   5.345   6.307   4.358  0.0127 -0.3348  0.1707
   9423SM  H14F12743   5.289   6.384   4.301 -0.1019 -1.3267 -1.1175
   9423SM  H14G12744   5.437   6.358   4.392  0.1020 -0.4041  0.0365
   9423SM  C15F12745   5.269   6.255   4.477  0.4504  0.2833 -0.6724
   9423SM  H15F12746   5.307   6.155   4.504 -1.5217  0.1113  1.8565
   9423SM  H15G12747   5.160   6.253   4.458  0.3978 -0.5259 -0.3323
   9423SM  C16F12748   5.285   6.349   4.599  0.2412  0.2207 -0.9894
   9423SM  H16F12749   5.245   6.452   4.587  0.1430  1.1474  4.4834
   9423SM  H16G12750   5.396   6.349   4.596  0.2619  0.1752 -0.3881
   9423SM  C17F12751   5.235   6.281   4.728 -0.8681 -0.3478  0.5793
   9423SM  H17F12752   5.289   6.185   4.745  0.7122  0.5243  0.6344
   9423SM  H17G12753   5.132   6.245   4.705 -1.2212  0.6033  0.6182
   9423SM  C18F12754   5.230   6.362   4.855 -0.6922 -0.0980 -0.5165
   9423SM  H18F12755   5.196   6.287   4.929 -0.5063  1.2500  0.9667
   9423SM  H18G12756   5.154   6.442   4.848  0.3791  1.1485  1.4087
   9423SM  C19F12757   5.365   6.422   4.893  0.5020 -0.4878  0.4487
   9423SM  H19F12758   5.396   6.501   4.821  0.3450  0.7438  1.6746
   9423SM  H19G12759   5.437   6.338   4.892 -1.4094 -2.2707  2.4448
   9423SM  C20F12760   5.363   6.507   5.021 -0.0367 -0.3005  0.0860
   9423SM  H20F12761   5.309   6.451   5.100 -1.4035 -0.5325 -0.9858
   9423SM  H20G12762   5.309   6.604   5.015 -0.2227 -0.3183  1.3509
   9423SM  C21F12763   5.499   6.553   5.079 -0.3909  0.6152 -0.2504
   9423SM  H21F12764   5.564   6.464   5.090 -2.0616 -0.7850 -1.2915
   9423SM  H21G12765   5.482   6.598   5.179  0.6563  0.3611  0.0580
   9423SM  C22F12766   5.579   6.662   5.002  0.0499  0.0738  0.0264
   9423SM  H22F12767   5.517   6.754   4.997 -0.6664 -0.4061 -0.2278
   9423SM  H22G12768   5.602   6.627   4.899  1.5401  2.7243 -0.6299
   9423SM  C23F12769   5.711   6.710   5.060  0.0180  0.2983  0.4086
   9423SM  H23F12770   5.778   6.634   5.105  1.2238  0.1323 -1.5374
   9423SM  H23G12771   5.690   6.780   5.143 -0.2364 -1.3884  1.8302
   9423SM  H23H12772   5.772   6.769   4.988 -3.7097  1.8418 -1.7807
   9523SM     N12773   0.980   1.261   2.882  0.0444  0.7688  0.6067
   9523SM   C1512774   0.846   1.261   2.819  0.2075 -0.0349 -0.2226
   9523SM  H15A12775   0.820   1.158   2.800 -0.2151  0.0515 -0.1085
   9523SM  H15B12776   0.846   1.310   2.723  0.9370 -2.6957 -1.6675
   9523SM  H15C12777   0.769   1.307   2.879  1.9488 -0.6611  2.7185
   9523SM   C1412778   1.041   1.401   2.871 -0.0547  0.9236  0.4185
   9523SM  H14A12779   1.132   1.399   2.928  0.0947  1.0706  0.1872
   9523SM  H14B12780   0.967   1.465   2.917  0.6497  0.0808  2.8648
   9523SM  H14C12781   1.071   1.429   2.771  1.7022  0.0033  0.6523
   9523SM   C1312782   0.958   1.215   3.022 -0.2849  0.3715  0.2058
   9523SM  H13A12783   1.054   1.195   3.067 -1.4480 -0.1870  2.6187
   9523SM  H13B12784   0.903   1.122   3.018  2.0907 -1.1673  1.1234
   9523SM  H13C12785   0.900   1.281   3.084  0.0214  2.1043 -1.2766
   9523SM   C1212786   1.074   1.168   2.807 -0.0032  0.2983 -0.6755
   9523SM  H12A12787   1.087   1.204   2.705 -0.8585  1.8573 -0.2714
   9523SM  H12B12788   1.041   1.065   2.807  0.6982  0.0541  0.6332
   9523SM   C1112789   1.217   1.166   2.869 -0.6834  0.9398  0.8217
   9523SM  H11A12790   1.252   1.061   2.857 -1.3885  0.9524 -2.3895
   9523SM  H11B12791   1.216   1.175   2.979  1.5513  0.8777  0.8789
   9523SM     P12792   1.419   1.327   2.889  0.2469 -0.0186 -0.1949
   9523SM   O1312793   1.508   1.385   2.787  0.4184 -0.0002 -0.2658
   9523SM   O1412794   1.360   1.422   2.993 -0.1297  0.1322 -0.2368
   9523SM   O1112795   1.497   1.212   2.955  0.4681  0.6584 -0.0029
   9523SM   O1212796   1.304   1.258   2.811  0.6780  0.2202  0.3374
   9523SM   C1S12797   1.558   1.104   2.888  0.6527  0.7409 -1.1506
   9523SM   H1S12798   1.645   1.138   2.827  0.2241 -0.0440 -2.2285
   9523SM   H1T12799   1.491   1.054   2.816  0.4720 -0.0347 -0.4599
   9523SM    NF12800   1.697   0.899   2.931  0.0524 -0.7033 -0.1964
   9523SM   HNF12801   1.664   0.805   2.920 -2.0863  0.1309 -1.5591
   9523SM   C2S12802   1.609   0.998   2.999 -0.1181 -0.0959  0.5567
   9523SM   H2S12803   1.667   1.049   3.079  3.0659 -1.1999 -0.8829
   9523SM   C3S12804   1.489   0.940   3.076 -0.6185 -0.4804  0.7939
   9523SM   H3S12805   1.420   0.902   2.998  0.2331  1.2385 -0.8733
   9523SM    O312806   1.412   1.030   3.153  0.2332 -0.0206  0.2348
   9523SM   HO312807   1.430   1.118   3.120  1.2109 -0.1307  0.4468
   9523SM   C4S12808   1.525   0.823   3.158  0.0972  0.2356  0.2892
   9523SM   H4S12809   1.515   0.733   3.097 -0.6403  0.6330 -0.1951
   9523SM   C5S12810   1.576   0.818   3.286 -0.2506  0.3579  0.5321
   9523SM   H5S12811   1.580   0.908   3.349 -0.5737  0.1632  0.8343
   9523SM   C6S12812   1.602   0.694   3.359 -0.4243 -1.1742  0.8095
   9523SM   H6S12813   1.531   0.698   3.445 -1.3472  1.1327  0.0057
   9523SM   H6T12814   1.700   0.699   3.411 -0.1059 -0.0377  0.1161
   9523SM   C7S12815   1.620   0.568   3.268  0.2438 -0.8324  0.1080
   9523SM   H7S12816   1.690   0.596   3.187  0.3144  0.6799  0.6648
   9523SM   H7T12817   1.521   0.534   3.231 -0.3622  1.5759 -0.6436
   9523SM   C8S12818   1.674   0.452   3.355  0.4489 -0.6861  0.6590
   9523SM   H8S12819   1.764   0.478   3.414  1.2805 -1.0974 -0.4029
   9523SM   H8T12820   1.706   0.369   3.289  0.8371 -0.0278  0.0146
   9523SM   C9S12821   1.571   0.388   3.445 -0.4102 -0.5261 -0.4617
   9523SM   H9S12822   1.491   0.354   3.376 -0.7843  1.6306 -1.1639
   9523SM   H9T12823   1.522   0.454   3.519 -1.6177 -1.2726 -0.5702
   9523SM  C10S12824   1.620   0.263   3.507  0.0501 -0.0444 -0.4161
   9523SM  H10S12825   1.669   0.200   3.430 -3.8778 -2.6496 -1.0932
   9523SM  H10T12826   1.530   0.206   3.539 -1.0836  0.9101 -1.7702
   9523SM  C11S12827   1.719   0.289   3.626 -1.0084 -0.4706 -0.0620
   9523SM  H11S12828   1.806   0.343   3.583 -0.9883  0.7033  1.3772
   9523SM  H11T12829   1.744   0.190   3.670  0.4302  0.4844  1.4141
   9523SM  C12S12830   1.667   0.374   3.739 -0.3014  0.3962  0.0816
   9523SM  H12S12831   1.556   0.359   3.737 -0.5628  2.2231 -1.2945
   9523SM  H12T12832   1.688   0.480   3.715  0.3876 -0.2754 -2.5750
   9523SM  C13S12833   1.710   0.334   3.878 -0.1355  0.0701  0.0696
   9523SM  H13S12834   1.817   0.361   3.890  0.2601 -1.5330  0.2843
   9523SM  H13T12835   1.679   0.229   3.896 -0.7017  0.2121 -0.0512
   9523SM  C14S12836   1.632   0.421   3.980  0.3574 -0.2918 -0.5706
   9523SM  H14S12837   1.655   0.378   4.080  1.3484 -0.2030 -0.7586
   9523SM  H14T12838   1.522   0.400   3.979  0.2059  0.2271  1.4532
   9523SM  C15S12839   1.674   0.566   3.977  0.7175  1.1523 -0.2731
   9523SM  H15S12840   1.669   0.607   3.874  0.3036 -2.6139 -1.9379
   9523SM  H15T12841   1.782   0.573   4.003  0.2482 -2.0457  3.6474
   9523SM  C16S12842   1.595   0.639   4.085 -0.6934  0.1098 -0.0582
   9523SM  H16S12843   1.606   0.575   4.175 -2.0626  0.0368  0.0832
   9523SM  H16T12844   1.488   0.642   4.053  0.0286  1.2253 -2.6183
   9523SM  C17S12845   1.653   0.775   4.122  0.6938  0.1630  0.7213
   9523SM  H17S12846   1.637   0.848   4.039 -0.0256  0.0249  0.7331
   9523SM  H17T12847   1.761   0.776   4.145  0.7006  4.1892  1.3518
   9523SM  C18S12848   1.583   0.821   4.253  0.5641  0.4860 -1.0754
   9523SM  H18S12849   1.594   0.740   4.328  0.8858  0.7837 -0.8031
   9523SM  H18T12850   1.473   0.835   4.245  0.4627  0.5181  0.2192
   9523SM  H18U12851   1.620   0.920   4.287 -0.6360  0.8501 -0.7696
   9523SM   C1F12852   1.814   0.933   2.897 -0.4693  0.4478  0.2411
   9523SM    OF12853   1.865   1.040   2.930  0.4689  0.7064  0.6989
   9523SM   C2F12854   1.877   0.836   2.799  0.8200  0.4167 -0.0671
   9523SM   H2F12855   1.898   0.906   2.715  0.4892 -0.1750 -0.6568
   9523SM   H2G12856   1.808   0.761   2.756  2.2249 -0.6070 -0.6430
   9523SM   C3F12857   2.007   0.770   2.852 -0.4525  0.2340  0.3529
   9523SM   H3F12858   1.973   0.719   2.945  1.4420 -0.6246  0.6294
   9523SM   H3G12859   2.081   0.844   2.891 -0.0708  0.2152 -0.3167
   9523SM   C4F12860   2.085   0.679   2.755  0.5807 -0.0470  0.9135
   9523SM   H4F12861   2.145   0.742   2.686 -1.2836  0.6473 -0.1170
   9523SM   H4G12862   2.014   0.628   2.687  1.0872  0.2529  0.1510
   9523SM   C5F12863   2.172   0.569   2.823 -0.2202  0.0492 -0.5065
   9523SM   H5F12864   2.240   0.527   2.746 -1.0496 -0.4443 -0.9810
   9523SM   H5G12865   2.104   0.486   2.854 -1.4085  1.9943  2.4584
   9523SM   C6F12866   2.263   0.601   2.945  0.0321 -0.6852  0.3611
   9523SM   H6F12867   2.213   0.663   3.023  1.4048  0.1916  0.5830
   9523SM   H6G12868   2.345   0.664   2.904  1.1885 -2.6675 -0.5367
   9523SM   C7F12869   2.334   0.476   3.005  0.7629 -0.6017  0.9296
   9523SM   H7F12870   2.383   0.421   2.922 -0.7288 -0.9655  0.2597
   9523SM   H7G12871   2.253   0.408   3.039 -0.8474  0.5717 -0.3853
   9523SM   C8F12872   2.439   0.513   3.116 -0.5490 -0.4797 -0.2477
   9523SM   H8F12873   2.497   0.602   3.086 -0.0567 -0.6915  0.0676
   9523SM   H8G12874   2.512   0.432   3.136 -0.1083 -0.2637 -0.9787
   9523SM   C9F12875   2.374   0.548   3.251  1.3561  0.5499  0.3833
   9523SM   H9F12876   2.305   0.465   3.279 -0.2556  1.6167 -0.2275
   9523SM   H9G12877   2.303   0.632   3.234  0.7293 -0.0575 -0.0800
   9523SM  C10F12878   2.471   0.587   3.366  0.5454  0.0737 -0.0230
   9523SM  H10F12879   2.496   0.695   3.358 -3.1659  1.1805  1.0995
   9523SM  H10G12880   2.563   0.528   3.381  0.4063  0.2581  1.7352
   9523SM  C11F12881   2.410   0.573   3.506 -0.0253 -0.1531  0.0997
   9523SM  H11F12882   2.345   0.484   3.519 -1.6036  0.6669 -1.5919
   9523SM  H11G12883   2.337   0.657   3.506 -2.0050 -1.7251 -2.4697
   9523SM  C12F12884   2.512   0.598   3.614 -0.3210  0.0969 -0.5869
   9523SM  H12F12885   2.568   0.693   3.602  0.6997 -0.2288  1.1611
   9523SM  H12G12886   2.589   0.520   3.598 -0.8482 -0.3574 -0.9525
   9523SM  C13F12887   2.453   0.625   3.752 -0.2020  0.5542  0.3726
   9523SM  H13F12888   2.433   0.526   3.798  0.7078 -0.9557 -2.2391
   9523SM  H13G12889   2.374   0.703   3.751  1.4968  2.3584 -0.8382
   9523SM  C14F12890   2.561   0.677   3.846 -0.0335  0.2084 -0.5660
   9523SM  H14F12891   2.597   0.778   3.814  0.9221 -0.2024 -0.8453
   9523SM  H14G12892   2.647   0.607   3.840 -2.3099 -3.0532  1.6491
   9523SM  C15F12893   2.519   0.679   3.994 -0.8127  0.1399 -0.1112
   9523SM  H15F12894   2.412   0.710   3.994  0.0424  3.4028 -0.4598
   9523SM  H15G12895   2.566   0.767   4.041 -0.9090  0.2606 -0.2399
   9523SM  C16F12896   2.559   0.560   4.072 -0.1515 -0.4678  0.0889
   9523SM  H16F12897   2.668   0.544   4.057 -0.4046 -0.7520 -1.6342
   9523SM  H16G12898   2.518   0.468   4.026  1.5203 -0.2326 -2.0328
   9523SM  C17F12899   2.525   0.575   4.223  0.5243 -0.5128  0.7034
   9523SM  H17F12900   2.529   0.476   4.272 -1.4660  0.0643  2.1780
   9523SM  H17G12901   2.421   0.615   4.228 -0.1303 -2.2218  1.4995
   9523SM  C18F12902   2.623   0.670   4.295 -0.0806 -0.7115 -0.7075
   9523SM  H18F12903   2.626   0.770   4.247 -0.2018  0.7604  2.1261
   9523SM  H18G12904   2.727   0.634   4.278  0.8970  0.9605  1.2557
   9523SM  C19F12905   2.585   0.693   4.444  0.4845  0.2792 -0.3392
   9523SM  H19F12906   2.673   0.743   4.490 -0.1122  0.6622  0.4161
   9523SM  H19G12907   2.572   0.596   4.496  0.9961  0.6106  0.4309
   9523SM  C20F12908   2.455   0.774   4.468 -0.2907  0.2349  0.5932
   9523SM  H20F12909   2.371   0.706   4.491 -1.7259  2.5490  2.7641
   9523SM  H20G12910   2.435   0.829   4.374 -1.2430 -0.9233  0.1022
   9523SM  C21F12911   2.459   0.855   4.600  0.1489 -0.1156 -0.4914
   9523SM  H21F12912   2.523   0.945   4.590 -0.0796  0.5698  2.9562
   9523SM  H21G12913   2.522   0.795   4.669 -0.2360 -0.5207 -0.4884
   9523SM  C22F12914   2.327   0.881   4.669  0.2361 -0.5300 -0.2586
   9523SM  H22F12915   2.264   0.792   4.646 -0.7175  0.4410 -1.6236
   9523SM  H22G12916   2.277   0.967   4.619 -0.0923 -0.2053  0.6039
   9523SM  C23F12917   2.328   0.911   4.822 -0.2155  0.2414  0.4617
   9523SM  H23F12918   2.369   0.815   4.861 -1.0781 -1.3330 -2.2550
   9523SM  H23G12919   2.233   0.941   4.871  0.0779 -0.1075  1.2622
   9523SM  H23H12920   2.405   0.990   4.837  1.4116 -0.9541 -1.1895
   9623SM     N12921   1.880   7.344   2.457  0.2837 -0.3944  0.2353
   9623SM   C1512922   1.871   7.487   2.403  0.1709 -0.9668 -0.1628
   9623SM  H15A12923   1.781   7.499   2.345  1.6775 -0.2082 -2.5008
   9623SM  H15B12924   1.960   7.509   2.345  0.7008 -0.4059  0.8355
   9623SM  H15C12925   1.884   7.554   2.487  0.0022 -0.1688 -0.7611
   9623SM   C1412926   1.767   7.317   2.553 -0.5862  0.0436  0.3267
   9623SM  H14A12927   1.769   7.216   2.590  0.9455  0.1181  0.5023
   9623SM  H14B12928   1.672   7.331   2.503 -1.2887 -2.1025  0.9641
   9623SM  H14C12929   1.771   7.390   2.633 -1.6837  0.4583  0.0211
   9623SM   C1312930   1.865   7.258   2.342 -0.0132 -0.3706 -0.5339
   9623SM  H13A12931   1.889   7.155   2.364  0.7225 -0.1536 -0.2771
   9623SM  H13B12932   1.922   7.293   2.257 -0.0007 -0.5032 -0.5814
   9623SM  H13C12933   1.763   7.256   2.307 -1.1033  3.1234  1.9222
   9623SM   C1212934   2.012   7.322   2.518  0.1786 -0.3016 -0.3548
   9623SM  H12A12935   2.081   7.340   2.437  2.1591  0.0224  1.3384
   9623SM  H12B12936   2.020   7.219   2.547  2.0498  0.4335  2.0560
   9623SM   C1112937   2.048   7.409   2.645 -0.0486  0.2691 -0.1814
   9623SM  H11A12938   2.151   7.381   2.678 -0.2234 -1.3959 -0.9335
   9623SM  H11B12939   1.979   7.376   2.726 -0.9056 -2.3629 -1.8230
   9623SM     P12940   2.148   7.641   2.605 -0.3815  0.4529  0.2600
   9623SM   O1312941   2.232   7.591   2.489 -1.0731 -0.2666 -0.2976
   9623SM   O1412942   2.103   7.779   2.592 -0.0324  0.6127  0.0066
   9623SM   O1112943   2.247   7.627   2.733  0.1691  0.2564  0.3178
   9623SM   O1212944   2.021   7.549   2.620 -0.2467  0.0176 -0.4376
   9623SM   C1S12945   2.182   7.662   2.857 -0.3407 -0.2980  0.0066
   9623SM   H1S12946   2.108   7.586   2.891 -0.0556  0.6560  3.1222
   9623SM   H1T12947   2.132   7.761   2.857 -0.4615 -0.3472  1.1028
   9623SM    NF12948   2.211   7.647   3.100 -0.3862  0.2745  0.1494
   9623SM   HNF12949   2.189   7.736   3.141  2.0222  1.2075 -0.4169
   9623SM   C2S12950   2.283   7.658   2.977 -0.3532 -0.0054  0.1738
   9623SM   H2S12951   2.358   7.577   2.973  1.9824  1.8964  2.2936
   9623SM   C3S12952   2.359   7.791   2.967  0.0390 -0.8725 -0.1292
   9623SM   H3S12953   2.289   7.875   2.950  0.6206 -0.4539 -0.4821
   9623SM    O312954   2.436   7.808   2.847  0.1635 -0.1668  0.1335
   9623SM   HO312955   2.413   7.733   2.791  1.0218  1.3811 -2.4934
   9623SM   C4S12956   2.442   7.832   3.085  0.5389 -0.1455  0.0115
   9623SM   H4S12957   2.379   7.869   3.167 -0.5585 -0.4021 -0.6990
   9623SM   C5S12958   2.569   7.812   3.107 -0.7933  0.8678 -0.1188
   9623SM   H5S12959   2.636   7.763   3.034 -0.7356  0.1612  0.3964
   9623SM   C6S12960   2.635   7.848   3.237 -0.1328  0.4185 -0.2999
   9623SM   H6S12961   2.687   7.946   3.229 -0.6223  0.8313  1.1347
   9623SM   H6T12962   2.711   7.769   3.255 -0.0459  0.4201 -0.6522
   9623SM   C7S12963   2.545   7.842   3.354  0.4337 -0.1537 -0.3755
   9623SM   H7S12964   2.501   7.740   3.355 -2.9322  1.1664 -0.8778
   9623SM   H7T12965   2.457   7.909   3.341  0.4308  0.3784  1.9074
   9623SM   C8S12966   2.613   7.877   3.487  0.4099 -0.7861  0.0314
   9623SM   H8S12967   2.649   7.981   3.472  0.5685 -0.8548 -0.0643
   9623SM   H8T12968   2.705   7.816   3.501  1.0652  0.8264  4.2473
   9623SM   C9S12969   2.513   7.866   3.606  0.2523 -0.2241  1.2637
   9623SM   H9S12970   2.456   7.771   3.593  1.6094 -0.7979 -0.9224
   9623SM   H9T12971   2.443   7.952   3.601 -0.4579 -0.8361  0.3352
   9623SM  C10S12972   2.583   7.856   3.742  0.2653  0.0523  0.0424
   9623SM  H10S12973   2.655   7.939   3.756  0.2831  0.1213 -0.4468
   9623SM  H10T12974   2.632   7.758   3.729  0.9901 -0.0032  2.6064
   9623SM  C11S12975   2.483   7.856   3.855  0.3124 -0.2967 -0.2103
   9623SM  H11S12976   2.392   7.801   3.820 -0.1208  0.7160 -0.7217
   9623SM  H11T12977   2.450   7.959   3.880  0.7391  0.2601 -1.7992
   9623SM  C12S12978   2.536   7.801   3.991 -0.0336 -0.1596  0.3018
   9623SM  H12S12979   2.637   7.848   3.995 -0.5190  1.0675 -1.0535
   9623SM  H12T12980   2.554   7.691   3.983  0.1582 -0.1025 -0.0606
   9623SM  C13S12981   2.464   7.841   4.122 -0.6032  0.1115  0.7778
   9623SM  H13S12982   2.363   7.794   4.117 -0.4333 -0.4320  2.1569
   9623SM  H13T12983   2.463   7.953   4.121  0.4547  0.1345 -0.5445
   9623SM  C14S12984   2.531   7.795   4.250 -0.5573 -0.0367  0.0870
   9623SM  H14S12985   2.517   7.685   4.260  0.6945 -0.3848 -1.5103
   9623SM  H14T12986   2.465   7.838   4.328 -1.0900 -1.9758  0.7832
   9623SM  C15S12987   2.672   7.832   4.262  0.7541  0.9763 -0.1517
   9623SM  H15S12988   2.686   7.932   4.216  0.4933  1.1208  0.0835
   9623SM  H15T12989   2.733   7.761   4.201  1.1454  1.4629 -0.3391
   9623SM  C16S12990   2.734   7.812   4.402 -0.1610 -0.2218 -0.0649
   9623SM  H16S12991   2.844   7.827   4.392 -0.2189  1.5393  1.3812
   9623SM  H16T12992   2.721   7.708   4.441  1.9307 -0.9978 -1.2778
   9623SM  C17S12993   2.686   7.919   4.507  0.3073  0.5273  0.6584
   9623SM  H17S12994   2.577   7.904   4.520  0.2365 -0.0714 -0.4282
   9623SM  H17T12995   2.699   8.017   4.457  2.1369  0.0577  0.1347
   9623SM  C18S12996   2.764   7.905   4.638 -0.8026 -0.0421 -0.0715
   9623SM  H18S12997   2.710   7.839   4.709  0.7589 -0.6732  0.5726
   9623SM  H18T12998   2.776   8.004   4.686 -2.1399 -0.4140  1.0824
   9623SM  H18U12999   2.865   7.861   4.619 -1.2856 -0.4456 -1.8882
   9623SM   C1F13000   2.169   7.528   3.149  0.0315 -0.6227  0.3067
   9623SM    OF13001   2.211   7.426   3.100  0.2971  0.2347  0.0893
   9623SM   C2F13002   2.076   7.533   3.269 -0.3348  0.5356 -0.3142
   9623SM   H2F13003   2.100   7.621   3.332 -0.3013  1.2757 -1.3391
   9623SM   H2G13004   2.102   7.437   3.319  0.8527 -0.0144 -1.8956
   9623SM   C3F13005   1.926   7.522   3.223  0.1764 -0.6391 -0.9318
   9623SM   H3F13006   1.893   7.430   3.171 -1.4826 -0.0769 -0.9593
   9623SM   H3G13007   1.907   7.613   3.162  1.1290  0.6249  0.5814
   9623SM   C4F13008   1.847   7.519   3.354  0.1158 -0.2324  0.2975
   9623SM   H4F13009   1.875   7.609   3.414 -0.8422 -0.8399  1.7419
   9623SM   H4G13010   1.877   7.432   3.417 -1.5765 -0.7703  0.4284
   9623SM   C5F13011   1.692   7.504   3.339  1.0204 -0.7634  0.4289
   9623SM   H5F13012   1.666   7.440   3.252 -0.3476 -0.8837  0.8967
   9623SM   H5G13013   1.655   7.607   3.317 -0.5284 -1.5935 -1.0910
   9623SM   C6F13014   1.626   7.447   3.462  0.6731 -0.0921 -0.3707
   9623SM   H6F13015   1.673   7.346   3.460  1.9128  0.4516 -0.0191
   9623SM   H6G13016   1.516   7.457   3.454  0.5709  0.8208  1.7229
   9623SM   C7F13017   1.655   7.529   3.590  0.1403  0.0260  0.1560
   9623SM   H7F13018   1.594   7.622   3.584 -2.1709 -1.5233 -2.2204
   9623SM   H7G13019   1.758   7.571   3.584 -0.7078  2.1045 -0.9987
   9623SM   C8F13020   1.622   7.460   3.722 -0.4540 -0.7661  0.0375
   9623SM   H8F13021   1.684   7.371   3.747 -1.7698 -0.9382  3.0986
   9623SM   H8G13022   1.520   7.420   3.741  0.8206 -3.3852  2.0824
   9623SM   C9F13023   1.649   7.568   3.833 -0.0178  0.4954 -0.1941
   9623SM   H9F13024   1.586   7.656   3.807  0.3266  0.8706  0.2409
   9623SM   H9G13025   1.754   7.605   3.828  0.1019  0.0078 -2.0105
   9623SM  C10F13026   1.613   7.516   3.973 -0.0500  0.4575  0.1617
   9623SM  H10F13027   1.680   7.432   4.002  0.1664  0.4324 -0.3884
   9623SM  H10G13028   1.508   7.479   3.962  0.2756  0.1015 -2.5675
   9623SM  C11F13029   1.614   7.623   4.086 -0.7387  0.3098 -0.1323
   9623SM  H11F13030   1.549   7.704   4.046 -2.0213 -0.2597  0.7404
   9623SM  H11G13031   1.718   7.661   4.092 -0.3544 -0.5348 -1.1580
   9623SM  C12F13032   1.560   7.572   4.215 -0.3474  0.7673 -0.4070
   9623SM  H12F13033   1.470   7.510   4.198 -0.5504  1.0429 -0.3321
   9623SM  H12G13034   1.531   7.654   4.284  0.4190 -0.0453  0.9396
   9623SM  C13F13035   1.662   7.491   4.294  0.7190 -0.3479  0.8588
   9623SM  H13F13036   1.760   7.542   4.300  0.6684 -0.1316  0.0553
   9623SM  H13G13037   1.684   7.400   4.234 -2.1537 -0.8679  0.4601
   9623SM  C14F13038   1.606   7.451   4.433  0.6321 -0.3609 -1.1939
   9623SM  H14F13039   1.500   7.421   4.417 -0.1129  0.2621  1.9288
   9623SM  H14G13040   1.607   7.538   4.502 -1.5721 -0.8114 -0.5066
   9623SM  C15F13041   1.675   7.335   4.499 -0.1568  0.1747 -0.1575
   9623SM  H15F13042   1.784   7.353   4.508 -0.3384  1.7231 -0.7572
   9623SM  H15G13043   1.658   7.252   4.427 -1.7828  0.0797  0.2874
   9623SM  C16F13044   1.636   7.311   4.648  0.3609 -0.0950  0.0183
   9623SM  H16F13045   1.700   7.231   4.691 -0.1363 -1.5369 -1.7835
   9623SM  H16G13046   1.531   7.277   4.652 -0.5280  2.2357 -1.0466
   9623SM  C17F13047   1.640   7.440   4.729  0.8143 -0.3370 -0.4877
   9623SM  H17F13048   1.564   7.515   4.697  1.4204 -0.3196 -1.9825
   9623SM  H17G13049   1.738   7.492   4.716  0.6329 -0.3400 -2.0122
   9623SM  C18F13050   1.617   7.419   4.877 -0.3038 -0.2389  0.2400
   9623SM  H18F13051   1.540   7.340   4.890 -1.8029  0.9894 -0.7538
   9623SM  H18G13052   1.597   7.506   4.943  3.0625  0.1024  0.9621
   9623SM  C19F13053   1.744   7.367   4.945  0.9465  0.0710 -1.0306
   9623SM  H19F13054   1.816   7.452   4.942 -0.0655  1.0164  0.3792
   9623SM  H19G13055   1.783   7.278   4.891 -2.8445 -2.5928  0.2280
   9623SM  C20F13056   1.714   7.330   5.093 -0.1657  0.0111  0.6173
   9623SM  H20F13057   1.651   7.239   5.094 -0.4691  0.2210  1.0362
   9623SM  H20G13058   1.665   7.420   5.136  2.3011  0.3640  2.9487
   9623SM  C21F13059   1.852   7.305   5.164 -0.3916 -0.5837  0.4760
   9623SM  H21F13060   1.902   7.404   5.171 -0.3180 -0.6490  0.8966
   9623SM  H21G13061   1.911   7.234   5.103 -0.2746 -0.6702  0.6893
   9623SM  C22F13062   1.842   7.242   5.303 -0.5894  0.2836 -0.4590
   9623SM  H22F13063   1.796   7.141   5.299 -1.2856  0.5747  0.0991
   9623SM  H22G13064   1.771   7.309   5.357 -0.5443 -1.5950  2.0783
   9623SM  C23F13065   1.970   7.232   5.381  0.2092  0.4199  0.2380
   9623SM  H23F13066   1.998   7.338   5.398  0.6342  0.5762 -1.2869
   9623SM  H23G13067   2.052   7.173   5.334  0.4757  0.1261  1.0506
   9623SM  H23H13068   1.967   7.174   5.475  2.0291 -3.3257 -1.7632
   9723SM     N13069   3.818   1.925   2.354 -0.0488 -0.1427  0.3472
   9723SM   C1513070   3.832   1.939   2.208  0.1980 -0.2884  0.4448
   9723SM  H15A13071   3.782   1.856   2.162 -1.0076  0.5874  0.1354
   9723SM  H15B13072   3.935   1.922   2.180  0.1284  0.7442 -0.4883
   9723SM  H15C13073   3.790   2.033   2.174  1.6881  0.3724  0.3413
   9723SM   C1413074   3.794   2.070   2.417 -0.2463  0.4090  0.5507
   9723SM  H14A13075   3.892   2.113   2.404  1.5207 -3.7750 -2.4009
   9723SM  H14B13076   3.787   2.067   2.524  0.0239  0.3828  0.5679
   9723SM  H14C13077   3.722   2.132   2.365 -0.9793  0.1487  1.2210
   9723SM   C1313078   3.688   1.848   2.371  0.3194 -0.3376 -0.1886
   9723SM  H13A13079   3.667   1.831   2.476 -0.5887 -0.1373 -0.3317
   9723SM  H13B13080   3.691   1.751   2.323 -1.2118 -0.0312 -0.9753
   9723SM  H13C13081   3.603   1.906   2.339  1.8580  1.4606 -1.1846
   9723SM   C1213082   3.942   1.864   2.421  0.4964 -0.9672  0.0581
   9723SM  H12A13083   4.035   1.909   2.388 -0.2050  0.7156  0.2911
   9723SM  H12B13084   3.945   1.762   2.385 -0.4398 -0.3353 -1.9480
   9723SM   C1113085   3.954   1.883   2.573 -0.2441  0.6963  0.2866
   9723SM  H11A13086   3.973   1.989   2.601 -1.1968  0.6509  1.1378
   9723SM  H11B13087   4.036   1.816   2.605 -1.2243 -1.5249 -1.5713
   9723SM     P13088   3.809   1.699   2.712  0.1148 -0.3961  0.4440
   9723SM   O1313089   3.697   1.707   2.807 -0.1298 -0.1396  0.2077
   9723SM   O1413090   3.802   1.603   2.601  0.3348  0.3163 -0.1599
   9723SM   O1113091   3.942   1.669   2.797  0.2777  0.2131  1.0510
   9723SM   O1213092   3.840   1.845   2.647  0.3632 -0.0648  0.0719
   9723SM   C1S13093   3.981   1.752   2.909  0.0274  0.1597  0.1085
   9723SM   H1S13094   3.908   1.833   2.927  2.5800  2.4437  0.7984
   9723SM   H1T13095   4.076   1.808   2.894  0.8964 -0.9209  1.3081
   9723SM    NF13096   3.973   1.737   3.157 -0.2199 -0.5740  0.7273
   9723SM   HNF13097   4.058   1.770   3.197 -0.2560  0.6193 -0.1032
   9723SM   C2S13098   3.982   1.660   3.034  0.1478  0.2840  0.1014
   9723SM   H2S13099   3.896   1.590   3.034 -1.3417  2.0209  0.8145
   9723SM   C3S13100   4.118   1.584   3.029  0.2794 -0.5709  0.1547
   9723SM   H3S13101   4.208   1.647   3.013 -0.1286 -0.5380 -2.4820
   9723SM    O313102   4.141   1.512   2.910  0.3469 -0.4581  0.2162
   9723SM   HO313103   4.067   1.531   2.853 -0.8809 -0.0370  1.8873
   9723SM   C4S13104   4.154   1.504   3.150  0.0276 -0.1749  0.0868
   9723SM   H4S13105   4.215   1.558   3.224  2.0467 -1.0884 -0.8175
   9723SM   C5S13106   4.130   1.370   3.171 -0.0542 -0.3942 -0.5962
   9723SM   H5S13107   4.075   1.315   3.093  3.3498 -2.1724 -1.9608
   9723SM   C6S13108   4.177   1.289   3.290 -0.3739  0.4402  0.3481
   9723SM   H6S13109   4.281   1.320   3.316 -0.5857  0.5667  1.0733
   9723SM   H6T13110   4.172   1.182   3.261 -1.7832  1.1203 -2.2419
   9723SM   C7S13111   4.084   1.307   3.407 -0.7674 -0.5754  1.2572
   9723SM   H7S13112   3.987   1.260   3.380 -0.7212  0.2368 -0.4937
   9723SM   H7T13113   4.066   1.416   3.424 -0.4356 -0.4756  0.9848
   9723SM   C8S13114   4.129   1.230   3.528  0.1743  0.3192  0.3105
   9723SM   H8S13115   4.132   1.125   3.492  1.1144  0.8684 -1.3221
   9723SM   H8T13116   4.048   1.241   3.603  0.5499  0.1232  0.7489
   9723SM   C9S13117   4.258   1.273   3.586 -0.2287 -0.3537  0.3339
   9723SM   H9S13118   4.260   1.383   3.594  2.3979 -0.0555 -2.4103
   9723SM   H9T13119   4.341   1.249   3.515 -1.7024  0.1357 -1.6311
   9723SM  C10S13120   4.312   1.208   3.718  0.4733  0.4054 -0.7535
   9723SM  H10S13121   4.316   1.097   3.708 -1.1535  0.3150 -0.8116
   9723SM  H10T13122   4.233   1.244   3.787  0.8237  0.7886 -0.5529
   9723SM  C11S13123   4.449   1.257   3.762  0.5704 -0.2482 -0.2686
   9723SM  H11S13124   4.436   1.360   3.801  1.2500 -0.4936  0.6266
   9723SM  H11T13125   4.517   1.262   3.674  1.4938 -2.1385  0.2938
   9723SM  C12S13126   4.514   1.174   3.882 -0.2435 -0.2547 -0.2316
   9723SM  H12S13127   4.618   1.209   3.899  0.9100 -2.0122 -2.9644
   9723SM  H12T13128   4.521   1.072   3.839  2.2176  0.8339 -2.7627
   9723SM  C13S13129   4.427   1.167   4.009 -0.9511 -0.0475  0.3700
   9723SM  H13S13130   4.331   1.114   3.990 -2.3772  1.4873  2.9405
   9723SM  H13T13131   4.413   1.267   4.053  1.5650  0.1095  0.9521
   9723SM  C14S13132   4.507   1.105   4.126 -1.0492 -0.0268  0.2701
   9723SM  H14S13133   4.586   1.175   4.160  0.3294 -1.8225  0.9321
   9723SM  H14T13134   4.559   1.016   4.084  0.4543 -0.5109  2.9509
   9723SM  C15S13135   4.430   1.058   4.240  0.0212  0.0951 -0.3298
   9723SM  H15S13136   4.370   0.968   4.214  1.5458 -1.4129  1.0991
   9723SM  H15T13137   4.366   1.140   4.279  0.8097  1.0877 -1.0688
   9723SM  C16S13138   4.530   1.005   4.342  0.7546 -0.0518  0.1781
   9723SM  H16S13139   4.597   1.081   4.389  1.3123 -0.5095  0.1461
   9723SM  H16T13140   4.593   0.930   4.290 -0.1293  0.6548 -2.0569
   9723SM  C17S13141   4.453   0.932   4.453  0.6545 -0.1673  0.0003
   9723SM  H17S13142   4.385   0.861   4.403  0.6288 -0.5734  0.5961
   9723SM  H17T13143   4.394   1.004   4.514  0.4959  1.1721 -1.6798
   9723SM  C18S13144   4.550   0.855   4.540  0.3742  0.0800  0.2074
   9723SM  H18S13145   4.596   0.785   4.467  1.1187  0.7562 -0.0001
   9723SM  H18T13146   4.498   0.795   4.617 -1.2215 -2.3882 -2.5644
   9723SM  H18U13147   4.629   0.923   4.579  0.0884 -0.0916  1.1100
   9723SM   C1F13148   3.858   1.779   3.213  0.0494  0.1758 -0.7533
   9723SM    OF13149   3.749   1.744   3.171  0.3335  0.4135 -0.4217
   9723SM   C2F13150   3.869   1.865   3.339 -0.4258  0.3489 -0.6676
   9723SM   H2F13151   3.815   1.958   3.310 -0.7219  0.3014 -0.2705
   9723SM   H2G13152   3.977   1.880   3.362 -0.1789  0.3657 -1.7808
   9723SM   C3F13153   3.808   1.804   3.470 -0.1847  0.2028  0.0281
   9723SM   H3F13154   3.697   1.794   3.474 -0.4575  2.9998  1.1217
   9723SM   H3G13155   3.839   1.881   3.544 -0.1888 -0.6999  0.9896
   9723SM   C4F13156   3.883   1.673   3.511 -0.2971 -0.5601 -0.8909
   9723SM   H4F13157   3.988   1.682   3.477  0.5927  0.3038  1.8379
   9723SM   H4G13158   3.848   1.585   3.453  0.7354 -3.0749  1.9804
   9723SM   C5F13159   3.890   1.635   3.662 -0.2206  0.0349  0.1098
   9723SM   H5F13160   3.794   1.588   3.693  0.7244 -1.1052  1.4486
   9723SM   H5G13161   3.924   1.719   3.726  0.6937 -0.6888  0.5858
   9723SM   C6F13162   4.005   1.531   3.678  0.1781  0.1616  0.4137
   9723SM   H6F13163   4.100   1.567   3.634  0.2546 -2.6638 -2.0664
   9723SM   H6G13164   3.973   1.448   3.611  2.8151 -1.3706  0.9172
   9723SM   C7F13165   4.007   1.468   3.814 -0.1974 -0.4390  0.4178
   9723SM   H7F13166   4.080   1.385   3.806 -0.2639 -0.3413 -1.9019
   9723SM   H7G13167   3.909   1.422   3.840 -0.2798  1.1708  3.4668
   9723SM   C8F13168   4.046   1.562   3.927 -0.2099 -0.0619 -1.1928
   9723SM   H8F13169   3.959   1.622   3.960 -0.5972 -1.6764  0.9837
   9723SM   H8G13170   4.128   1.627   3.890  0.3456 -0.7431 -1.1779
   9723SM   C9F13171   4.111   1.480   4.039 -0.7349 -0.6129  0.0125
   9723SM   H9F13172   4.166   1.546   4.109 -0.2067 -1.1792  0.1411
   9723SM   H9G13173   4.177   1.407   3.987 -0.8788 -0.0756 -0.9412
   9723SM  C10F13174   4.024   1.391   4.125  0.9572  0.4893 -0.8382
   9723SM  H10F13175   3.984   1.309   4.062  2.8797 -1.8486  0.7839
   9723SM  H10G13176   3.935   1.449   4.158  1.2442  0.9099 -0.8023
   9723SM  C11F13177   4.098   1.318   4.234 -0.4904  0.2805 -0.5940
   9723SM  H11F13178   4.148   1.392   4.300  0.6411 -0.3363 -0.7341
   9723SM  H11G13179   4.177   1.254   4.189  0.0902  1.0100 -0.6228
   9723SM  C12F13180   4.014   1.214   4.313 -0.0255  0.1565 -0.1869
   9723SM  H12F13181   4.084   1.178   4.391  0.2728  2.1107  0.4926
   9723SM  H12G13182   3.984   1.126   4.251 -0.9512  0.5085 -0.2613
   9723SM  C13F13183   3.888   1.265   4.386  0.0588  0.1760  0.4041
   9723SM  H13F13184   3.815   1.320   4.323  0.6015  1.4090  0.8180
   9723SM  H13G13185   3.925   1.336   4.464 -0.6196  0.2481  0.6622
   9723SM  C14F13186   3.814   1.148   4.457 -0.1115 -0.3095 -0.0942
   9723SM  H14F13187   3.895   1.097   4.513 -0.7179  1.1023  2.2005
   9723SM  H14G13188   3.771   1.073   4.386 -0.9396 -0.0866  0.1597
   9723SM  C15F13189   3.708   1.192   4.556  1.0650  0.3846 -0.0276
   9723SM  H15F13190   3.636   1.267   4.517  1.0268  0.9836  1.1225
   9723SM  H15G13191   3.745   1.251   4.643 -1.3517 -0.0784  1.4079
   9723SM  C16F13192   3.626   1.073   4.622 -0.2991 -0.4213  0.2267
   9723SM  H16F13193   3.584   1.001   4.548 -1.0200 -1.4184  1.5759
   9723SM  H16G13194   3.540   1.110   4.682  1.2955  0.4177  2.1059
   9723SM  C17F13195   3.720   0.977   4.701 -0.2112 -0.0067 -0.0423
   9723SM  H17F13196   3.735   1.018   4.804 -0.0430  0.8680 -0.4113
   9723SM  H17G13197   3.817   0.978   4.647 -0.1064 -1.1553  0.0878
   9723SM  C18F13198   3.684   0.828   4.698  0.1154  1.0970 -0.3417
   9723SM  H18F13199   3.776   0.781   4.737 -1.2542 -0.5560  1.0950
   9723SM  H18G13200   3.662   0.809   4.591 -1.9281 -1.7490  0.4655
   9723SM  C19F13201   3.565   0.787   4.786  0.1008 -0.7510 -0.2645
   9723SM  H19F13202   3.479   0.846   4.749 -0.7103 -1.6796  0.1066
   9723SM  H19G13203   3.584   0.812   4.893 -0.2436 -1.8915  0.0761
   9723SM  C20F13204   3.528   0.639   4.772 -0.9899  0.0069 -0.6505
   9723SM  H20F13205   3.601   0.586   4.837 -2.3253 -0.1076  0.8135
   9723SM  H20G13206   3.556   0.618   4.667 -0.5425 -0.1651 -0.5015
   9723SM  C21F13207   3.384   0.610   4.806  0.9329  0.1364 -0.2212
   9723SM  H21F13208   3.325   0.671   4.735  4.2284  2.0911 -1.5494
   9723SM  H21G13209   3.355   0.653   4.905 -0.5097  1.5438 -1.2066
   9723SM  C22F13210   3.344   0.465   4.803 -0.5044 -0.0941 -0.6550
   9723SM  H22F13211   3.422   0.411   4.861 -0.5840  1.2145  0.7462
   9723SM  H22G13212   3.342   0.436   4.696  0.5364  0.4404 -0.8266
   9723SM  C23F13213   3.213   0.427   4.869  0.5287 -0.0666 -0.8414
   9723SM  H23F13214   3.198   0.454   4.976 -1.5427 -0.2335 -1.0438
   9723SM  H23G13215   3.199   0.317   4.873 -0.4618  0.0669  0.0177
   9723SM  H23H13216   3.127   0.458   4.807  0.7888 -1.3610 -1.8901
   9823SM     N13217   0.324   0.999   2.799 -0.5715 -0.2288 -0.7821
   9823SM   C1513218   0.254   0.970   2.675  0.2938 -0.2641 -0.4233
   9823SM  H15A13219   0.263   1.052   2.606  2.6073 -0.8025 -0.8559
   9823SM  H15B13220   0.150   0.955   2.699  1.0973 -0.9867  3.2175
   9823SM  H15C13221   0.295   0.875   2.644 -0.3400  0.2911 -3.1956
   9823SM   C1413222   0.281   1.125   2.862  0.2436  0.0077  0.5308
   9823SM  H14A13223   0.173   1.130   2.870  0.3451  0.2655  2.0343
   9823SM  H14B13224   0.315   1.212   2.809  0.8574  0.5986  1.8347
   9823SM  H14C13225   0.328   1.150   2.956  1.9558 -0.4200 -0.1724
   9823SM   C1313226   0.321   0.886   2.892 -0.6323 -0.2497  0.7811
   9823SM  H13A13227   0.374   0.916   2.981 -1.5089 -0.0843  1.2592
   9823SM  H13B13228   0.373   0.802   2.849 -0.8655 -1.1685  2.2358
   9823SM  H13C13229   0.222   0.849   2.914  0.1126 -3.0828 -0.2438
   9823SM   C1213230   0.476   1.019   2.765  0.3410  0.5776  0.4515
   9823SM  H12A13231   0.531   1.032   2.857  0.1760 -0.4483  0.7056
   9823SM  H12B13232   0.485   1.108   2.704 -1.0744 -0.8742 -2.0373
   9823SM   C1113233   0.546   0.911   2.673  0.2171  0.1333 -0.1303
   9823SM  H11A13234   0.648   0.957   2.672 -0.1283  1.1909  3.2486
   9823SM  H11B13235   0.499   0.912   2.572 -1.6246  1.0886  0.7102
   9823SM     P13236   0.664   0.682   2.730  0.3894 -0.0127 -0.0984
   9823SM   O1313237   0.621   0.550   2.787 -0.3751  0.1447  0.2957
   9823SM   O1413238   0.730   0.683   2.599 -0.3473  0.1803 -0.0407
   9823SM   O1113239   0.757   0.750   2.830  0.0219 -0.2363 -0.2650
   9823SM   O1213240   0.542   0.779   2.716 -0.1233 -0.5657  0.2193
   9823SM   C1S13241   0.700   0.820   2.941  0.0174  0.0631 -0.0705
   9823SM   H1S13242   0.597   0.783   2.961  0.4875 -0.7268  0.9541
   9823SM   H1T13243   0.690   0.928   2.916  3.9538  0.6055  0.0911
   9823SM    NF13244   0.689   0.881   3.176  0.1429 -0.6869 -0.1547
   9823SM   HNF13245   0.728   0.961   3.221 -0.3972 -0.8223  0.5744
   9823SM   C2S13246   0.771   0.809   3.078 -0.2164 -0.5280  0.1888
   9823SM   H2S13247   0.760   0.702   3.104  0.5459 -1.0635 -1.5759
   9823SM   C3S13248   0.923   0.852   3.075  0.6661  0.4410  0.4175
   9823SM   H3S13249   0.922   0.962   3.065 -1.1620  0.3117 -1.4366
   9823SM    O313250   0.984   0.814   2.948 -0.0268  0.8201  0.1504
   9823SM   HO313251   0.916   0.756   2.913  1.9724 -1.3197 -0.4363
   9823SM   C4S13252   1.004   0.803   3.193 -0.2780  0.8329  0.2979
   9823SM   H4S13253   1.055   0.884   3.248 -0.0387  0.7122  0.2524
   9823SM   C5S13254   1.030   0.675   3.234 -0.4819 -0.7905 -0.5179
   9823SM   H5S13255   0.976   0.593   3.185 -0.4895 -1.2822  0.3062
   9823SM   C6S13256   1.139   0.638   3.331 -0.0004  0.3139  0.2509
   9823SM   H6S13257   1.198   0.728   3.361 -0.6398  0.1805  1.9977
   9823SM   H6T13258   1.214   0.575   3.279  0.5451  2.3975 -1.6906
   9823SM   C7S13259   1.086   0.557   3.455  0.1597 -0.0097 -0.7023
   9823SM   H7S13260   1.030   0.472   3.413 -1.3708 -0.9051  2.7708
   9823SM   H7T13261   1.015   0.631   3.499  0.3515  0.8061 -1.7218
   9823SM   C8S13262   1.198   0.517   3.553 -0.0014  0.2157 -0.4336
   9823SM   H8S13263   1.265   0.604   3.567  1.2644 -0.7964  0.0805
   9823SM   H8T13264   1.253   0.430   3.510  1.7213  1.4224 -0.7714
   9823SM   C9S13265   1.140   0.488   3.697 -0.2704 -0.4721 -0.5280
   9823SM   H9S13266   1.056   0.418   3.677 -0.9686  0.5626 -1.3045
   9823SM   H9T13267   1.092   0.579   3.738  0.4545  0.0212 -0.7420
   9823SM  C10S13268   1.243   0.430   3.801  0.0202  0.3052  1.3021
   9823SM  H10S13269   1.322   0.509   3.803 -0.3911  0.7465  0.3397
   9823SM  H10T13270   1.284   0.336   3.759 -0.3367  0.2511  1.0741
   9823SM  C11S13271   1.182   0.415   3.944 -0.2065 -0.3120  0.0489
   9823SM  H11S13272   1.110   0.331   3.934  1.7316 -1.8475 -1.8277
   9823SM  H11T13273   1.114   0.497   3.977 -1.3462 -0.3813 -2.0319
   9823SM  C12S13274   1.272   0.391   4.067  0.3975 -0.1891  0.1434
   9823SM  H12S13275   1.326   0.484   4.096  0.0211  0.1186 -0.1178
   9823SM  H12T13276   1.336   0.301   4.058 -0.2317 -0.9557  2.6573
   9823SM  C13S13277   1.182   0.354   4.183  0.7565  0.1134  0.0475
   9823SM  H13S13278   1.120   0.264   4.159  2.5883 -1.4608  0.9645
   9823SM  H13T13279   1.111   0.437   4.202 -0.5948 -1.1540  0.7270
   9823SM  C14S13280   1.267   0.309   4.306 -0.0443  0.2590 -0.4926
   9823SM  H14S13281   1.330   0.221   4.282 -0.4792 -0.3008  0.3760
   9823SM  H14T13282   1.191   0.278   4.382 -0.4703  1.2893 -0.4773
   9823SM  C15S13283   1.363   0.417   4.363 -0.4891  0.1352  0.4770
   9823SM  H15S13284   1.312   0.510   4.395  1.6618  1.0546  1.4836
   9823SM  H15T13285   1.434   0.441   4.281  1.2135 -0.0833  1.8106
   9823SM  C16S13286   1.446   0.376   4.480  0.6091 -0.5059  1.1528
   9823SM  H16S13287   1.375   0.378   4.566 -0.7751  1.1683  0.0349
   9823SM  H16T13288   1.529   0.449   4.492  0.1472 -0.2847  3.5731
   9823SM  C17S13289   1.520   0.239   4.473  0.0042 -0.0692 -0.0351
   9823SM  H17S13290   1.450   0.154   4.482  1.9247 -1.6906  0.3920
   9823SM  H17T13291   1.595   0.224   4.554  1.9417  0.4304 -1.6428
   9823SM  C18S13292   1.595   0.219   4.343 -0.0720 -0.1439  0.3380
   9823SM  H18S13293   1.523   0.202   4.260  0.1177 -1.2054  0.3797
   9823SM  H18T13294   1.653   0.124   4.349  0.0749  0.0193  1.7889
   9823SM  H18U13295   1.658   0.306   4.314 -2.6140  1.3818 -1.0012
   9823SM   C1F13296   0.567   0.835   3.208 -0.4973  0.2007 -0.5359
   9823SM    OF13297   0.531   0.720   3.181  0.6908 -0.1702 -0.4951
   9823SM   C2F13298   0.491   0.929   3.299  0.3589  0.2978  0.5180
   9823SM   H2F13299   0.426   0.990   3.233  2.0716 -0.3072 -1.8585
   9823SM   H2G13300   0.564   0.996   3.350  0.2667 -0.9748  2.4379
   9823SM   C3F13301   0.426   0.837   3.401  0.2215 -0.2789  0.3826
   9823SM   H3F13302   0.501   0.771   3.448  1.1713 -1.9100 -3.0995
   9823SM   H3G13303   0.348   0.776   3.351 -0.8995  0.8583  0.6605
   9823SM   C4F13304   0.354   0.928   3.517  0.2596 -0.0991  0.2025
   9823SM   H4F13305   0.273   0.990   3.474 -0.0187  0.0862  0.9715
   9823SM   H4G13306   0.432   0.994   3.560 -0.9030 -0.0473  2.3543
   9823SM   C5F13307   0.287   0.845   3.627  0.8040  0.1993 -0.2990
   9823SM   H5F13308   0.209   0.780   3.582  0.0727  1.6661 -1.2340
   9823SM   H5G13309   0.233   0.920   3.689 -1.6218  0.4671 -2.5442
   9823SM   C6F13310   0.379   0.744   3.693 -0.7258 -0.4438 -0.0601
   9823SM   H6F13311   0.478   0.791   3.709 -1.2396  1.8230 -2.7593
   9823SM   H6G13312   0.392   0.663   3.618 -0.0472 -1.1172  0.7603
   9823SM   C7F13313   0.320   0.665   3.819 -0.5465 -0.1685  0.3954
   9823SM   H7F13314   0.391   0.593   3.866  0.4630  1.2202  1.0634
   9823SM   H7G13315   0.233   0.606   3.781 -0.0182 -0.3166 -0.6189
   9823SM   C8F13316   0.283   0.767   3.924 -0.2579 -0.7537 -0.1338
   9823SM   H8F13317   0.195   0.825   3.887  0.8436  0.1218 -1.4721
   9823SM   H8G13318   0.362   0.843   3.936 -0.7136  0.2811 -2.8853
   9823SM   C9F13319   0.244   0.699   4.056  0.8622  0.4269  0.5257
   9823SM   H9F13320   0.331   0.637   4.086  0.9080  1.1409  1.9677
   9823SM   H9G13321   0.159   0.633   4.029  3.2697 -2.1936 -1.2650
   9823SM  C10F13322   0.203   0.777   4.175  0.2882  0.1472 -0.3585
   9823SM  H10F13323   0.116   0.843   4.154  1.4278  1.7255 -0.2019
   9823SM  H10G13324   0.285   0.845   4.203  0.9579 -0.5178 -0.6454
   9823SM  C11F13325   0.154   0.685   4.294 -0.1728  0.4479 -0.2317
   9823SM  H11F13326   0.224   0.600   4.277  1.4401  2.2197 -3.3544
   9823SM  H11G13327   0.050   0.651   4.277 -0.4967  1.9501 -1.4677
   9823SM  C12F13328   0.174   0.741   4.429 -0.3211  0.3813  0.0621
   9823SM  H12F13329   0.130   0.843   4.427  1.6018  1.2983 -3.0872
   9823SM  H12G13330   0.280   0.769   4.448 -0.2013  0.4626 -0.6890
   9823SM  C13F13331   0.120   0.640   4.538  0.5484  0.0574  0.4998
   9823SM  H13F13332   0.175   0.650   4.634  1.6145 -0.0138 -0.0863
   9823SM  H13G13333   0.142   0.537   4.503  1.5273 -0.6029  2.8620
   9823SM  C14F13334  -0.034   0.663   4.557 -0.3499 -0.0308 -0.0806
   9823SM  H14F13335  -0.072   0.685   4.455  0.1843 -0.7733 -0.4464
   9823SM  H14G13336  -0.051   0.752   4.621 -2.4368 -0.1043 -0.4766
   9823SM  C15F13337  -0.109   0.539   4.612 -0.1550 -0.0841 -0.3692
   9823SM  H15F13338  -0.076   0.443   4.567 -0.9712 -0.0402 -1.0927
   9823SM  H15G13339  -0.217   0.542   4.588 -0.0648  1.1725 -0.6567
   9823SM  C16F13340  -0.102   0.528   4.761  0.1314  0.0540  0.2369
   9823SM  H16F13341  -0.180   0.590   4.810  0.4435  0.2302  0.5203
   9823SM  H16G13342  -0.005   0.569   4.798  0.6234 -1.5171  0.7590
   9823SM  C17F13343  -0.122   0.381   4.812 -0.5207  0.2470  0.0338
   9823SM  H17F13344  -0.111   0.382   4.922 -2.1127 -0.7441  0.2296
   9823SM  H17G13345  -0.035   0.324   4.771  1.0536  0.7121  2.4866
   9823SM  C18F13346  -0.259   0.329   4.774  0.0913 -0.3830 -0.0232
   9823SM  H18F13347  -0.256   0.325   4.663  0.4821  0.8841 -0.0703
   9823SM  H18G13348  -0.330   0.409   4.802  0.3453  0.2164 -1.0461
   9823SM  C19F13349  -0.294   0.188   4.835 -0.0015  0.3102 -0.6697
   9823SM  H19F13350  -0.388   0.151   4.790  0.9081 -1.5597 -1.1428
   9823SM  H19G13351  -0.304   0.188   4.946 -0.5285 -0.7848 -0.7049
   9823SM  C20F13352  -0.192   0.080   4.792 -0.1475  0.1769  0.0284
   9823SM  H20F13353  -0.092   0.113   4.826 -0.4675  1.6860 -0.4310
   9823SM  H20G13354  -0.192   0.078   4.681  0.2468  0.5808  0.0195
   9823SM  C21F13355  -0.221  -0.060   4.847  0.7352  0.0578  0.1555
   9823SM  H21F13356  -0.318  -0.094   4.806  0.2557  0.4582  0.9497
   9823SM  H21G13357  -0.240  -0.052   4.956 -1.1516 -2.9698  0.1582
   9823SM  C22F13358  -0.117  -0.161   4.818  0.1066  0.1885  0.3400
   9823SM  H22F13359  -0.142  -0.252   4.877  0.6152  0.1759  0.5416
   9823SM  H22G13360  -0.024  -0.122   4.864  0.3214  0.6193 -0.4346
   9823SM  C23F13361  -0.099  -0.201   4.668 -0.1713 -0.0513 -0.3337
   9823SM  H23F13362  -0.181  -0.269   4.637 -0.7002 -0.1168  1.1048
   9823SM  H23G13363   0.003  -0.245   4.661  0.1594  0.5211  0.6687
   9823SM  H23H13364  -0.108  -0.114   4.599 -0.3584 -1.3092 -1.9477
   9923SM     N13365   7.172   6.233   2.602 -0.0750  0.3118 -0.5155
   9923SM   C1513366   7.129   6.118   2.512  0.5645  0.4737 -0.4241
   9923SM  H15A13367   7.115   6.031   2.574  0.0184  0.4328 -0.6045
   9923SM  H15B13368   7.208   6.092   2.443  1.7053 -0.9511  1.2972
   9923SM  H15C13369   7.041   6.154   2.460 -0.0425  2.0528  1.5451
   9923SM   C1413370   7.214   6.344   2.512  0.5890 -0.2978 -0.1774
   9923SM  H14A13371   7.243   6.429   2.573  0.7831  0.7307 -1.6480
   9923SM  H14B13372   7.129   6.372   2.451 -0.3289  0.8827  1.5490
   9923SM  H14C13373   7.291   6.319   2.441  0.0279 -0.1185 -0.8541
   9923SM   C1313374   7.055   6.279   2.682 -0.8589  0.8802 -0.5509
   9923SM  H13A13375   7.087   6.347   2.760  3.3411  1.4145 -2.5235
   9923SM  H13B13376   7.010   6.195   2.733 -0.6415  0.0471 -1.7006
   9923SM  H13C13377   6.965   6.314   2.633 -0.9115  0.1863 -0.9545
   9923SM   C1213378   7.293   6.192   2.696  0.7453 -0.4753 -0.1732
   9923SM  H12A13379   7.366   6.139   2.636  0.6228 -0.0610 -0.6960
   9923SM  H12B13380   7.260   6.121   2.771  1.4472 -1.3927 -0.7233
   9923SM   C1113381   7.365   6.308   2.768  0.4737 -0.3566  0.5097
   9923SM  H11A13382   7.427   6.268   2.851  0.7323 -2.6500 -0.7199
   9923SM  H11B13383   7.283   6.363   2.820  0.6670 -0.3450  0.8034
   9923SM     P13384   7.587   6.357   2.647  0.1137  0.2542 -0.3297
   9923SM   O1313385   7.580   6.245   2.557 -0.0707 -0.1650  0.2440
   9923SM   O1413386   7.661   6.477   2.602 -0.2386 -0.0123 -0.3238
   9923SM   O1113387   7.656   6.308   2.787  0.4344 -0.7796  0.2607
   9923SM   O1213388   7.438   6.402   2.691  0.0732 -0.1105  0.0748
   9923SM   C1S13389   7.668   6.393   2.897  0.0942 -0.8041 -0.3965
   9923SM   H1S13390   7.566   6.432   2.917  0.3669  0.0685 -0.6713
   9923SM   H1T13391   7.736   6.477   2.872  0.7378 -1.6838 -1.7097
   9923SM    NF13392   7.706   6.411   3.143 -0.2080 -0.5822  0.5907
   9923SM   HNF13393   7.783   6.452   3.189  0.6720 -0.4669 -0.9027
   9923SM   C2S13394   7.717   6.322   3.028  0.5230 -0.8668  0.0229
   9923SM   H2S13395   7.645   6.240   3.048 -0.2045 -0.8862 -2.3475
   9923SM   C3S13396   7.859   6.276   2.997 -0.0316 -0.5858 -0.3742
   9923SM   H3S13397   7.922   6.368   3.000 -0.8033 -0.0537  1.7680
   9923SM    O313398   7.895   6.224   2.864 -0.0407 -0.3928 -0.2728
   9923SM   HO313399   7.812   6.222   2.815 -0.0405 -3.8398 -0.3531
   9923SM   C4S13400   7.909   6.187   3.110  0.5978 -0.2733 -0.3180
   9923SM   H4S13401   7.836   6.106   3.124  0.1954  0.0422 -0.5490
   9923SM   C5S13402   8.015   6.217   3.190 -0.2223  0.8152 -0.4859
   9923SM   H5S13403   8.068   6.312   3.174  0.0338  0.7993  0.2426
   9923SM   C6S13404   8.065   6.137   3.305 -0.5726  0.6141 -0.2621
   9923SM   H6S13405   8.135   6.200   3.364 -0.7167  0.3516  0.1924
   9923SM   H6T13406   8.121   6.046   3.278 -0.1417  0.8877 -0.2983
   9923SM   C7S13407   7.947   6.118   3.400 -0.2507 -0.6664 -0.0558
   9923SM   H7S13408   7.871   6.044   3.367  0.1949 -0.6010 -1.2975
   9923SM   H7T13409   7.894   6.215   3.407 -0.0756 -0.4957 -0.9650
   9923SM   C8S13410   7.988   6.065   3.543  0.1985  0.4049 -0.1167
   9923SM   H8S13411   8.073   6.130   3.572 -0.0782  1.1917 -1.0370
   9923SM   H8T13412   8.013   5.960   3.514 -1.8445  0.0342 -0.7350
   9923SM   C9S13413   7.878   6.072   3.650 -0.4125 -0.1283 -0.1072
   9923SM   H9S13414   7.824   5.976   3.634 -0.2078 -0.0974 -1.0072
   9923SM   H9T13415   7.812   6.160   3.633 -0.5846 -0.0674  0.8215
   9923SM  C10S13416   7.938   6.070   3.800  0.4853  0.6598  0.0991
   9923SM  H10S13417   7.997   6.163   3.815  0.4630  0.5707  0.7800
   9923SM  H10T13418   8.009   5.985   3.800 -0.3900 -0.0881 -0.4094
   9923SM  C11S13419   7.839   6.053   3.919 -0.3209 -0.4699  0.0091
   9923SM  H11S13420   7.786   5.955   3.923  0.4205 -0.8617  0.3398
   9923SM  H11T13421   7.762   6.128   3.891 -1.2427 -2.0412 -1.9899
   9923SM  C12S13422   7.910   6.074   4.053  0.4473 -0.3614 -0.5880
   9923SM  H12S13423   7.978   6.161   4.038  0.6461 -0.3723  0.1835
   9923SM  H12T13424   7.965   5.980   4.076 -1.5161 -1.7174 -1.1838
   9923SM  C13S13425   7.810   6.111   4.164  0.2909 -0.2622 -0.3601
   9923SM  H13S13426   7.735   6.029   4.177 -0.1343 -0.2263 -2.3553
   9923SM  H13T13427   7.748   6.197   4.130  1.0797 -0.8283 -3.5067
   9923SM  C14S13428   7.878   6.131   4.302 -0.2672  0.1981 -1.0457
   9923SM  H14S13429   7.805   6.133   4.386 -2.7171 -1.5150 -2.9912
   9923SM  H14T13430   7.940   6.223   4.299 -1.3275  1.1336  2.0616
   9923SM  C15S13431   7.979   6.023   4.344  0.0249 -0.3834 -0.4655
   9923SM  H15S13432   8.050   6.002   4.262  0.6676  0.7170 -0.2044
   9923SM  H15T13433   7.923   5.928   4.357 -0.3099 -0.0545  0.6049
   9923SM  C16S13434   8.041   6.061   4.477  0.1149  0.7081 -0.3774
   9923SM  H16S13435   8.080   6.164   4.466 -1.0113  0.9705 -2.1835
   9923SM  H16T13436   8.123   5.988   4.497 -0.0560  0.7926  0.7244
   9923SM  C17S13437   7.946   6.036   4.597  0.4179 -0.3338  0.5818
   9923SM  H17S13438   7.892   5.940   4.586 -0.3912  0.0705  0.9600
   9923SM  H17T13439   7.864   6.110   4.588  2.1623  1.4229 -2.9049
   9923SM  C18S13440   7.998   6.051   4.738 -0.6140  0.5107  0.0042
   9923SM  H18S13441   7.909   6.067   4.804  0.8689  0.5576  2.0846
   9923SM  H18T13442   8.053   6.147   4.752  1.9820 -0.4967 -2.3432
   9923SM  H18U13443   8.069   5.967   4.755 -1.2263 -0.3884 -1.6350
   9923SM   C1F13444   7.583   6.448   3.193  0.2326 -0.0129 -0.4783
   9923SM    OF13445   7.482   6.407   3.143  0.4930  0.3543 -0.2857
   9923SM   C2F13446   7.582   6.540   3.316 -0.2140  0.1299  0.5149
   9923SM   H2F13447   7.672   6.603   3.300  0.6547 -1.3875 -0.9413
   9923SM   H2G13448   7.584   6.471   3.404  1.6298 -2.2676 -1.2719
   9923SM   C3F13449   7.466   6.637   3.295 -1.1978  0.6845  0.1124
   9923SM   H3F13450   7.368   6.585   3.300 -0.1215 -1.5374 -0.6142
   9923SM   H3G13451   7.487   6.691   3.200 -1.4936 -1.8360 -1.4843
   9923SM   C4F13452   7.465   6.745   3.406  0.1899 -0.8418 -0.2137
   9923SM   H4F13453   7.376   6.810   3.396  1.4717  0.7373 -2.1211
   9923SM   H4G13454   7.546   6.818   3.386 -0.8955  0.5867  0.4109
   9923SM   C5F13455   7.492   6.711   3.559 -0.1421 -0.5188  0.6700
   9923SM   H5F13456   7.595   6.670   3.558  0.1803  0.2534  0.0533
   9923SM   H5G13457   7.428   6.637   3.611 -0.0366 -0.9889  0.1429
   9923SM   C6F13458   7.483   6.843   3.641  0.4205  0.3914  0.3519
   9923SM   H6F13459   7.390   6.892   3.606  0.8967 -0.5251 -2.4542
   9923SM   H6G13460   7.564   6.912   3.608  0.2173  0.4133 -0.1142
   9923SM   C7F13461   7.470   6.817   3.796 -0.4408  0.3546 -0.1104
   9923SM   H7F13462   7.460   6.914   3.850  1.2285  0.3808  0.1996
   9923SM   H7G13463   7.562   6.772   3.838  0.1870 -0.5630 -2.2989
   9923SM   C8F13464   7.348   6.741   3.844 -0.1983 -0.4575 -0.2385
   9923SM   H8F13465   7.358   6.631   3.832 -2.0458 -0.5130 -1.6469
   9923SM   H8G13466   7.256   6.769   3.788 -0.8078  1.7020  1.6616
   9923SM   C9F13467   7.318   6.755   3.989  0.7681 -0.1796 -1.4630
   9923SM   H9F13468   7.402   6.762   4.061 -0.1154  1.0998 -0.5051
   9923SM   H9G13469   7.255   6.669   4.020 -0.2405  0.7068 -1.0086
   9923SM  C10F13470   7.251   6.900   4.021  0.0485 -0.7705  0.4168
   9923SM  H10F13471   7.145   6.899   3.988  0.2540 -0.6877 -0.2601
   9923SM  H10G13472   7.312   6.977   3.969 -2.2625 -0.2209 -1.7026
   9923SM  C11F13473   7.262   6.943   4.168  0.3896 -0.5618  0.5710
   9923SM  H11F13474   7.215   7.043   4.180  1.1157 -0.2570  0.9277
   9923SM  H11G13475   7.369   6.947   4.197  1.1291  0.6361 -2.0025
   9923SM  C12F13476   7.179   6.852   4.250  0.9617 -0.3345  0.6443
   9923SM  H12F13477   7.178   6.748   4.212  1.5927  0.4741 -1.7226
   9923SM  H12G13478   7.072   6.882   4.238  0.9534 -0.5108  0.2826
   9923SM  C13F13479   7.211   6.867   4.400 -0.0568 -0.2435 -0.0278
   9923SM  H13F13480   7.132   6.923   4.455 -1.7781 -0.9731 -1.6507
   9923SM  H13G13481   7.294   6.939   4.416 -0.7379  0.2393  1.4469
   9923SM  C14F13482   7.227   6.738   4.480  0.3901  0.3704 -0.0749
   9923SM  H14F13483   7.318   6.682   4.450  0.2613 -1.2071  2.2537
   9923SM  H14G13484   7.137   6.675   4.467 -0.6118  0.8397  3.3480
   9923SM  C15F13485   7.243   6.762   4.638  0.2388 -0.5486 -0.2297
   9923SM  H15F13486   7.159   6.823   4.676  0.2059 -0.2639 -0.7443
   9923SM  H15G13487   7.332   6.827   4.654  0.4250 -0.3898 -1.7299
   9923SM  C16F13488   7.269   6.629   4.708  0.5000 -0.8163  0.1710
   9923SM  H16F13489   7.363   6.577   4.679  0.4309 -3.7435  4.3002
   9923SM  H16G13490   7.180   6.564   4.697 -0.0636 -0.0004 -0.2155
   9923SM  C17F13491   7.300   6.653   4.854  0.0261 -0.1396  0.2068
   9923SM  H17F13492   7.210   6.684   4.911  0.3427  0.3781  0.4258
   9923SM  H17G13493   7.380   6.729   4.864  0.6864 -0.6931 -0.6382
   9923SM  C18F13494   7.370   6.524   4.916 -0.2663 -0.4119  0.2928
   9923SM  H18F13495   7.433   6.470   4.842 -1.8163 -0.0130 -1.3934
   9923SM  H18G13496   7.290   6.454   4.949 -0.1104 -0.2283  1.0807
   9923SM  C19F13497   7.466   6.562   5.033  0.2761  0.5801  0.4132
   9923SM  H19F13498   7.404   6.615   5.109 -0.8659 -1.8622  1.2856
   9923SM  H19G13499   7.541   6.633   4.993 -0.2144  1.2991  0.7386
   9923SM  C20F13500   7.541   6.441   5.092 -0.2117  0.1581 -0.4569
   9923SM  H20F13501   7.468   6.356   5.086 -1.2897  1.0530 -0.3846
   9923SM  H20G13502   7.561   6.464   5.199 -0.0484 -0.7453 -0.2853
   9923SM  C21F13503   7.670   6.413   5.011  0.1955 -0.4065  0.0509
   9923SM  H21F13504   7.744   6.495   5.026 -0.4164 -0.0700  1.3668
   9923SM  H21G13505   7.642   6.408   4.904 -2.7573 -2.5382  0.7993
   9923SM  C22F13506   7.739   6.283   5.055 -0.1992  0.0643  0.7575
   9923SM  H22F13507   7.757   6.287   5.164  1.4389  1.5633  0.4823
   9923SM  H22G13508   7.839   6.282   5.006 -1.1345  1.5330 -1.3879
   9923SM  C23F13509   7.666   6.151   5.033  0.0035 -0.1345  0.3996
   9923SM  H23F13510   7.734   6.063   5.038  0.2130  0.0704  1.2718
   9923SM  H23G13511   7.626   6.149   4.929  1.5524 -0.4717 -0.2128
   9923SM  H23H13512   7.579   6.132   5.100 -0.1231  0.3043  0.3648
  10023SM     N13513   7.341   7.397   2.492  0.1615 -0.0233  0.0862
  10023SM   C1513514   7.202   7.444   2.520  0.3414 -0.8701 -0.3332
  10023SM  H15A13515   7.161   7.507   2.442 -1.8768 -1.9950 -0.1699
  10023SM  H15B13516   7.193   7.507   2.607 -1.6272  0.5189 -1.4542
  10023SM  H15C13517   7.137   7.358   2.532 -1.0336 -0.0596 -1.6504
  10023SM   C1413518   7.348   7.326   2.364 -0.0059  0.4712 -0.5233
  10023SM  H14A13519   7.300   7.376   2.281  2.2228 -0.1871 -2.3162
  10023SM  H14B13520   7.307   7.226   2.376 -0.1025  0.6338  0.5792
  10023SM  H14C13521   7.452   7.310   2.339  0.4277  0.5849  1.0973
  10023SM   C1313522   7.426   7.515   2.475  0.2005  0.4578  0.4653
  10023SM  H13A13523   7.396   7.579   2.393 -0.8114  0.2573  0.6600
  10023SM  H13B13524   7.521   7.476   2.445  0.1281  1.0390 -0.5664
  10023SM  H13C13525   7.432   7.570   2.568  1.6620  0.3781  0.4341
  10023SM   C1213526   7.397   7.318   2.609 -0.8289  0.5423  0.7433
  10023SM  H12A13527   7.481   7.267   2.563 -1.1277  1.5272 -0.9694
  10023SM  H12B13528   7.325   7.243   2.641  1.2490 -1.6493  0.6335
  10023SM   C1113529   7.434   7.404   2.738  0.9007  0.0349 -0.6052
  10023SM  H11A13530   7.528   7.454   2.708  0.9219  0.0461 -0.5204
  10023SM  H11B13531   7.448   7.335   2.824  2.1650 -2.6593 -2.8068
  10023SM     P13532   7.357   7.640   2.811 -0.3683  0.2835 -0.2956
  10023SM   O1313533   7.461   7.686   2.718 -0.2976 -0.1968 -0.6510
  10023SM   O1413534   7.232   7.716   2.822 -0.4919  0.3984  0.5093
  10023SM   O1113535   7.419   7.631   2.955 -0.7511  0.6706  0.3518
  10023SM   O1213536   7.322   7.491   2.772 -0.0799 -0.3189 -0.1447
  10023SM   C1S13537   7.348   7.585   3.076  0.2130 -0.0780  0.8982
  10023SM   H1S13538   7.281   7.503   3.042  0.9470 -0.4539  0.3092
  10023SM   H1T13539   7.284   7.669   3.109  1.3386  1.2676 -0.2043
  10023SM    NF13540   7.359   7.475   3.291 -0.0733  0.0480  0.3911
  10023SM   HNF13541   7.373   7.506   3.384 -1.0414 -0.2273  0.6373
  10023SM   C2S13542   7.443   7.537   3.187  0.4681 -0.1324  0.3306
  10023SM   H2S13543   7.509   7.459   3.143 -0.2826 -0.0823 -0.9365
  10023SM   C3S13544   7.541   7.652   3.232 -0.4498 -0.2257 -0.3708
  10023SM   H3S13545   7.469   7.709   3.294  1.9591  4.4902 -1.3915
  10023SM    O313546   7.581   7.748   3.126 -0.0317 -0.3257  0.3989
  10023SM   HO313547   7.522   7.726   3.054 -1.0492 -0.4748  1.2531
  10023SM   C4S13548   7.655   7.607   3.328  0.3105 -0.0423 -0.1265
  10023SM   H4S13549   7.632   7.620   3.435  0.6349  2.9873 -0.3385
  10023SM   C5S13550   7.780   7.584   3.285 -0.3941 -0.0586  0.3019
  10023SM   H5S13551   7.807   7.596   3.179  0.4463  0.9554  0.6135
  10023SM   C6S13552   7.896   7.544   3.376  0.1973 -0.5247 -0.1481
  10023SM   H6S13553   7.978   7.616   3.353 -0.9932 -0.1005 -3.5263
  10023SM   H6T13554   7.921   7.441   3.341 -2.3209 -0.4107 -2.5323
  10023SM   C7S13555   7.893   7.549   3.532  0.0656  0.5359  0.3476
  10023SM   H7S13556   7.795   7.512   3.570 -0.2157  0.4404 -0.4539
  10023SM   H7T13557   7.896   7.653   3.570  0.1623  1.2550 -1.5072
  10023SM   C8S13558   8.011   7.484   3.613  0.1303  0.1571 -0.2988
  10023SM   H8S13559   8.105   7.525   3.570  0.3730 -0.3938 -0.3103
  10023SM   H8T13560   8.010   7.374   3.594 -0.0705  0.2570 -0.8826
  10023SM   C9S13561   7.992   7.496   3.762  0.1032  0.8811 -0.8606
  10023SM   H9S13562   7.898   7.445   3.791  0.1210  2.6102  2.6796
  10023SM   H9T13563   7.978   7.600   3.797  0.1834  1.0531 -1.3304
  10023SM  C10S13564   8.103   7.432   3.844  0.0833  0.6071  0.0126
  10023SM  H10S13565   8.198   7.489   3.830 -0.1301  1.7842  2.7084
  10023SM  H10T13566   8.116   7.325   3.819 -0.2341  0.4797  0.3930
  10023SM  C11S13567   8.071   7.432   3.993 -0.1867  0.4807 -0.2053
  10023SM  H11S13568   8.001   7.358   4.038 -1.2708  2.2470  1.1256
  10023SM  H11T13569   8.029   7.532   4.014 -1.0009 -0.0852  0.9613
  10023SM  C12S13570   8.200   7.408   4.078  0.6575  0.1744  0.3941
  10023SM  H12S13571   8.270   7.481   4.033  1.1766 -0.4638  0.1627
  10023SM  H12T13572   8.240   7.305   4.078 -0.2103 -0.1886  1.5998
  10023SM  C13S13573   8.188   7.459   4.224 -0.0785 -0.3781  0.2564
  10023SM  H13S13574   8.110   7.398   4.273  0.2128 -1.1887 -0.2670
  10023SM  H13T13575   8.150   7.563   4.221  3.5415  1.0807 -0.5846
  10023SM  C14S13576   8.321   7.470   4.294 -0.5734 -0.0040  0.5744
  10023SM  H14S13577   8.383   7.528   4.222 -0.2137 -2.5154 -1.2885
  10023SM  H14T13578   8.376   7.373   4.299 -1.0908 -0.4404 -1.3826
  10023SM  C15S13579   8.310   7.538   4.440  1.0014  0.3845  0.4870
  10023SM  H15S13580   8.257   7.472   4.512 -2.1165  1.0329 -1.0501
  10023SM  H15T13581   8.241   7.624   4.426 -1.1080 -1.4778 -1.6474
  10023SM  C16S13582   8.443   7.583   4.487 -0.3086 -0.1170 -0.1266
  10023SM  H16S13583   8.482   7.659   4.416 -1.2584 -1.7963 -2.5615
  10023SM  H16T13584   8.521   7.503   4.485 -1.9666 -1.7930 -2.2978
  10023SM  C17S13585   8.438   7.651   4.622  0.4608 -0.1370 -0.3316
  10023SM  H17S13586   8.360   7.730   4.626  0.5628 -0.0218 -0.5835
  10023SM  H17T13587   8.530   7.711   4.634 -0.7390  1.5950  0.7480
  10023SM  C18S13588   8.417   7.553   4.734  0.4830  0.7387 -0.6255
  10023SM  H18S13589   8.490   7.469   4.733 -0.6219 -0.2529 -2.5094
  10023SM  H18T13590   8.316   7.507   4.723  0.0691  1.0574  1.4382
  10023SM  H18U13591   8.422   7.610   4.829 -0.0780  2.1758 -1.4351
  10023SM   C1F13592   7.279   7.364   3.279 -0.8969 -0.2364 -0.6022
  10023SM    OF13593   7.277   7.292   3.183  0.5269 -0.1957  0.2684
  10023SM   C2F13594   7.214   7.329   3.409  0.2885  0.2327 -0.6800
  10023SM   H2F13595   7.128   7.394   3.433  0.5889  0.0788  0.9175
  10023SM   H2G13596   7.294   7.344   3.485  2.2583 -0.4689 -2.5130
  10023SM   C3F13597   7.158   7.188   3.415  0.7656  0.0251  0.0060
  10023SM   H3F13598   7.230   7.109   3.387 -2.3939 -3.0730  0.0209
  10023SM   H3G13599   7.058   7.181   3.366  0.1784  0.4265  1.1163
  10023SM   C4F13600   7.116   7.153   3.563  0.0645 -0.0844  0.0496
  10023SM   H4F13601   7.034   7.218   3.602 -0.4474 -0.0162 -1.1033
  10023SM   H4G13602   7.206   7.144   3.627  1.4792  0.5289 -1.7629
  10023SM   C5F13603   7.058   7.014   3.558  0.7359 -0.0363  0.3581
  10023SM   H5F13604   7.140   6.938   3.555 -0.5516 -1.5374  1.3326
  10023SM   H5G13605   7.004   7.003   3.461  3.5053 -0.0419 -1.2821
  10023SM   C6F13606   6.965   6.985   3.675 -0.0611  0.0085  0.0130
  10023SM   H6F13607   6.880   7.052   3.649 -1.1597 -2.1479 -2.3805
  10023SM   H6G13608   7.019   7.023   3.764  1.4438 -2.5171  0.2778
  10023SM   C7F13609   6.922   6.835   3.695 -1.0904 -0.3757  0.3238
  10023SM   H7F13610   7.008   6.766   3.684 -1.3437 -0.7883  0.8748
  10023SM   H7G13611   6.863   6.799   3.608  1.0029  2.4196 -2.4753
  10023SM   C8F13612   6.844   6.806   3.818 -0.2198  0.8704  0.4235
  10023SM   H8F13613   6.739   6.838   3.805 -0.3163  0.2865 -0.3244
  10023SM   H8G13614   6.900   6.852   3.902  2.1868 -1.3512  0.1979
  10023SM   C9F13615   6.830   6.656   3.856  0.3632 -0.6823 -0.0848
  10023SM   H9F13616   6.935   6.622   3.869  0.2250 -1.6965 -1.3407
  10023SM   H9G13617   6.790   6.597   3.771 -2.8317  1.5313 -0.2759
  10023SM  C10F13618   6.761   6.607   3.985 -0.6289 -0.7327 -0.3051
  10023SM  H10F13619   6.761   6.497   3.994  0.5737 -0.6309  1.2194
  10023SM  H10G13620   6.653   6.634   3.987 -0.6040 -0.5997 -0.6189
  10023SM  C11F13621   6.826   6.659   4.115  0.3852 -0.3819 -0.2083
  10023SM  H11F13622   6.872   6.760   4.105 -1.0897  0.2449 -0.8979
  10023SM  H11G13623   6.912   6.590   4.133  1.0858  0.1772 -1.2873
  10023SM  C12F13624   6.728   6.661   4.229  0.4412  0.8696 -0.7356
  10023SM  H12F13625   6.702   6.556   4.256 -0.3366  1.6258  1.6979
  10023SM  H12G13626   6.640   6.724   4.207 -0.7403 -0.5760 -0.2676
  10023SM  C13F13627   6.798   6.715   4.357 -0.5963 -0.3119  0.5925
  10023SM  H13F13628   6.782   6.825   4.369  0.1126 -0.2185  0.6883
  10023SM  H13G13629   6.908   6.705   4.351 -0.3215 -0.0071  3.6086
  10023SM  C14F13630   6.766   6.629   4.483  0.0382  0.2254  0.1197
  10023SM  H14F13631   6.817   6.531   4.469  0.6475  0.7634 -1.8371
  10023SM  H14G13632   6.658   6.611   4.501  0.3882 -2.2300  0.0605
  10023SM  C15F13633   6.830   6.672   4.614  0.6818 -0.2199 -0.2282
  10023SM  H15F13634   6.769   6.760   4.640  0.4134 -0.0871 -1.2695
  10023SM  H15G13635   6.936   6.705   4.608  0.6424  0.7533  2.7201
  10023SM  C16F13636   6.822   6.563   4.719 -0.0240  0.3681 -0.0080
  10023SM  H16F13637   6.869   6.467   4.690 -0.4300  0.0098  0.4952
  10023SM  H16G13638   6.713   6.542   4.728 -0.1871  1.1992 -0.0043
  10023SM  C17F13639   6.873   6.615   4.856  0.1152 -0.1769  1.0424
  10023SM  H17F13640   6.796   6.682   4.898 -1.5055 -2.5222  2.0267
  10023SM  H17G13641   6.968   6.673   4.854 -1.0175  1.7166 -0.1572
  10023SM  C18F13642   6.892   6.488   4.948  0.3320  0.0667  0.4695
  10023SM  H18F13643   6.962   6.427   4.887  0.9792  2.1119 -0.9715
  10023SM  H18G13644   6.792   6.441   4.950 -0.0615  0.9165  2.0997
  10023SM  C19F13645   6.947   6.524   5.086  0.5541 -0.0172 -0.3928
  10023SM  H19F13646   6.872   6.593   5.131  0.3676  1.6739 -3.0787
  10023SM  H19G13647   7.037   6.586   5.070  1.0445 -0.4875  0.4632
  10023SM  C20F13648   6.979   6.395   5.166 -0.7680 -0.7211  0.4743
  10023SM  H20F13649   7.057   6.347   5.103  0.1846 -1.2529  2.0045
  10023SM  H20G13650   6.887   6.334   5.163 -1.0559 -0.2751  0.0309
  10023SM  C21F13651   7.036   6.421   5.303  0.2914  0.5824 -0.1526
  10023SM  H21F13652   7.068   6.331   5.360 -1.4047 -1.5046 -2.2706
  10023SM  H21G13653   6.958   6.470   5.365  2.1782  0.6509  2.3016
  10023SM  C22F13654   7.157   6.523   5.297 -0.5031  0.4700  0.2411
  10023SM  H22F13655   7.106   6.618   5.270 -2.8874  0.3106  3.5916
  10023SM  H22G13656   7.238   6.489   5.229  1.0240  0.8620  1.8097
  10023SM  C23F13657   7.216   6.551   5.433 -0.0546 -0.2242 -0.5252
  10023SM  H23F13658   7.305   6.616   5.425 -1.1243  1.2749 -0.5745
  10023SM  H23G13659   7.255   6.457   5.479 -0.6341 -0.3502 -0.2763
  10023SM  H23H13660   7.136   6.604   5.489 -2.2530 -0.2571 -3.3818
  101CHL1    C313661   4.227   3.831   7.029 -0.4318  0.2723  0.4309
  101CHL1    H313662   4.312   3.766   6.998 -0.1889  0.9492 -0.3624
  101CHL1    O313663   4.199   3.819   7.164 -0.4391  0.0659  0.0320
  101CHL1   H3'13664   4.286   3.812   7.206 -1.0494 -1.3842  1.1236
  101CHL1    C413665   4.275   3.973   6.991 -0.4939 -0.3585 -0.8926
  101CHL1   H4A13666   4.202   4.047   7.030  1.3806  0.0016  2.3237
  101CHL1   H4B13667   4.372   3.994   7.040 -0.0220 -2.3480 -0.8786
  101CHL1    C513668   4.280   3.978   6.836  0.0272 -0.0788  0.4016
  101CHL1    C613669   4.397   4.003   6.776 -0.7958 -0.4476  0.2596
  101CHL1    H613670   4.484   4.023   6.840 -1.5809  0.9876  0.9390
  101CHL1    C713671   4.421   4.012   6.628  0.8718  0.3075 -0.7024
  101CHL1   H7A13672   4.490   4.094   6.598 -1.1876  1.7714 -1.6097
  101CHL1   H7B13673   4.454   3.911   6.592 -1.3064 -0.7092 -0.0156
  101CHL1    C813674   4.287   4.039   6.553  0.5402 -0.0631 -0.1387
  101CHL1    H813675   4.243   4.139   6.570 -0.4347 -0.4492 -0.3573
  101CHL1   C1413676   4.305   4.011   6.405 -0.0448 -0.4263  0.3520
  101CHL1   H1413677   4.328   3.903   6.401  2.7486  0.0558  1.4671
  101CHL1   C1513678   4.416   4.096   6.335 -0.2718  1.2389  0.4832
  101CHL1  H15A13679   4.430   4.199   6.374  1.6144  1.7322 -1.3145
  101CHL1  H15B13680   4.506   4.036   6.360 -1.9522 -1.9094 -0.4168
  101CHL1   C1613681   4.373   4.099   6.188  0.0310  0.0095  0.7520
  101CHL1  H16A13682   4.360   4.204   6.154  1.3508 -0.4726 -1.4493
  101CHL1  H16B13683   4.444   4.063   6.110 -1.3824 -1.0905 -0.0881
  101CHL1   C1713684   4.235   4.030   6.177  0.2397 -0.4481 -0.3180
  101CHL1   H1713685   4.254   3.923   6.156 -1.0359 -0.6559 -0.4546
  101CHL1   C1313686   4.181   4.037   6.317  0.0910 -0.5742 -0.5501
  101CHL1   C1813687   4.112   4.181   6.345 -0.5926  0.5858  0.0348
  101CHL1  H18A13688   4.183   4.261   6.313 -0.5167  0.7916  0.7087
  101CHL1  H18B13689   4.016   4.194   6.291 -0.1235  1.6367 -0.5893
  101CHL1  H18C13690   4.092   4.196   6.453  2.5992 -2.7268  1.2779
  101CHL1   C1213691   4.081   3.928   6.357  0.3615  0.5305  0.2911
  101CHL1  H12A13692   3.984   3.942   6.305 -0.2151  0.1540  1.2504
  101CHL1  H12B13693   4.129   3.829   6.342  0.3733  0.1767  2.3514
  101CHL1   C1113694   4.050   3.930   6.508  0.8520  0.5264 -0.8436
  101CHL1  H11A13695   3.984   4.018   6.521 -0.5540 -0.4014 -1.4268
  101CHL1  H11B13696   3.980   3.846   6.527  0.2331  0.8786 -1.4949
  101CHL1    C913697   4.183   3.935   6.595  0.5088  0.5185 -0.0374
  101CHL1    H913698   4.233   3.837   6.592 -0.5615 -0.1707  2.0807
  101CHL1   C1013699   4.152   3.953   6.751 -0.3332 -0.0650 -0.1481
  101CHL1   C1913700   4.054   4.067   6.773 -0.5531 -0.3824  0.4250
  101CHL1  H19A13701   4.028   4.087   6.879  1.4630  2.1527  0.5308
  101CHL1  H19B13702   4.106   4.157   6.734  0.9394 -2.0374 -1.6768
  101CHL1  H19C13703   3.958   4.043   6.721 -1.5246  1.9329  1.0293
  101CHL1    C113704   4.096   3.818   6.803 -0.2671 -0.2976 -0.3970
  101CHL1   H1A13705   3.995   3.810   6.759  0.0421  1.4207 -1.5472
  101CHL1   H1B13706   4.159   3.735   6.766  0.0156 -0.7729  1.0737
  101CHL1    C213707   4.092   3.798   6.960  0.0534 -0.5936  0.0219
  101CHL1   H2A13708   4.046   3.698   6.980 -0.5017  0.1174  2.6932
  101CHL1   H2B13709   4.013   3.865   7.000 -1.2170 -2.0529  0.0917
  101CHL1   C2013710   4.157   4.093   6.057 -0.1848  0.9957  0.6628
  101CHL1   H2013711   4.130   4.197   6.084  0.8521  1.5083 -0.1662
  101CHL1   C2113712   4.019   4.014   6.040 -0.4761 -0.2609  0.0651
  101CHL1  H21A13713   4.038   3.904   6.041  0.9798 -0.0277  1.7904
  101CHL1  H21B13714   3.961   4.048   5.951 -0.2482 -0.7416 -0.2730
  101CHL1  H21C13715   3.946   4.030   6.122 -2.0290 -1.3784 -1.0517
  101CHL1   C2213716   4.236   4.092   5.928 -0.6768 -0.2342 -0.2157
  101CHL1  H22A13717   4.318   4.167   5.932  0.0635 -1.0434  0.0402
  101CHL1  H22B13718   4.291   3.996   5.920 -1.3435 -0.4987 -2.1696
  101CHL1   C2313719   4.155   4.119   5.802 -0.8217 -0.0870  1.1080
  101CHL1  H23A13720   4.112   4.023   5.767  0.8321 -1.3180  2.2757
  101CHL1  H23B13721   4.074   4.191   5.826 -0.7599 -0.1038  1.3739
  101CHL1   C2413722   4.247   4.170   5.693 -0.5915  0.1301  0.0044
  101CHL1  H24A13723   4.283   4.271   5.724  1.3194  0.1073 -1.9353
  101CHL1  H24B13724   4.335   4.107   5.670 -0.5802  0.2193 -0.1987
  101CHL1   C2513725   4.179   4.191   5.561  0.0318 -0.5126  0.0899
  101CHL1   H2513726   4.152   4.092   5.517  1.4437 -0.1373 -1.7513
  101CHL1   C2613727   4.043   4.267   5.558 -0.4061  0.2373 -0.4035
  101CHL1  H26A13728   4.042   4.366   5.609  1.9275  0.4361 -0.6491
  101CHL1  H26B13729   4.014   4.283   5.452 -0.0483  2.0773 -0.2545
  101CHL1  H26C13730   3.956   4.210   5.597 -0.2225  0.0490 -0.2719
  101CHL1   C2713731   4.271   4.238   5.459 -0.0315  0.4931 -0.4890
  101CHL1  H27A13732   4.224   4.224   5.360 -0.8239 -2.1865  0.1915
  101CHL1  H27B13733   4.298   4.344   5.480 -2.8404  1.2819 -0.4536
  101CHL1  H27C13734   4.367   4.182   5.456 -0.4085 -0.1419 -0.8671
  102CHL1    C313735   2.814   3.764   6.230  0.0667  0.7239  0.7406
  102CHL1    H313736   2.785   3.871   6.239 -0.4706  0.6202  0.3320
  102CHL1    O313737   2.807   3.707   6.362 -0.3425  0.3750  0.3323
  102CHL1   H3'13738   2.862   3.628   6.360 -0.5792  0.2209 -0.0956
  102CHL1    C413739   2.714   3.682   6.145 -0.3450  0.0102 -1.2929
  102CHL1   H4A13740   2.715   3.575   6.175 -0.9638 -0.1078 -1.6813
  102CHL1   H4B13741   2.613   3.714   6.178  0.0115  0.6291 -0.7986
  102CHL1    C513742   2.720   3.704   5.996 -0.3269  1.1356 -0.0480
  102CHL1    C613743   2.614   3.734   5.916  0.4910 -0.1923  0.1685
  102CHL1    H613744   2.507   3.742   5.940 -0.1201 -1.8802 -1.6631
  102CHL1    C713745   2.633   3.745   5.765 -0.3626 -0.1856  0.1863
  102CHL1   H7A13746   2.555   3.701   5.699  1.0422 -0.6700 -1.2196
  102CHL1   H7B13747   2.643   3.853   5.742 -3.2383  0.4552  1.4566
  102CHL1    C813748   2.763   3.678   5.710  0.2560 -0.3110  0.3092
  102CHL1    H813749   2.744   3.569   5.711  2.4544 -0.7318  1.1584
  102CHL1   C1413750   2.787   3.730   5.568 -0.0133  0.2680  0.4610
  102CHL1   H1413751   2.826   3.834   5.574 -2.3349  1.3296 -1.1917
  102CHL1   C1513752   2.674   3.724   5.464  0.3819 -0.1488  0.4111
  102CHL1  H15A13753   2.601   3.642   5.481 -0.5998  1.0984  2.5156
  102CHL1  H15B13754   2.605   3.810   5.476 -1.9052 -1.4096 -2.2804
  102CHL1   C1613755   2.740   3.714   5.332 -0.1098  0.1001 -0.3839
  102CHL1  H16A13756   2.699   3.627   5.277  0.3290 -0.2953 -0.0826
  102CHL1  H16B13757   2.709   3.802   5.270  1.7004 -1.1639 -3.3268
  102CHL1   C1713758   2.898   3.706   5.357  0.0184  0.2522 -0.0891
  102CHL1   H1713759   2.928   3.813   5.350 -1.5414  0.6300 -2.0559
  102CHL1   C1313760   2.905   3.654   5.499  0.1967 -0.5866 -1.0370
  102CHL1   C1813761   2.879   3.498   5.490  0.5827 -0.7923  0.4813
  102CHL1  H18A13762   2.955   3.456   5.421  0.4602  0.3758 -0.4004
  102CHL1  H18B13763   2.881   3.454   5.592 -1.9215  1.9399  1.8672
  102CHL1  H18C13764   2.782   3.480   5.438  1.3926 -1.8947 -0.7144
  102CHL1   C1213765   3.035   3.677   5.576 -0.1736  0.9081  0.8303
  102CHL1  H12A13766   3.108   3.601   5.539  1.6841  2.1396  1.7708
  102CHL1  H12B13767   3.073   3.779   5.551  1.4149  0.3886  1.0068
  102CHL1   C1113768   3.014   3.647   5.726 -0.5553  0.5602  0.1632
  102CHL1  H11A13769   3.009   3.536   5.735  0.7705  0.3373 -1.3172
  102CHL1  H11B13770   3.103   3.685   5.779 -0.3323 -0.8479  0.8390
  102CHL1    C913771   2.886   3.703   5.793  0.7659  0.3912 -0.5849
  102CHL1    H913772   2.899   3.813   5.791 -1.0104  0.6748  0.5864
  102CHL1   C1013773   2.866   3.678   5.945  0.3200  0.3795 -0.2988
  102CHL1   C1913774   2.904   3.533   5.973  0.4494  0.0677  0.8055
  102CHL1  H19A13775   2.880   3.512   6.079  2.3020 -0.7416  1.1065
  102CHL1  H19B13776   2.845   3.465   5.908  0.1452  0.1590  0.9862
  102CHL1  H19C13777   3.012   3.506   5.966  0.8129  1.5011  0.5705
  102CHL1    C113778   2.963   3.767   6.031 -0.1777  0.0424 -0.6630
  102CHL1   H1A13779   3.065   3.736   6.000  1.6071  0.1383  4.2900
  102CHL1   H1B13780   2.953   3.875   6.006 -0.7519 -0.1096 -1.1088
  102CHL1    C213781   2.960   3.741   6.181 -0.0325 -0.4719 -0.0314
  102CHL1   H2A13782   3.026   3.804   6.245 -1.4418  0.3001  0.7113
  102CHL1   H2B13783   2.990   3.636   6.204 -1.2436 -0.8058  0.1079
  102CHL1   C2013784   2.962   3.648   5.233 -0.0580  0.5449  0.2144
  102CHL1   H2013785   2.926   3.543   5.219  1.9310  0.1259 -2.6524
  102CHL1   C2113786   3.112   3.638   5.256  0.4629  0.4077  0.2923
  102CHL1  H21A13787   3.143   3.557   5.324 -0.6486  0.2502  0.6342
  102CHL1  H21B13788   3.137   3.734   5.306 -1.2547 -0.3129  2.7211
  102CHL1  H21C13789   3.161   3.613   5.159  1.6800 -0.5869  1.1483
  102CHL1   C2213790   2.939   3.710   5.094 -0.2985 -0.4488  0.0491
  102CHL1  H22A13791   2.984   3.641   5.019  0.4033 -0.5947  0.6007
  102CHL1  H22B13792   2.833   3.711   5.060 -0.2828 -1.5387 -0.0714
  102CHL1   C2313793   2.999   3.855   5.072  0.1401 -0.2288  0.2732
  102CHL1  H23A13794   2.935   3.909   5.145 -0.8871 -1.9452  0.7126
  102CHL1  H23B13795   3.106   3.853   5.104  0.5889  0.0792 -1.1374
  102CHL1   C2413796   2.998   3.911   4.927 -0.5111 -0.3984  0.1822
  102CHL1  H24A13797   3.088   3.874   4.874  0.2954  1.3263  0.2680
  102CHL1  H24B13798   2.904   3.873   4.880 -0.2528  1.5133 -2.0748
  102CHL1   C2513799   2.997   4.064   4.901  0.5037  0.8982 -0.2466
  102CHL1   H2513800   2.997   4.077   4.791 -2.0265 -1.4006 -0.6448
  102CHL1   C2613801   2.861   4.126   4.948  0.2885 -0.7982  0.1640
  102CHL1  H26A13802   2.853   4.232   4.913  0.1125 -0.7791  0.2599
  102CHL1  H26B13803   2.776   4.063   4.916 -0.4102  0.1299  0.1695
  102CHL1  H26C13804   2.875   4.122   5.058 -0.9329 -1.7345  0.2972
  102CHL1   C2713805   3.117   4.136   4.962  0.3376  0.0629  0.5389
  102CHL1  H27A13806   3.100   4.178   5.064  3.0172  0.9354  0.7050
  102CHL1  H27B13807   3.210   4.076   4.969 -0.7653 -1.5561  2.5139
  102CHL1  H27C13808   3.139   4.224   4.898  0.5441  0.1387  0.7148
  103CHL1    C313809   2.630   2.732   6.269 -0.1885 -0.2941 -0.8595
  103CHL1    H313810   2.565   2.816   6.300  1.7947  0.3342  1.9325
  103CHL1    O313811   2.710   2.703   6.385  0.2414 -0.2327 -0.2438
  103CHL1   H3'13812   2.765   2.780   6.395  0.4483 -0.6623  2.7717
  103CHL1    C413813   2.546   2.617   6.209 -0.2730  0.2400 -0.1968
  103CHL1   H4A13814   2.620   2.540   6.179 -0.4657  0.0694 -0.2370
  103CHL1   H4B13815   2.484   2.564   6.284 -0.1658  1.4130  0.7521
  103CHL1    C513816   2.478   2.667   6.082 -0.1700 -0.3833 -0.2951
  103CHL1    C613817   2.341   2.657   6.077 -0.0693  0.0782 -0.0074
  103CHL1    H613818   2.292   2.621   6.169  1.9375  0.0640  1.1098
  103CHL1    C713819   2.259   2.682   5.958  0.1727  0.7764 -0.4593
  103CHL1   H7A13820   2.190   2.600   5.929 -0.2333  1.0177 -0.1840
  103CHL1   H7B13821   2.193   2.771   5.954 -0.8229  0.0386 -0.7455
  103CHL1    C813822   2.354   2.696   5.830 -0.8094  0.2848 -0.2126
  103CHL1    H813823   2.394   2.597   5.800 -1.1075  0.4544 -1.1816
  103CHL1   C1413824   2.284   2.767   5.720  0.3567 -0.2966  1.2273
  103CHL1   H1413825   2.265   2.872   5.751  1.7576  0.1687  0.5885
  103CHL1   C1513826   2.145   2.718   5.671 -0.2666  0.4162  0.0490
  103CHL1  H15A13827   2.148   2.608   5.656 -0.4343  0.5240 -0.8437
  103CHL1  H15B13828   2.057   2.733   5.737 -0.3282 -1.7405  0.5261
  103CHL1   C1613829   2.121   2.779   5.532 -0.6028 -0.2204 -0.6095
  103CHL1  H16A13830   2.085   2.705   5.458  0.1956  0.4712 -1.7365
  103CHL1  H16B13831   2.049   2.864   5.534 -3.8910 -2.8204  0.0887
  103CHL1   C1713832   2.257   2.835   5.491 -0.6508 -0.0567  0.1562
  103CHL1   H1713833   2.256   2.944   5.514  0.6396 -0.2027  1.0361
  103CHL1   C1313834   2.368   2.775   5.587  0.8046  0.0621  0.1453
  103CHL1   C1813835   2.405   2.631   5.531  0.7522  0.1856 -0.2156
  103CHL1  H18A13836   2.471   2.580   5.605 -0.1703 -1.5916 -0.5594
  103CHL1  H18B13837   2.317   2.564   5.522  0.3095  0.5469  1.2418
  103CHL1  H18C13838   2.460   2.637   5.435  0.8044 -0.2563 -0.2175
  103CHL1   C1213839   2.489   2.861   5.608 -0.1174 -0.0123 -0.7644
  103CHL1  H12A13840   2.554   2.840   5.520  0.3945  1.8584 -0.8741
  103CHL1  H12B13841   2.456   2.966   5.607  1.4949  0.5506  0.4253
  103CHL1   C1113842   2.563   2.830   5.739  0.1816 -0.0276 -0.4568
  103CHL1  H11A13843   2.635   2.750   5.711 -2.1085 -1.8071 -1.6783
  103CHL1  H11B13844   2.620   2.924   5.756  0.0584  1.1113 -4.9314
  103CHL1    C913845   2.486   2.781   5.862  0.2949 -0.7106 -0.4378
  103CHL1    H913846   2.436   2.874   5.898 -1.9563 -2.5877  1.6082
  103CHL1   C1013847   2.568   2.717   5.975  0.2974  0.4337 -0.1847
  103CHL1   C1913848   2.650   2.602   5.915  0.4253 -0.3951 -0.0514
  103CHL1  H19A13849   2.691   2.520   5.978 -2.1773 -2.9864 -1.4785
  103CHL1  H19B13850   2.592   2.543   5.842  0.6348 -1.4844  0.6395
  103CHL1  H19C13851   2.731   2.649   5.854 -0.1497  0.3817 -0.2331
  103CHL1    C113852   2.659   2.828   6.033 -0.2637  0.2373 -0.2082
  103CHL1   H1A13853   2.738   2.845   5.957  1.0358 -0.4519  0.9507
  103CHL1   H1B13854   2.597   2.920   6.041 -0.7442  0.0609 -1.5788
  103CHL1    C213855   2.727   2.786   6.166 -0.1014 -0.1041  0.3079
  103CHL1   H2A13856   2.793   2.867   6.206 -0.5513  0.1685  0.5007
  103CHL1   H2B13857   2.796   2.701   6.145  0.1228 -0.0287  0.7195
  103CHL1   C2013858   2.297   2.843   5.337  0.1649  0.0536  0.9836
  103CHL1   H2013859   2.310   2.739   5.300  0.5523  1.1427 -2.1824
  103CHL1   C2113860   2.405   2.942   5.298  0.6952  0.1905 -0.5370
  103CHL1  H21A13861   2.397   2.955   5.188 -2.2247  2.2586 -0.1899
  103CHL1  H21B13862   2.508   2.903   5.312  1.3774  1.8482 -0.7129
  103CHL1  H21C13863   2.406   3.035   5.359  3.0639 -0.7687  1.0433
  103CHL1   C2213864   2.167   2.875   5.252  0.4497 -0.8545 -0.0447
  103CHL1  H22A13865   2.191   2.877   5.144 -1.5174  0.4603 -0.5193
  103CHL1  H22B13866   2.083   2.803   5.259  0.3239 -0.6080  1.3648
  103CHL1   C2313867   2.106   3.014   5.276  0.0382 -0.4656  0.3453
  103CHL1  H23A13868   2.085   3.037   5.382 -0.3279 -1.3926  0.4797
  103CHL1  H23B13869   2.183   3.087   5.243 -0.8673 -0.2018 -1.2974
  103CHL1   C2413870   1.971   3.033   5.189 -0.2230 -0.0800  0.3242
  103CHL1  H24A13871   1.937   3.138   5.205 -0.1755  0.1826 -1.1312
  103CHL1  H24B13872   1.985   3.009   5.082 -0.2127 -0.5072  0.4211
  103CHL1   C2513873   1.849   2.954   5.238  0.5086 -0.1501  0.1890
  103CHL1   H2513874   1.874   2.846   5.242  0.1830 -0.2245  0.3293
  103CHL1   C2613875   1.804   2.992   5.384 -0.4759  0.6481 -0.0902
  103CHL1  H26A13876   1.739   2.909   5.419 -1.3493  2.0480  1.7363
  103CHL1  H26B13877   1.894   2.997   5.449 -1.4828  2.5405  1.2344
  103CHL1  H26C13878   1.755   3.091   5.388  1.7654  1.7933  0.9994
  103CHL1   C2713879   1.738   2.977   5.134 -0.7151  0.2562 -0.5288
  103CHL1  H27A13880   1.777   2.955   5.033 -0.2293  1.1153 -0.5378
  103CHL1  H27B13881   1.661   2.898   5.148 -0.4129  0.3047  1.8785
  103CHL1  H27C13882   1.692   3.078   5.145  1.7573  1.6372 -2.0933
  104CHL1    C313883   5.432   5.034   6.329 -0.4326 -0.0809 -0.0473
  104CHL1    H313884   5.381   4.936   6.326 -0.6087 -0.0549  1.3811
  104CHL1    O313885   5.480   5.037   6.464 -0.2640  0.2247 -0.0679
  104CHL1   H3'13886   5.553   4.976   6.460 -0.7029 -0.5595  2.3804
  104CHL1    C413887   5.537   5.033   6.216 -0.1976  0.2710  0.3425
  104CHL1   H4A13888   5.586   5.130   6.238 -0.4025 -0.0325  2.3597
  104CHL1   H4B13889   5.614   4.956   6.238 -0.0349  0.2563 -0.2689
  104CHL1    C513890   5.470   5.035   6.075 -0.0029  0.2237 -0.8003
  104CHL1    C613891   5.486   4.938   5.990 -0.3787 -0.2271 -0.0777
  104CHL1    H613892   5.556   4.857   6.016 -0.1449  0.1044  0.3401
  104CHL1    C713893   5.434   4.942   5.846  0.2714 -0.7627  0.3189
  104CHL1   H7A13894   5.513   4.922   5.770 -0.1468  0.8694 -0.5890
  104CHL1   H7B13895   5.352   4.867   5.841 -0.7396  0.2300  1.4527
  104CHL1    C813896   5.377   5.080   5.806  0.0294 -0.7641  0.2809
  104CHL1    H813897   5.463   5.149   5.792 -0.6423  0.1716  0.6522
  104CHL1   C1413898   5.296   5.074   5.678 -0.2189  0.4834 -0.1846
  104CHL1   H1413899   5.212   5.006   5.705  2.0838 -1.8273  1.7206
  104CHL1   C1513900   5.360   4.999   5.556  0.1472 -0.3779  0.6602
  104CHL1  H15A13901   5.459   5.047   5.544 -0.8201  1.6239  0.3005
  104CHL1  H15B13902   5.387   4.892   5.566  2.2895  0.0749  0.2379
  104CHL1   C1613903   5.282   5.044   5.431  0.2969 -0.2837 -0.2328
  104CHL1  H16A13904   5.350   5.085   5.353  0.1633  0.2395 -0.0837
  104CHL1  H16B13905   5.230   4.959   5.382 -0.6564  0.3659 -0.3746
  104CHL1   C1713906   5.176   5.145   5.487 -0.4769 -0.6304  0.2802
  104CHL1   H1713907   5.085   5.083   5.500  0.1108 -2.0674 -1.8991
  104CHL1   C1313908   5.232   5.194   5.626  0.8619  0.1980  0.2566
  104CHL1   C1813909   5.327   5.309   5.604  0.2635 -0.2398  0.2485
  104CHL1  H18A13910   5.264   5.394   5.572 -0.2395  0.5702  3.0928
  104CHL1  H18B13911   5.388   5.333   5.694  0.7355  1.8494 -0.5849
  104CHL1  H18C13912   5.391   5.287   5.516  0.1034  0.5861 -0.0785
  104CHL1   C1213913   5.132   5.231   5.742 -0.3028  0.4918 -0.3448
  104CHL1  H12A13914   5.087   5.331   5.723  0.1919  1.3033  2.3780
  104CHL1  H12B13915   5.047   5.160   5.748 -1.8390  2.1480 -1.4889
  104CHL1   C1113916   5.201   5.243   5.881 -0.4683 -0.4527  0.2438
  104CHL1  H11A13917   5.246   5.345   5.885 -0.4751 -0.4849  2.8884
  104CHL1  H11B13918   5.116   5.262   5.949  1.0586  0.3767  2.0006
  104CHL1    C913919   5.288   5.123   5.924 -0.3566  0.0998 -0.3883
  104CHL1    H913920   5.218   5.038   5.938  0.3180 -0.6552 -1.3454
  104CHL1   C1013921   5.370   5.148   6.054 -0.2422 -0.1425 -0.5460
  104CHL1   C1913922   5.444   5.287   6.050  0.2145 -0.1348 -0.0694
  104CHL1  H19A13923   5.368   5.368   6.050  1.4208  1.1879  3.1414
  104CHL1  H19B13924   5.511   5.299   6.138  1.1410  1.3636 -0.9541
  104CHL1  H19C13925   5.515   5.298   5.966  1.1430 -1.3145  0.5256
  104CHL1    C113926   5.267   5.139   6.169 -0.3742 -0.1642  0.6597
  104CHL1   H1A13927   5.195   5.223   6.163  0.5386  0.5773 -0.4664
  104CHL1   H1B13928   5.212   5.043   6.160  0.3207 -0.5856  0.7724
  104CHL1    C213929   5.334   5.141   6.305 -0.5632 -0.1782 -0.4383
  104CHL1   H2A13930   5.251   5.129   6.378 -1.4232 -0.6146 -1.4816
  104CHL1   H2B13931   5.370   5.245   6.323 -0.6133 -0.0883 -0.8493
  104CHL1   C2013932   5.122   5.251   5.377 -0.0884 -0.2669 -0.3363
  104CHL1   H2013933   5.210   5.312   5.348 -0.6861 -0.3383 -2.4404
  104CHL1   C2113934   5.009   5.332   5.445 -0.1021  0.1689  0.3820
  104CHL1  H21A13935   4.947   5.270   5.512  2.9427 -3.8534 -0.1197
  104CHL1  H21B13936   4.942   5.378   5.369  0.6238 -1.7069 -1.4788
  104CHL1  H21C13937   5.050   5.407   5.517  0.8174  0.9037 -0.8567
  104CHL1   C2213938   5.063   5.187   5.248 -0.5808 -0.1900  0.0407
  104CHL1  H22A13939   5.124   5.098   5.224  0.6393  0.5186  0.3964
  104CHL1  H22B13940   4.958   5.156   5.264 -0.7273  0.5338  0.5328
  104CHL1   C2313941   5.049   5.278   5.126 -0.5775 -0.2401 -0.6490
  104CHL1  H23A13942   4.985   5.231   5.049 -0.0770 -0.6275 -0.8293
  104CHL1  H23B13943   4.999   5.373   5.153  0.7516  0.6693 -1.2992
  104CHL1   C2413944   5.188   5.308   5.060  0.8108  0.2076 -0.6283
  104CHL1  H24A13945   5.259   5.323   5.144 -1.1885 -1.5947  1.5291
  104CHL1  H24B13946   5.214   5.218   5.000  0.3260 -0.4026  0.0644
  104CHL1   C2513947   5.200   5.426   4.966 -0.1427 -0.2178  0.3901
  104CHL1   H2513948   5.145   5.509   5.016  1.4368  0.7508  0.6026
  104CHL1   C2613949   5.342   5.462   4.932  0.8632  0.0673 -0.1582
  104CHL1  H26A13950   5.412   5.472   5.019  1.2806  1.0628 -0.5898
  104CHL1  H26B13951   5.382   5.389   4.859  1.0502  0.4495 -0.4425
  104CHL1  H26C13952   5.349   5.559   4.878  1.3086 -0.2963 -0.7646
  104CHL1   C2713953   5.128   5.403   4.827  0.4516  0.4264  0.5621
  104CHL1  H27A13954   5.029   5.452   4.831  0.3644  0.3428 -0.4060
  104CHL1  H27B13955   5.174   5.452   4.739 -1.3248  0.5290 -0.3493
  104CHL1  H27C13956   5.116   5.296   4.800 -0.0958  0.5179  0.4456
  105CHL1    C313957   6.685   3.432   6.716 -0.1704  0.2835 -0.3919
  105CHL1    H313958   6.788   3.420   6.677  0.3406  0.2902  0.9174
  105CHL1    O313959   6.689   3.439   6.855  0.1528  0.7282  0.3060
  105CHL1   H3'13960   6.597   3.426   6.882  0.0829  0.9074  0.1584
  105CHL1    C413961   6.631   3.567   6.661  0.6451  0.7023 -0.1353
  105CHL1   H4A13962   6.536   3.601   6.709 -0.2440 -1.9176  0.1384
  105CHL1   H4B13963   6.707   3.646   6.679 -0.3989  1.0869  3.3110
  105CHL1    C513964   6.609   3.554   6.514  0.0442 -0.4525  0.5160
  105CHL1    C613965   6.664   3.639   6.431  0.1793 -0.0630 -0.0628
  105CHL1    H613966   6.729   3.719   6.469 -0.1508 -0.0728  0.5322
  105CHL1    C713967   6.636   3.643   6.282  0.2207  0.1227 -0.4920
  105CHL1   H7A13968   6.634   3.748   6.244  0.5319  0.2810 -0.0715
  105CHL1   H7B13969   6.722   3.601   6.226  0.6138  0.4421 -0.1340
  105CHL1    C813970   6.503   3.570   6.248 -0.1897  0.1282 -0.7417
  105CHL1    H813971   6.417   3.636   6.270 -1.1877 -1.5903  0.8034
  105CHL1   C1413972   6.500   3.551   6.093  0.0795  0.2766  0.3872
  105CHL1   H1413973   6.582   3.480   6.070 -0.5239  0.1689 -1.6379
  105CHL1   C1513974   6.521   3.676   5.996 -0.1396  0.5712 -0.7946
  105CHL1  H15A13975   6.462   3.755   6.047  0.7023 -1.0931  3.1133
  105CHL1  H15B13976   6.631   3.690   6.000 -0.0120 -0.5446 -0.0863
  105CHL1   C1613977   6.463   3.618   5.865  0.7535 -0.6160 -0.3444
  105CHL1  H16A13978   6.377   3.682   5.835  1.1333 -0.2356 -0.6395
  105CHL1  H16B13979   6.531   3.600   5.779  0.9904 -0.2439 -0.2394
  105CHL1   C1713980   6.408   3.481   5.892 -0.0837 -0.3186 -0.6995
  105CHL1   H1713981   6.493   3.410   5.898 -1.3320 -1.8918 -0.9832
  105CHL1   C1313982   6.371   3.479   6.042  0.4589 -0.1771  0.0358
  105CHL1   C1813983   6.238   3.559   6.063  0.8480 -0.1162  0.0098
  105CHL1  H18A13984   6.245   3.658   6.013  0.9037 -0.6639 -1.1186
  105CHL1  H18B13985   6.145   3.507   6.033  0.2621  1.0430 -0.2544
  105CHL1  H18C13986   6.229   3.582   6.171 -0.9197  0.2289 -0.1738
  105CHL1   C1213987   6.368   3.337   6.108 -0.0340  0.7297  0.4053
  105CHL1  H12A13988   6.274   3.282   6.087 -2.0794  3.1060  2.6364
  105CHL1  H12B13989   6.452   3.267   6.090 -1.1237 -0.5515  0.1823
  105CHL1   C1113990   6.374   3.358   6.264 -0.5141 -0.7937  0.9516
  105CHL1  H11A13991   6.281   3.417   6.277  1.3138  2.1327  1.7598
  105CHL1  H11B13992   6.365   3.260   6.314 -2.4966 -1.1383  0.0357
  105CHL1    C913993   6.499   3.437   6.310  0.4986 -0.6545 -0.8257
  105CHL1    H913994   6.588   3.379   6.276  1.6860 -1.2266  2.8141
  105CHL1   C1013995   6.512   3.442   6.465 -0.1361 -0.4813 -0.5289
  105CHL1   C1913996   6.375   3.483   6.516 -0.3559 -0.0285  0.5261
  105CHL1  H19A13997   6.324   3.571   6.472 -0.5547  0.5690  1.8814
  105CHL1  H19B13998   6.302   3.401   6.501  0.0299 -0.3559  0.4381
  105CHL1  H19C13999   6.381   3.491   6.627 -2.7470  2.0712  0.5965
  105CHL1    C114000   6.562   3.310   6.524  0.0572 -0.2657 -0.0488
  105CHL1   H1A14001   6.492   3.226   6.503  0.0693 -1.1738  3.0920
  105CHL1   H1B14002   6.654   3.287   6.466 -0.1525 -3.5813  0.7295
  105CHL1    C214003   6.605   3.309   6.671  0.1336  0.1458 -0.3201
  105CHL1   H2A14004   6.653   3.214   6.704 -0.4095 -0.2880 -0.7667
  105CHL1   H2B14005   6.511   3.326   6.729 -1.0159  2.4147 -2.6632
  105CHL1   C2014006   6.320   3.414   5.785  0.0598 -0.3593  0.5633
  105CHL1   H2014007   6.251   3.347   5.841  1.1042 -2.6031 -0.7068
  105CHL1   C2114008   6.406   3.323   5.700 -0.2328  0.2075  0.1480
  105CHL1  H21A14009   6.479   3.397   5.661 -0.0445 -0.0079  0.0923
  105CHL1  H21B14010   6.349   3.262   5.626 -1.8848  2.6419 -0.7217
  105CHL1  H21C14011   6.446   3.248   5.771 -0.5910 -0.8971 -0.7845
  105CHL1   C2214012   6.236   3.515   5.696  0.5789 -0.2830 -0.6052
  105CHL1  H22A14013   6.180   3.576   5.771  1.3918 -0.0806 -0.1505
  105CHL1  H22B14014   6.292   3.581   5.626 -0.8355  2.3045  0.5589
  105CHL1   C2314015   6.127   3.449   5.610  0.2650 -0.2350  0.3612
  105CHL1  H23A14016   6.183   3.390   5.534 -1.8352 -0.1953 -1.2996
  105CHL1  H23B14017   6.072   3.375   5.672  0.1767 -1.8757 -1.5561
  105CHL1   C2414018   6.023   3.545   5.557 -0.5725 -0.0892  0.0351
  105CHL1  H24A14019   5.958   3.557   5.647  0.9082 -0.6980  1.2318
  105CHL1  H24B14020   6.060   3.647   5.535  0.2210 -0.8142 -2.2009
  105CHL1   C2514021   5.927   3.491   5.451 -0.0388  0.2053  0.3276
  105CHL1   H2514022   5.885   3.398   5.496  1.6166  0.0075  1.5616
  105CHL1   C2614023   5.817   3.591   5.429  0.4579 -0.1120 -0.6094
  105CHL1  H26A14024   5.747   3.538   5.361  0.0087 -1.3733  0.7838
  105CHL1  H26B14025   5.759   3.604   5.523 -1.3158  2.0567 -1.9126
  105CHL1  H26C14026   5.850   3.686   5.381  2.5756 -1.4599 -1.9804
  105CHL1   C2714027   5.994   3.461   5.317 -0.3357  0.7533 -0.1118
  105CHL1  H27A14028   6.066   3.376   5.326 -0.2306  0.9963  1.6244
  105CHL1  H27B14029   5.919   3.447   5.236 -2.8058  2.2198  1.7633
  105CHL1  H27C14030   6.059   3.550   5.302  3.5278 -1.9885 -1.3606
  106CHL1    C314031   2.246   0.561   6.403 -0.0777 -0.4830 -0.5910
  106CHL1    H314032   2.328   0.499   6.363  1.5543  0.6916  0.8071
  106CHL1    O314033   2.237   0.542   6.538  0.0873  0.0042 -0.3915
  106CHL1   H3'14034   2.195   0.456   6.548  0.7041 -0.3714 -0.9561
  106CHL1    C414035   2.265   0.706   6.380 -0.0379 -0.4511  0.2352
  106CHL1   H4A14036   2.190   0.768   6.433  0.2737 -2.5411  3.3990
  106CHL1   H4B14037   2.358   0.732   6.436 -0.7648  1.7006  0.5215
  106CHL1    C514038   2.275   0.747   6.237 -0.4424 -0.2656  0.3018
  106CHL1    C614039   2.375   0.818   6.187 -0.1569 -0.1528  0.0326
  106CHL1    H614040   2.459   0.855   6.246  0.6600 -0.1500 -1.1023
  106CHL1    C714041   2.391   0.854   6.042 -0.0626  0.3107 -0.3603
  106CHL1   H7A14042   2.403   0.964   6.027  0.9980  0.4155  1.0379
  106CHL1   H7B14043   2.481   0.802   6.002 -0.5182 -1.9526  1.3551
  106CHL1    C814044   2.278   0.809   5.953 -0.1184 -0.3668 -0.1324
  106CHL1    H814045   2.206   0.894   5.958  0.8731  0.4351  0.7788
  106CHL1   C1414046   2.332   0.802   5.804 -0.6305  0.4377  0.0819
  106CHL1   H1414047   2.397   0.712   5.802 -1.4303 -0.1596  0.2067
  106CHL1   C1514048   2.401   0.926   5.739 -1.1564 -0.3065  0.0622
  106CHL1  H15A14049   2.356   1.023   5.769 -1.0984 -0.2527 -0.0233
  106CHL1  H15B14050   2.507   0.927   5.775 -0.5208 -2.6621 -1.4835
  106CHL1   C1614051   2.393   0.898   5.588 -0.2961 -0.1592  0.3576
  106CHL1  H16A14052   2.335   0.984   5.549 -1.1270 -0.4550  0.9111
  106CHL1  H16B14053   2.493   0.887   5.542 -1.1833 -1.6134 -1.3858
  106CHL1   C1714054   2.300   0.776   5.569 -0.5635 -1.0093  0.0707
  106CHL1   H1714055   2.362   0.684   5.579  0.7158  0.0168  2.5908
  106CHL1   C1314056   2.219   0.768   5.705 -1.1374 -0.3386 -0.2605
  106CHL1   C1814057   2.115   0.881   5.706  0.1602  0.1299 -0.0778
  106CHL1  H18A14058   2.029   0.842   5.647 -0.8282  0.1417  1.2896
  106CHL1  H18B14059   2.074   0.890   5.809 -0.4127  2.4728 -0.4635
  106CHL1  H18C14060   2.155   0.980   5.676  1.7143  0.1106  1.7641
  106CHL1   C1214061   2.157   0.640   5.748 -0.2250 -0.2914 -0.1054
  106CHL1  H12A14062   2.069   0.606   5.689  1.6799 -1.3604 -2.4491
  106CHL1  H12B14063   2.222   0.554   5.722  0.5472  0.5326 -0.9485
  106CHL1   C1114064   2.108   0.635   5.899  0.0523 -0.0638  0.2035
  106CHL1  H11A14065   2.027   0.710   5.904  0.8441  0.9476 -1.2941
  106CHL1  H11B14066   2.077   0.529   5.914 -3.4771  1.0874  2.0952
  106CHL1    C914067   2.215   0.680   6.003  0.4471 -0.1874  0.4185
  106CHL1    H914068   2.296   0.603   5.996 -0.4745 -1.0403 -1.6353
  106CHL1   C1014069   2.166   0.685   6.150 -0.0680  0.5690 -0.1791
  106CHL1   C1914070   2.046   0.777   6.167 -0.2372  0.3603 -0.2707
  106CHL1  H19A14071   2.071   0.874   6.119 -0.3573 -0.0866 -1.2628
  106CHL1  H19B14072   1.953   0.740   6.118  0.5708 -0.3211 -1.3384
  106CHL1  H19C14073   2.006   0.811   6.265 -1.1855 -1.5631  0.0685
  106CHL1    C114074   2.125   0.542   6.196 -0.6420  0.5944  0.2658
  106CHL1   H1A14075   2.033   0.522   6.138 -0.2267 -0.6625  0.0032
  106CHL1   H1B14076   2.206   0.478   6.156 -1.4930 -0.7048  0.5632
  106CHL1    C214077   2.118   0.517   6.344 -0.2031  0.6755 -0.4221
  106CHL1   H2A14078   2.112   0.408   6.366 -2.6444  1.0323  1.0449
  106CHL1   H2B14079   2.032   0.567   6.392 -0.2596 -1.6022  2.0815
  106CHL1   C2014080   2.224   0.779   5.436  0.0499  0.2623 -1.1099
  106CHL1   H2014081   2.167   0.873   5.448  2.5118  1.6339  0.7936
  106CHL1   C2114082   2.137   0.657   5.428  0.9251  0.4136 -0.5725
  106CHL1  H21A14083   2.214   0.576   5.429  1.5276  0.9599 -1.3205
  106CHL1  H21B14084   2.084   0.665   5.331  0.2604 -0.7738 -0.3269
  106CHL1  H21C14085   2.054   0.645   5.500 -1.4312  0.0067 -3.2148
  106CHL1   C2214086   2.316   0.797   5.315 -0.1247  0.8588  0.0283
  106CHL1  H22A14087   2.258   0.775   5.224 -0.1520 -0.8377  0.4178
  106CHL1  H22B14088   2.347   0.904   5.312 -0.3700  0.9275 -0.0423
  106CHL1   C2314089   2.445   0.698   5.318  0.5179 -0.0843 -0.0186
  106CHL1  H23A14090   2.517   0.724   5.398  0.3130 -1.0041  0.4760
  106CHL1  H23B14091   2.408   0.594   5.335 -0.9306  0.4359  0.1674
  106CHL1   C2414092   2.530   0.718   5.188 -0.5317  0.1180  0.8100
  106CHL1  H24A14093   2.462   0.709   5.101  0.6132  3.9319 -0.6917
  106CHL1  H24B14094   2.576   0.819   5.186  2.0161 -0.9582  0.7918
  106CHL1   C2514095   2.643   0.606   5.179 -0.7173 -0.6390  0.3873
  106CHL1   H2514096   2.596   0.506   5.167 -0.4941 -0.4934 -2.4692
  106CHL1   C2614097   2.723   0.627   5.052  0.3916  0.1325 -0.4578
  106CHL1  H26A14098   2.649   0.650   4.972  0.7787 -0.5743 -1.0281
  106CHL1  H26B14099   2.782   0.721   5.057 -0.4530  0.7380 -1.4317
  106CHL1  H26C14100   2.773   0.531   5.028 -3.4421 -1.4655 -3.0587
  106CHL1   C2714101   2.739   0.607   5.300  0.1744 -0.2188  0.1793
  106CHL1  H27A14102   2.784   0.708   5.311 -1.3735  0.4002  1.1126
  106CHL1  H27B14103   2.690   0.589   5.398 -0.0355 -0.3167  0.0572
  106CHL1  H27C14104   2.816   0.528   5.288  1.7382  1.4756 -1.5513
  107CHL1    C314105   3.447   6.041   6.300  0.6310  0.1020  0.1599
  107CHL1    H314106   3.519   5.978   6.245  0.7177 -0.1698  0.5785
  107CHL1    O314107   3.456   6.015   6.434 -0.0553  0.0668 -0.2043
  107CHL1   H3'14108   3.382   6.057   6.477  1.7120  1.1512  1.9957
  107CHL1    C414109   3.453   6.193   6.290  0.6029 -0.2850 -0.3586
  107CHL1   H4A14110   3.362   6.230   6.341  1.4037  0.3154  0.6859
  107CHL1   H4B14111   3.545   6.226   6.343  0.6268 -0.7851 -0.0843
  107CHL1    C514112   3.442   6.234   6.145 -0.0450 -0.1618  0.3181
  107CHL1    C614113   3.543   6.299   6.089  0.1697  0.2756 -0.5222
  107CHL1    H614114   3.627   6.333   6.152  0.3375  0.5287 -0.8757
  107CHL1    C714115   3.557   6.349   5.950  0.1754  0.3137  0.3827
  107CHL1   H7A14116   3.588   6.456   5.960  0.2795  0.1160  3.0017
  107CHL1   H7B14117   3.632   6.285   5.898  0.3243  0.3647  0.5323
  107CHL1    C814118   3.417   6.346   5.886  0.9622  0.2097  0.1964
  107CHL1    H814119   3.358   6.427   5.934 -1.5656 -1.9032  0.9143
  107CHL1   C1414120   3.425   6.370   5.731 -0.4538  0.4052 -1.0400
  107CHL1   H1414121   3.495   6.296   5.688  1.3092  0.1362  2.0369
  107CHL1   C1514122   3.490   6.504   5.679 -0.6062 -0.0879 -0.6396
  107CHL1  H15A14123   3.457   6.599   5.727  2.8907  1.0927 -0.3285
  107CHL1  H15B14124   3.601   6.509   5.679 -0.5326 -1.0906 -1.6758
  107CHL1   C1614125   3.447   6.503   5.531  0.7250  0.8110 -0.1364
  107CHL1  H16A14126   3.423   6.608   5.508 -0.0287  1.5051  3.2578
  107CHL1  H16B14127   3.537   6.477   5.471 -0.3334 -0.6445 -1.1790
  107CHL1   C1714128   3.322   6.397   5.511  0.0718  0.4809 -1.0788
  107CHL1   H1714129   3.373   6.308   5.469  1.6037  0.0322  1.4618
  107CHL1   C1314130   3.286   6.365   5.659  0.1254 -0.4748  0.5437
  107CHL1   C1814131   3.200   6.481   5.733  0.1692  0.6305  0.2483
  107CHL1  H18A14132   3.252   6.578   5.720  1.7329 -0.0578  1.1319
  107CHL1  H18B14133   3.097   6.482   5.690 -0.2587 -3.6318  0.7191
  107CHL1  H18C14134   3.177   6.457   5.839  0.3326 -3.3856 -0.4621
  107CHL1   C1214135   3.233   6.227   5.683  0.9173  0.0204 -0.6277
  107CHL1  H12A14136   3.130   6.220   5.641 -0.9524  4.7681  2.3288
  107CHL1  H12B14137   3.302   6.151   5.640 -1.1035 -3.1965  1.3343
  107CHL1   C1114138   3.221   6.183   5.829 -0.1911 -0.3964 -0.1877
  107CHL1  H11A14139   3.129   6.241   5.856  1.3177  1.7237  0.7062
  107CHL1  H11B14140   3.187   6.078   5.833  1.1440 -0.8750 -0.9345
  107CHL1    C914141   3.346   6.207   5.913 -0.3810 -0.0611 -0.6726
  107CHL1    H914142   3.422   6.132   5.884 -1.9734 -1.4629 -1.4232
  107CHL1   C1014143   3.313   6.182   6.068  0.0189 -0.4635  0.0040
  107CHL1   C1914144   3.193   6.264   6.114 -0.4683  0.8859 -0.2882
  107CHL1  H19A14145   3.184   6.275   6.225  0.8366 -0.2537 -0.0357
  107CHL1  H19B14146   3.195   6.359   6.057 -3.2970  1.3677  0.2690
  107CHL1  H19C14147   3.095   6.218   6.090 -0.6342  1.1323 -0.0893
  107CHL1    C114148   3.290   6.033   6.101  0.0356 -0.0999  0.3110
  107CHL1   H1A14149   3.188   6.002   6.070  0.1037  0.7163 -0.8091
  107CHL1   H1B14150   3.357   5.970   6.039 -1.1885 -0.1663 -0.9944
  107CHL1    C214151   3.306   6.003   6.255  0.1074  0.0485  0.9792
  107CHL1   H2A14152   3.287   5.897   6.280  0.1393 -0.1832  0.0612
  107CHL1   H2B14153   3.232   6.061   6.313 -1.2086  1.5437 -1.9424
  107CHL1   C2014154   3.213   6.455   5.421 -0.0310 -0.2807  0.1736
  107CHL1   H2014155   3.171   6.544   5.475 -0.8462  0.2142 -1.2239
  107CHL1   C2114156   3.108   6.352   5.386  0.4188  0.2234 -0.2365
  107CHL1  H21A14157   3.056   6.310   5.474  1.9338 -0.6638  0.2624
  107CHL1  H21B14158   3.164   6.268   5.340  1.3017  0.3951  0.4895
  107CHL1  H21C14159   3.035   6.385   5.309 -0.5018 -0.4346  0.3352
  107CHL1   C2214160   3.279   6.512   5.291 -0.5732 -0.2479 -0.1477
  107CHL1  H22A14161   3.389   6.493   5.292 -0.7563 -1.3753 -0.0932
  107CHL1  H22B14162   3.231   6.456   5.208 -0.6251  1.4376 -1.2959
  107CHL1   C2314163   3.259   6.662   5.274  0.7201 -0.0213 -0.4373
  107CHL1  H23A14164   3.303   6.727   5.353 -1.3315  1.4846 -0.4551
  107CHL1  H23B14165   3.307   6.681   5.175  2.2778  0.9009  0.4591
  107CHL1   C2414166   3.115   6.706   5.259 -0.3547 -0.0542  0.8269
  107CHL1  H24A14167   3.066   6.643   5.181  0.2418  0.5004 -0.0247
  107CHL1  H24B14168   3.051   6.690   5.347 -1.3472  0.7737  0.2801
  107CHL1   C2514169   3.105   6.857   5.210  0.2308  0.1743  0.0166
  107CHL1   H2514170   3.173   6.922   5.269 -0.9548  0.9524  0.5728
  107CHL1   C2614171   3.144   6.873   5.065 -0.0329 -0.0400  0.4969
  107CHL1  H26A14172   3.252   6.848   5.061  0.0831  0.3894  0.9266
  107CHL1  H26B14173   3.076   6.817   4.997 -1.5278  1.7494  0.4199
  107CHL1  H26C14174   3.138   6.982   5.044 -1.5085 -0.3795 -1.1828
  107CHL1   C2714175   2.966   6.906   5.233 -0.1098  0.2108  0.2125
  107CHL1  H27A14176   2.887   6.843   5.186 -1.7961  1.1816  1.6557
  107CHL1  H27B14177   2.944   6.917   5.342  0.1709  1.2757  0.1733
  107CHL1  H27C14178   2.956   7.008   5.192  0.2673  0.5945  1.0451
  108CHL1    C314179   5.962   2.894   6.959 -1.0447  0.0301  0.1418
  108CHL1    H314180   6.044   2.964   6.935 -1.2745  0.3268  0.2065
  108CHL1    O314181   5.950   2.893   7.099  0.3218 -0.2237 -0.1478
  108CHL1   H3'14182   5.886   2.825   7.121  0.5562 -1.0859 -1.9610
  108CHL1    C414183   5.828   2.936   6.890 -0.6038  0.0356  0.2137
  108CHL1   H4A14184   5.745   2.897   6.952 -1.4879 -2.1088 -2.1333
  108CHL1   H4B14185   5.831   3.047   6.896 -0.6697 -0.0646  3.8335
  108CHL1    C514186   5.807   2.882   6.747  0.1405 -0.4885  0.3236
  108CHL1    C614187   5.753   2.963   6.656 -0.5335  0.3417  0.0911
  108CHL1    H614188   5.723   3.066   6.678 -0.0695  0.7685 -1.1828
  108CHL1    C714189   5.718   2.927   6.521  0.0027  0.2543  0.4991
  108CHL1   H7A14190   5.619   2.972   6.498 -0.2329 -0.5911 -0.1810
  108CHL1   H7B14191   5.789   2.966   6.444 -0.8455  0.2881 -0.2850
  108CHL1    C814192   5.703   2.774   6.489  0.3993  0.7105 -1.3028
  108CHL1    H814193   5.609   2.742   6.540  0.6508 -0.4364 -1.5308
  108CHL1   C1414194   5.699   2.742   6.344 -0.0342 -0.2922 -0.1673
  108CHL1   H1414195   5.797   2.776   6.304  0.7070  0.6970  2.2547
  108CHL1   C1514196   5.584   2.807   6.263  0.1446  0.4023  0.0402
  108CHL1  H15A14197   5.491   2.791   6.322 -0.4240  1.4280 -0.5555
  108CHL1  H15B14198   5.610   2.914   6.254  2.6637 -0.0721  0.7756
  108CHL1   C1614199   5.600   2.738   6.122  0.5807 -0.5830  0.0074
  108CHL1  H16A14200   5.500   2.709   6.082 -0.5163  1.4023  1.1258
  108CHL1  H16B14201   5.655   2.802   6.050 -0.1796 -0.3974 -0.4238
  108CHL1   C1714202   5.681   2.607   6.158  0.9530  0.8141  0.6555
  108CHL1   H1714203   5.787   2.627   6.132  0.6585  1.0765 -0.4058
  108CHL1   C1314204   5.683   2.596   6.310  0.1714  0.5852 -0.1047
  108CHL1   C1814205   5.554   2.528   6.361 -0.5218 -0.0056 -0.7835
  108CHL1  H18A14206   5.543   2.418   6.345  0.7583 -0.3703  0.5941
  108CHL1  H18B14207   5.542   2.548   6.470  0.1663  0.6390 -0.8153
  108CHL1  H18C14208   5.466   2.581   6.321 -0.0677  1.3900 -0.0162
  108CHL1   C1214209   5.798   2.521   6.374  0.4744  0.0803 -0.2099
  108CHL1  H12A14210   5.780   2.414   6.349  0.0131  0.5375 -2.0018
  108CHL1  H12B14211   5.895   2.558   6.335  0.9005 -0.2199  0.5447
  108CHL1   C1114212   5.825   2.551   6.523  0.4568  0.0235 -0.1739
  108CHL1  H11A14213   5.754   2.500   6.591  0.9272 -0.1637  0.1815
  108CHL1  H11B14214   5.922   2.504   6.548 -0.6242 -1.8863  0.6564
  108CHL1    C914215   5.818   2.694   6.560 -0.3396 -0.3271 -0.1758
  108CHL1    H914216   5.903   2.750   6.517 -0.5311  1.2614  1.3711
  108CHL1   C1014217   5.837   2.732   6.712  0.2523  0.2665 -0.6178
  108CHL1   C1914218   5.731   2.654   6.797  0.2252 -0.2191 -0.2342
  108CHL1  H19A14219   5.625   2.669   6.768  0.5194  1.1634 -0.7091
  108CHL1  H19B14220   5.746   2.545   6.787 -1.6029 -0.3207 -3.1913
  108CHL1  H19C14221   5.731   2.685   6.903 -0.0119  3.0276 -1.0662
  108CHL1    C114222   5.979   2.716   6.760  0.4149 -0.2246  0.4125
  108CHL1   H1A14223   5.987   2.607   6.741 -3.0007 -0.3758 -1.0126
  108CHL1   H1B14224   6.046   2.766   6.687 -0.3771 -0.8357 -0.7741
  108CHL1    C214225   5.998   2.753   6.907 -0.0443  0.2589  0.3747
  108CHL1   H2A14226   6.102   2.735   6.941 -0.8146 -2.7062  1.5954
  108CHL1   H2B14227   5.944   2.679   6.971  2.4982 -0.5680  1.6874
  108CHL1   C2014228   5.635   2.490   6.065 -0.2589 -0.1380 -0.3266
  108CHL1   H2014229   5.527   2.470   6.080 -0.4271 -0.4391 -1.7700
  108CHL1   C2114230   5.689   2.347   6.108  0.1857  0.5295  0.2696
  108CHL1  H21A14231   5.799   2.340   6.121  0.3203  1.3418 -0.3894
  108CHL1  H21B14232   5.650   2.271   6.038 -0.8063 -1.5770  2.9034
  108CHL1  H21C14233   5.633   2.337   6.204 -0.9810  0.5007 -0.4070
  108CHL1   C2214234   5.641   2.515   5.917  0.6018 -0.2340  0.2855
  108CHL1  H22A14235   5.606   2.422   5.865 -0.2884  0.0625  0.3418
  108CHL1  H22B14236   5.572   2.598   5.892  2.0700  0.9032 -0.1232
  108CHL1   C2314237   5.781   2.541   5.865 -0.0416  0.3945  0.7135
  108CHL1  H23A14238   5.789   2.651   5.873 -2.8463  0.6505  0.7874
  108CHL1  H23B14239   5.857   2.499   5.935  0.5185  0.2708  0.0415
  108CHL1   C2414240   5.804   2.488   5.726  0.1994  0.0307  0.0152
  108CHL1  H24A14241   5.912   2.502   5.703 -0.0509 -1.7416 -2.6807
  108CHL1  H24B14242   5.783   2.379   5.722  0.2711 -0.0479  1.2864
  108CHL1   C2514243   5.731   2.567   5.611  0.6478 -0.2919 -0.7866
  108CHL1   H2514244   5.626   2.565   5.650  1.2597 -0.5550  0.9472
  108CHL1   C2614245   5.769   2.718   5.609 -0.5118 -0.3610 -0.1671
  108CHL1  H26A14246   5.879   2.717   5.623 -0.5687  0.1700  0.3635
  108CHL1  H26B14247   5.738   2.774   5.519 -0.1912 -0.2202 -0.1890
  108CHL1  H26C14248   5.728   2.761   5.703  1.0434 -0.5642  0.6237
  108CHL1   C2714249   5.743   2.500   5.474  0.2081  0.3202 -0.5280
  108CHL1  H27A14250   5.668   2.551   5.410 -0.2162  0.6021  0.1797
  108CHL1  H27B14251   5.844   2.527   5.436  1.0226 -1.2597  0.4057
  108CHL1  H27C14252   5.728   2.390   5.476 -2.4936  0.6355  0.6851
  109CHL1    C314253   2.722   6.299   6.466  0.1670 -0.4997 -0.9227
  109CHL1    H314254   2.754   6.389   6.411  0.8289 -0.2308 -0.1230
  109CHL1    O314255   2.700   6.329   6.605  0.0838  0.4690  0.1481
  109CHL1   H3'14256   2.779   6.296   6.648  0.2024 -2.0171 -1.7262
  109CHL1    C414257   2.597   6.240   6.397  0.2169  0.9768  0.2228
  109CHL1   H4A14258   2.556   6.151   6.449 -0.4324  0.9460 -0.3247
  109CHL1   H4B14259   2.522   6.323   6.397 -1.9027 -0.8267 -1.3442
  109CHL1    C514260   2.626   6.185   6.254 -0.5403 -0.7185 -0.8616
  109CHL1    C614261   2.554   6.222   6.146  0.1149  0.0094  0.3660
  109CHL1    H614262   2.467   6.288   6.156  0.3243  0.3892 -0.2894
  109CHL1    C714263   2.568   6.157   6.013 -0.1878 -0.0655 -0.0757
  109CHL1   H7A14264   2.469   6.137   5.967 -1.0254  1.1631  1.1021
  109CHL1   H7B14265   2.611   6.232   5.943  0.2664  0.6085  0.8851
  109CHL1    C814266   2.662   6.032   6.003 -0.7372 -0.0325  0.4920
  109CHL1    H814267   2.612   5.936   6.031 -0.5418  0.4513  2.6664
  109CHL1   C1414268   2.711   6.023   5.859  0.2946 -0.6020  0.0900
  109CHL1   H1414269   2.761   6.117   5.827  0.1485 -0.3435  0.6216
  109CHL1   C1514270   2.603   6.007   5.750 -0.2982 -0.7372 -0.7336
  109CHL1  H15A14271   2.552   5.913   5.777 -0.1376 -0.4928  0.5346
  109CHL1  H15B14272   2.536   6.094   5.731  0.9874  0.2084 -1.1306
  109CHL1   C1614273   2.686   5.976   5.625  0.3680  0.6206  0.0858
  109CHL1  H16A14274   2.647   5.883   5.579 -0.3723  1.3953 -0.9280
  109CHL1  H16B14275   2.697   6.062   5.555  0.8884  1.2428  0.9108
  109CHL1   C1714276   2.836   5.949   5.673 -0.2435  0.5995  0.5149
  109CHL1   H1714277   2.894   6.043   5.662  0.1991  0.2521 -0.1661
  109CHL1   C1314278   2.818   5.914   5.823  0.4668 -0.4975  0.3659
  109CHL1   C1814279   2.769   5.768   5.838 -0.0001 -0.3259  0.0974
  109CHL1  H18A14280   2.694   5.737   5.762 -1.1551  1.5976  0.3684
  109CHL1  H18B14281   2.860   5.707   5.819 -0.5283 -0.6581 -1.5222
  109CHL1  H18C14282   2.729   5.738   5.938 -1.7848 -0.5272 -0.6473
  109CHL1   C1214283   2.937   5.936   5.922  0.6597 -0.9990 -0.8712
  109CHL1  H12A14284   3.027   5.872   5.917  1.3245 -0.0894 -0.6479
  109CHL1  H12B14285   2.974   6.040   5.913  2.8674 -1.5100  1.1238
  109CHL1   C1114286   2.887   5.939   6.071  0.5421  0.2388 -0.0125
  109CHL1  H11A14287   2.855   5.834   6.089 -0.7301  0.5719 -0.2201
  109CHL1  H11B14288   2.973   5.957   6.139  0.5825 -0.6917  0.1941
  109CHL1    C914289   2.779   6.047   6.098 -0.1023 -0.0299  0.5131
  109CHL1    H914290   2.831   6.141   6.068  0.3646 -0.7372 -0.9716
  109CHL1   C1014291   2.738   6.077   6.244  0.3725 -0.2520  0.4776
  109CHL1   C1914292   2.706   5.947   6.317 -0.2557  0.2487  0.3162
  109CHL1  H19A14293   2.690   5.967   6.425 -0.8076  0.9246  0.1213
  109CHL1  H19B14294   2.618   5.894   6.275  0.0599  0.2349 -0.3383
  109CHL1  H19C14295   2.793   5.878   6.319  0.0807  0.6020 -1.0329
  109CHL1    C114296   2.865   6.140   6.323 -0.1878  1.0194 -0.4956
  109CHL1   H1A14297   2.944   6.063   6.335 -1.1829  0.2691  1.9171
  109CHL1   H1B14298   2.910   6.217   6.257  0.2341  0.7145 -0.5690
  109CHL1    C214299   2.837   6.191   6.462  0.4054 -0.1360 -0.3727
  109CHL1   H2A14300   2.929   6.237   6.504 -0.9296  0.9327  1.5395
  109CHL1   H2B14301   2.811   6.104   6.525 -1.1794  0.0703 -0.7031
  109CHL1   C2014302   2.913   5.846   5.584  0.3353 -0.6950 -0.1732
  109CHL1   H2014303   2.863   5.747   5.576  3.1058 -2.1444 -0.7840
  109CHL1   C2114304   3.051   5.803   5.646  0.0163  0.5372 -0.3572
  109CHL1  H21A14305   3.038   5.773   5.752  1.1116  0.1867 -0.3163
  109CHL1  H21B14306   3.117   5.893   5.646  0.1417  0.4495  0.3282
  109CHL1  H21C14307   3.102   5.715   5.602 -0.8937  0.2104 -0.7977
  109CHL1   C2214308   2.929   5.892   5.439 -0.0687 -0.2593  0.2495
  109CHL1  H22A14309   2.823   5.900   5.407  0.0276 -0.4448 -0.1263
  109CHL1  H22B14310   2.988   5.985   5.425  1.5405 -1.3257 -0.3931
  109CHL1   C2314311   2.980   5.784   5.338  0.8155  0.2133  1.0659
  109CHL1  H23A14312   3.077   5.746   5.379 -0.3430 -0.8802  2.9604
  109CHL1  H23B14313   2.905   5.702   5.336 -0.7217  1.5710 -1.5415
  109CHL1   C2414314   2.983   5.845   5.197  0.2291  0.1385 -1.2925
  109CHL1  H24A14315   2.880   5.873   5.169 -0.8231 -2.9399 -0.9210
  109CHL1  H24B14316   3.041   5.939   5.204  1.4598 -0.7086  1.8161
  109CHL1   C2514317   3.055   5.755   5.083 -0.2032 -0.6889  0.1514
  109CHL1   H2514318   3.158   5.734   5.119  0.2646 -1.0159 -1.3074
  109CHL1   C2614319   2.983   5.620   5.064  0.1587  0.4541  0.5091
  109CHL1  H26A14320   3.043   5.549   5.003 -1.7437 -0.5465 -0.2676
  109CHL1  H26B14321   2.961   5.568   5.160  0.3174 -2.6329 -0.9952
  109CHL1  H26C14322   2.890   5.642   5.008  1.5466  1.2396 -1.6078
  109CHL1   C2714323   3.075   5.828   4.951  0.6791  0.2741 -0.2392
  109CHL1  H27A14324   3.125   5.753   4.886 -0.5065 -1.2117  0.4814
  109CHL1  H27B14325   2.975   5.849   4.908  1.3653  3.4205 -0.4948
  109CHL1  H27C14326   3.139   5.918   4.956  0.9683  0.0979 -0.6989
  110CHL1    C314327   1.310   5.505   6.440 -0.0305  0.2156 -0.6108
  110CHL1    H314328   1.411   5.515   6.485  0.5490 -0.7349 -1.6605
  110CHL1    O314329   1.224   5.513   6.554 -0.3709 -0.2868 -0.2813
  110CHL1   H3'14330   1.243   5.593   6.603 -1.4104  0.4977 -1.1067
  110CHL1    C414331   1.290   5.620   6.342  0.4275 -0.7763  0.5255
  110CHL1   H4A14332   1.183   5.631   6.312  0.7760  0.7835 -0.2687
  110CHL1   H4B14333   1.314   5.712   6.399 -0.4738 -0.3753  0.2866
  110CHL1    C514334   1.381   5.602   6.228  0.5076  0.8150  0.3137
  110CHL1    C614335   1.468   5.694   6.193  0.4492 -0.3280 -0.4121
  110CHL1    H614336   1.475   5.782   6.259 -3.0721 -0.9678  1.0511
  110CHL1    C714337   1.552   5.692   6.065 -0.2320  0.8048  0.7258
  110CHL1   H7A14338   1.524   5.788   6.017 -1.8256 -0.3924 -0.8762
  110CHL1   H7B14339   1.660   5.675   6.086 -0.1858  1.6464  1.2231
  110CHL1    C814340   1.494   5.584   5.968 -0.8124  0.2975 -0.5599
  110CHL1    H814341   1.401   5.631   5.929 -0.5914  0.7301 -0.5678
  110CHL1   C1414342   1.591   5.573   5.847  0.0740  0.6233  0.1614
  110CHL1   H1414343   1.688   5.533   5.885 -0.1041  1.3753  1.4561
  110CHL1   C1514344   1.627   5.705   5.778 -0.0083  0.0562 -0.5218
  110CHL1  H15A14345   1.536   5.768   5.770  0.0368 -0.0487 -2.3744
  110CHL1  H15B14346   1.700   5.760   5.840 -0.7571 -0.3524  0.7698
  110CHL1   C1614347   1.674   5.662   5.639 -0.5808 -0.3642 -0.3702
  110CHL1  H16A14348   1.616   5.722   5.565  0.0072  2.3242  1.2110
  110CHL1  H16B14349   1.783   5.679   5.647 -0.6247  0.1438 -0.7773
  110CHL1   C1714350   1.642   5.515   5.627  0.2825  1.0403  0.9745
  110CHL1   H1714351   1.738   5.467   5.654  0.1606  1.0477  1.4319
  110CHL1   C1314352   1.542   5.480   5.737 -0.2441 -0.5487 -0.0236
  110CHL1   C1814353   1.397   5.523   5.682  0.0828 -0.4041 -0.4474
  110CHL1  H18A14354   1.370   5.451   5.602  0.5569  1.0912 -2.0136
  110CHL1  H18B14355   1.322   5.521   5.764 -1.9361  0.8612 -2.1695
  110CHL1  H18C14356   1.395   5.623   5.635 -1.9013  0.7602  1.8811
  110CHL1   C1214357   1.537   5.339   5.795 -0.0942  0.1004 -0.4919
  110CHL1  H12A14358   1.498   5.274   5.714  0.0061 -1.0084  0.3294
  110CHL1  H12B14359   1.640   5.308   5.822 -1.1461 -1.1211  2.6861
  110CHL1   C1114360   1.450   5.325   5.929 -0.2556 -0.2085  0.8380
  110CHL1  H11A14361   1.344   5.346   5.903 -0.6288  0.1516  2.5449
  110CHL1  H11B14362   1.465   5.230   5.984  2.0893 -0.5838 -0.3135
  110CHL1    C914363   1.466   5.451   6.036  0.1232  0.0117  0.9974
  110CHL1    H914364   1.558   5.418   6.088  0.7780 -0.3982 -0.3903
  110CHL1   C1014365   1.362   5.469   6.151 -0.6095 -0.6054 -0.3313
  110CHL1   C1914366   1.219   5.473   6.087  0.2195  0.3093  0.3828
  110CHL1  H19A14367   1.133   5.501   6.151  0.4858  1.6471  0.1882
  110CHL1  H19B14368   1.214   5.550   6.007 -1.7402  0.7981  0.9288
  110CHL1  H19C14369   1.196   5.377   6.037 -0.2830  1.0969 -0.9648
  110CHL1    C114370   1.382   5.356   6.247  0.0008 -0.0199 -0.5549
  110CHL1   H1A14371   1.363   5.257   6.200 -1.1373 -0.4283  0.7196
  110CHL1   H1B14372   1.484   5.355   6.290  0.0569  3.1004 -0.4214
  110CHL1    C214373   1.288   5.373   6.368 -0.7298 -0.6471 -0.4975
  110CHL1   H2A14374   1.311   5.288   6.436  1.6641 -0.2671 -0.7805
  110CHL1   H2B14375   1.179   5.360   6.351 -1.4203  0.7362  2.2636
  110CHL1   C2014376   1.625   5.461   5.483  0.4180  0.4422  0.0799
  110CHL1   H2014377   1.534   5.506   5.438  1.1010  0.7004 -1.0818
  110CHL1   C2114378   1.591   5.307   5.475  0.6171 -0.8333  0.0811
  110CHL1  H21A14379   1.666   5.243   5.526 -0.4943 -0.0798  2.7890
  110CHL1  H21B14380   1.593   5.285   5.366  1.3697  1.2279 -0.3715
  110CHL1  H21C14381   1.492   5.288   5.520  1.0094 -2.1098  0.4458
  110CHL1   C2214382   1.741   5.499   5.383  0.3781  0.2101 -0.3749
  110CHL1  H22A14383   1.720   5.455   5.283  0.0207 -1.7274  0.5048
  110CHL1  H22B14384   1.744   5.610   5.375  1.0606  0.1448 -1.1171
  110CHL1   C2314385   1.880   5.432   5.422  0.1532 -0.9979 -0.7252
  110CHL1  H23A14386   1.917   5.496   5.504  1.1357 -1.0248 -1.1398
  110CHL1  H23B14387   1.866   5.324   5.445  1.8903 -1.0806  0.0999
  110CHL1   C2414388   1.982   5.438   5.302  0.1334 -0.1500  0.0860
  110CHL1  H24A14389   1.939   5.381   5.217  1.5422  0.2998 -0.9734
  110CHL1  H24B14390   1.986   5.547   5.280 -1.1965 -0.0860  0.0624
  110CHL1   C2514391   2.120   5.381   5.328  0.0585 -0.6436 -0.2059
  110CHL1   H2514392   2.116   5.271   5.315 -2.2624 -0.6823  0.4638
  110CHL1   C2614393   2.223   5.422   5.229  0.0491 -0.6049  1.0114
  110CHL1  H26A14394   2.321   5.376   5.252  1.1337  0.6375 -0.8956
  110CHL1  H26B14395   2.202   5.380   5.128 -0.5418  0.3672  0.7137
  110CHL1  H26C14396   2.236   5.532   5.218  1.7151 -0.7476  1.3266
  110CHL1   C2714397   2.178   5.415   5.463  0.0590 -0.0692  0.1425
  110CHL1  H27A14398   2.285   5.387   5.472  0.8000  1.8352 -1.8847
  110CHL1  H27B14399   2.172   5.523   5.490  1.1014  0.4171 -1.4241
  110CHL1  H27C14400   2.122   5.357   5.539 -0.6604 -0.6350 -0.7997
  111CHL1    C314401   3.037   1.135   6.466 -0.3791 -0.1344  0.5744
  111CHL1    H314402   2.941   1.187   6.445  1.0324  1.9718 -0.9480
  111CHL1    O314403   3.108   1.208   6.560 -0.4356  0.0511  0.3399
  111CHL1   H3'14404   3.056   1.208   6.641  0.3291 -1.4180  0.8706
  111CHL1    C414405   3.016   0.990   6.519 -0.6181 -0.0849 -0.3213
  111CHL1   H4A14406   3.121   0.960   6.539 -1.0023 -0.7088  0.8394
  111CHL1   H4B14407   2.964   0.999   6.616 -0.2744 -0.8783 -0.0485
  111CHL1    C514408   2.952   0.894   6.425 -0.4073 -0.7720  0.3737
  111CHL1    C614409   2.839   0.835   6.459  0.1574  0.2344 -0.0296
  111CHL1    H614410   2.795   0.855   6.558 -1.3460  1.4888 -0.9088
  111CHL1    C714411   2.757   0.744   6.367 -0.0292  0.4549 -0.2877
  111CHL1   H7A14412   2.730   0.654   6.426 -0.1773  1.5881  1.4853
  111CHL1   H7B14413   2.666   0.803   6.340  0.0832  0.9952  0.4805
  111CHL1    C814414   2.834   0.693   6.246  0.3382 -0.0299 -0.0642
  111CHL1    H814415   2.917   0.629   6.283 -0.5282  0.0172  2.1127
  111CHL1   C1414416   2.738   0.640   6.137 -0.0258 -0.4191 -0.3485
  111CHL1   H1414417   2.678   0.731   6.117  0.1495  0.5954  3.0132
  111CHL1   C1514418   2.642   0.531   6.183  0.2974 -0.2198  0.0713
  111CHL1  H15A14419   2.702   0.450   6.230  0.0245 -0.8124 -0.5861
  111CHL1  H15B14420   2.560   0.570   6.247  1.5046 -0.9718  2.1858
  111CHL1   C1614421   2.601   0.459   6.052 -0.2517 -0.8037 -0.0443
  111CHL1  H16A14422   2.642   0.356   6.047 -2.4425 -1.7388  0.3729
  111CHL1  H16B14423   2.493   0.452   6.027 -0.8075 -0.0729  1.9979
  111CHL1   C1714424   2.675   0.536   5.937 -0.2389 -0.4334 -0.0070
  111CHL1   H1714425   2.614   0.624   5.908  1.9513  1.1198 -0.1110
  111CHL1   C1314426   2.798   0.589   6.011  0.3758 -0.0075 -1.0341
  111CHL1   C1814427   2.890   0.473   6.044  0.0385  0.0221  0.5794
  111CHL1  H18A14428   2.840   0.381   6.082  1.8109 -0.8677  0.8566
  111CHL1  H18B14429   2.940   0.446   5.948  2.0148 -0.6676  1.7447
  111CHL1  H18C14430   2.977   0.501   6.106  0.2036  0.1301  0.3007
  111CHL1   C1214431   2.872   0.710   5.951 -0.1631 -0.5732 -0.2916
  111CHL1  H12A14432   2.932   0.674   5.864 -0.0783 -2.2758  0.4277
  111CHL1  H12B14433   2.804   0.789   5.913  0.0622 -0.0407  0.4082
  111CHL1   C1114434   2.976   0.770   6.049 -0.1952 -0.5322  1.1356
  111CHL1  H11A14435   3.058   0.698   6.063 -0.2605 -0.9773 -0.6269
  111CHL1  H11B14436   3.026   0.860   6.009  0.2958 -1.8856 -1.4837
  111CHL1    C914437   2.905   0.817   6.184 -0.1710  0.1940  1.2149
  111CHL1    H914438   2.824   0.889   6.161 -1.8159 -2.1248 -0.7096
  111CHL1   C1014439   3.007   0.880   6.285 -0.2369 -0.2954 -0.7832
  111CHL1   C1914440   3.141   0.802   6.302 -0.3601 -0.1315  0.3811
  111CHL1  H19A14441   3.214   0.864   6.358 -1.6298  2.4375 -0.6603
  111CHL1  H19B14442   3.112   0.713   6.361 -0.9627  0.0775  0.4028
  111CHL1  H19C14443   3.196   0.778   6.208  1.0409  0.9605  0.8805
  111CHL1    C114444   3.042   1.027   6.235 -1.1110  0.0301 -0.3164
  111CHL1   H1A14445   3.096   1.026   6.138  0.9021  0.0543  0.7476
  111CHL1   H1B14446   2.947   1.075   6.202 -0.9803  0.2726 -0.3330
  111CHL1    C214447   3.114   1.127   6.337 -0.3412  0.2653  0.3267
  111CHL1   H2A14448   3.113   1.226   6.286  0.4452  0.0482 -0.1297
  111CHL1   H2B14449   3.222   1.101   6.337  0.5221  3.3517 -1.5321
  111CHL1   C2014450   2.706   0.454   5.809  0.9441 -0.2134  0.2954
  111CHL1   H2014451   2.802   0.398   5.809  0.4493 -1.0648  0.1873
  111CHL1   C2114452   2.700   0.563   5.694 -0.4852  0.4290 -0.2305
  111CHL1  H21A14453   2.596   0.596   5.670 -0.5203  1.3677  1.1216
  111CHL1  H21B14454   2.745   0.529   5.598 -0.5320  1.5993 -0.6873
  111CHL1  H21C14455   2.763   0.648   5.726  1.7930 -1.2841  0.0923
  111CHL1   C2214456   2.588   0.355   5.770 -0.1321  0.8350 -0.3681
  111CHL1  H22A14457   2.571   0.289   5.858  1.2497  1.8710  0.7332
  111CHL1  H22B14458   2.494   0.413   5.759 -0.2814  0.3228 -2.2484
  111CHL1   C2314459   2.619   0.267   5.644 -0.5682  0.3936 -0.3607
  111CHL1  H23A14460   2.540   0.189   5.636  0.7426 -1.1224  0.9082
  111CHL1  H23B14461   2.614   0.332   5.554 -0.6492  1.1125  0.1481
  111CHL1   C2414462   2.763   0.202   5.643 -0.2028  0.7033  0.1912
  111CHL1  H24A14463   2.830   0.289   5.628  2.1179 -0.7588  1.4121
  111CHL1  H24B14464   2.786   0.143   5.735 -1.6134 -2.2541 -1.2025
  111CHL1   C2514465   2.794   0.111   5.517  0.5584 -0.1456 -0.3845
  111CHL1   H2514466   2.752   0.155   5.424  1.8569 -0.5535 -1.1882
  111CHL1   C2614467   2.948   0.088   5.516  0.5427  0.1304 -0.4820
  111CHL1  H26A14468   3.010   0.179   5.508  1.0182 -0.1812 -0.4121
  111CHL1  H26B14469   2.980   0.031   5.606  0.6450 -1.6799 -1.6064
  111CHL1  H26C14470   2.969   0.017   5.432 -0.5413 -1.3954  0.4728
  111CHL1   C2714471   2.723  -0.025   5.530 -0.0855  0.7437  0.1360
  111CHL1  H27A14472   2.617  -0.027   5.495  0.3216  2.5708 -1.3806
  111CHL1  H27B14473   2.777  -0.095   5.463  0.4084 -0.5817  1.8433
  111CHL1  H27C14474   2.732  -0.061   5.634 -0.6486  1.9748  0.6310
  112CHL1    C314475   4.627   1.375   6.374  0.8158  0.4964  0.4712
  112CHL1    H314476   4.704   1.437   6.324 -1.0513  1.5014 -1.2960
  112CHL1    O314477   4.640   1.408   6.509  0.3372  0.0495  0.4704
  112CHL1   H3'14478   4.586   1.348   6.561  0.1109 -0.6673 -0.5559
  112CHL1    C414479   4.490   1.403   6.323  0.0916  0.5899 -0.1053
  112CHL1   H4A14480   4.421   1.347   6.390  1.2321  0.8662  1.3598
  112CHL1   H4B14481   4.478   1.511   6.347  1.2579  0.5930  0.5701
  112CHL1    C514482   4.487   1.377   6.171 -0.4325  0.5915 -0.2720
  112CHL1    C614483   4.447   1.476   6.082 -0.2937  0.9705 -0.3934
  112CHL1    H614484   4.413   1.575   6.115 -0.9326  0.7158 -0.2659
  112CHL1    C714485   4.435   1.443   5.933 -0.7092  0.7333 -0.2939
  112CHL1   H7A14486   4.333   1.469   5.897 -0.4807  1.1944 -0.6183
  112CHL1   H7B14487   4.504   1.502   5.868  1.1040 -0.2595  0.6703
  112CHL1    C814488   4.447   1.291   5.897 -0.3936 -0.1319 -0.0876
  112CHL1    H814489   4.355   1.236   5.927 -1.3344  2.2117  1.6283
  112CHL1   C1414490   4.465   1.274   5.745  0.0472 -0.2320  0.6332
  112CHL1   H1414491   4.551   1.340   5.719 -2.4300  2.7057 -0.8054
  112CHL1   C1514492   4.349   1.322   5.653 -0.0982  0.4731 -0.2095
  112CHL1  H15A14493   4.248   1.280   5.670  0.3383 -1.1134 -1.3070
  112CHL1  H15B14494   4.337   1.432   5.648  0.4798  0.9726  4.5130
  112CHL1   C1614495   4.396   1.268   5.516 -1.1622 -0.6400  0.7088
  112CHL1  H16A14496   4.306   1.245   5.455 -1.3442 -1.7340  1.3559
  112CHL1  H16B14497   4.451   1.350   5.466 -0.4917 -2.1566 -1.1762
  112CHL1   C1714498   4.499   1.155   5.549  0.4164 -0.0988 -0.4499
  112CHL1   H1714499   4.595   1.206   5.524  0.9252  0.2525  1.9539
  112CHL1   C1314500   4.501   1.135   5.700  0.3578  0.0443 -0.1495
  112CHL1   C1814501   4.390   1.038   5.739 -0.3211 -0.3160  0.3502
  112CHL1  H18A14502   4.407   0.936   5.697 -0.6716 -1.6853  3.2690
  112CHL1  H18B14503   4.370   1.026   5.848 -0.6043 -0.3523  0.2978
  112CHL1  H18C14504   4.292   1.071   5.698 -0.3480  0.2852  0.8887
  112CHL1   C1214505   4.640   1.091   5.764  0.2920 -0.7004 -0.7426
  112CHL1  H12A14506   4.669   0.993   5.719  0.8474 -0.7325 -0.3330
  112CHL1  H12B14507   4.710   1.168   5.725 -2.7855  3.3682  1.0685
  112CHL1   C1114508   4.626   1.091   5.920  0.2811 -0.2110  0.0277
  112CHL1  H11A14509   4.558   1.005   5.936  1.4182 -1.6923 -2.5672
  112CHL1  H11B14510   4.726   1.085   5.970 -1.3362  0.0220  3.6039
  112CHL1    C914511   4.560   1.229   5.977  0.0470 -0.3063 -0.2203
  112CHL1    H914512   4.645   1.300   5.970 -1.0322  1.4990  2.9653
  112CHL1   C1014513   4.524   1.231   6.130 -0.1077  0.4488  0.4950
  112CHL1   C1914514   4.410   1.127   6.158 -0.3661  0.3132 -0.4931
  112CHL1  H19A14515   4.317   1.154   6.104 -1.0049 -1.2520 -0.2214
  112CHL1  H19B14516   4.443   1.023   6.132 -1.3802  0.1682 -1.2656
  112CHL1  H19C14517   4.396   1.118   6.268  2.7290 -2.0919 -0.1331
  112CHL1    C114518   4.657   1.190   6.206  0.5431  0.5896  0.3902
  112CHL1   H1A14519   4.693   1.089   6.177  1.4789  1.5252 -1.8771
  112CHL1   H1B14520   4.737   1.250   6.158  0.5648 -0.1573 -0.5304
  112CHL1    C214521   4.664   1.224   6.357 -0.4474 -0.0587  0.1528
  112CHL1   H2A14522   4.769   1.205   6.389  0.4010  0.6807 -2.0371
  112CHL1   H2B14523   4.582   1.167   6.407  0.3939 -3.1516 -1.7248
  112CHL1   C2014524   4.501   1.033   5.457 -0.2972 -0.2325 -0.2191
  112CHL1   H2014525   4.555   0.950   5.508  0.9067 -0.3278 -1.5812
  112CHL1   C2114526   4.584   1.066   5.331 -0.5957 -0.4882 -0.1056
  112CHL1  H21A14527   4.598   0.980   5.261  1.3228  0.9563 -1.6303
  112CHL1  H21B14528   4.688   1.099   5.352 -1.1695  1.1717  0.2751
  112CHL1  H21C14529   4.540   1.153   5.277 -0.6085  0.8523  1.9633
  112CHL1   C2214530   4.363   0.975   5.415  0.4463 -0.3108  0.4526
  112CHL1  H22A14531   4.292   0.983   5.500 -1.0380  0.9672 -0.8226
  112CHL1  H22B14532   4.332   1.043   5.332 -1.1637  1.8059  2.6529
  112CHL1   C2314533   4.377   0.836   5.359  0.5420 -0.0894 -0.3684
  112CHL1  H23A14534   4.444   0.829   5.271  1.0056 -0.3299 -0.0013
  112CHL1  H23B14535   4.414   0.764   5.435 -0.5520  0.7122  0.9660
  112CHL1   C2414536   4.244   0.773   5.303 -0.3824 -0.0318  0.1647
  112CHL1  H24A14537   4.154   0.804   5.359  0.0701 -0.4723  1.1682
  112CHL1  H24B14538   4.226   0.815   5.202  0.2185 -2.5324 -1.0683
  112CHL1   C2514539   4.241   0.625   5.291 -0.0322  0.7255  0.2843
  112CHL1   H2514540   4.143   0.590   5.254  1.4802  0.1786 -3.7515
  112CHL1   C2614541   4.342   0.577   5.188 -0.1456  0.9602  0.3262
  112CHL1  H26A14542   4.328   0.651   5.106 -0.4908  0.6909  0.1378
  112CHL1  H26B14543   4.450   0.587   5.210  0.3821 -2.7733  0.1514
  112CHL1  H26C14544   4.321   0.473   5.155  0.3717  0.8377  0.3776
  112CHL1   C2714545   4.258   0.568   5.437  0.0844  0.6184 -0.2950
  112CHL1  H27A14546   4.212   0.467   5.444  1.7854 -0.3179 -1.7937
  112CHL1  H27B14547   4.367   0.555   5.454  0.7074  3.5975 -1.4212
  112CHL1  H27C14548   4.203   0.628   5.512 -1.8431 -2.0013  0.5666
  113CHL1    C314549   0.896   5.123   6.134  0.4974  0.0665  0.2942
  113CHL1    H314550   0.903   5.232   6.114  1.0487  0.1104  0.7058
  113CHL1    O314551   0.826   5.107   6.260 -0.3268 -0.1108  0.0959
  113CHL1   H3'14552   0.878   5.160   6.319  0.0183 -1.5628  1.1456
  113CHL1    C414553   0.822   5.047   6.017 -0.3582 -0.5646 -0.3144
  113CHL1   H4A14554   0.819   4.948   6.068 -3.6706  0.2060  1.2324
  113CHL1   H4B14555   0.723   5.094   6.006  0.2431  0.5286 -1.1727
  113CHL1    C514556   0.892   5.040   5.882 -0.7378 -0.5789 -0.7613
  113CHL1    C614557   0.828   5.072   5.770  0.5217 -0.8568  0.5758
  113CHL1    H614558   0.728   5.117   5.775  0.2239 -1.0376 -2.4673
  113CHL1    C714559   0.896   5.057   5.636 -0.2656  0.4606  0.1366
  113CHL1   H7A14560   0.830   5.010   5.560  0.3729 -0.2362  0.0087
  113CHL1   H7B14561   0.920   5.163   5.612  0.6247  0.1853 -0.1987
  113CHL1    C814562   1.032   4.982   5.630  0.2808  0.0220  0.2272
  113CHL1    H814563   1.002   4.875   5.631 -0.4055  0.1160 -2.6162
  113CHL1   C1414564   1.109   5.005   5.501 -0.2213 -0.2315 -0.8293
  113CHL1   H1414565   1.120   5.116   5.500 -0.1558 -0.1935 -3.6498
  113CHL1   C1514566   1.048   4.984   5.369  0.3782  0.1680 -0.8722
  113CHL1  H15A14567   1.013   4.878   5.364 -2.8443  1.0773  0.1322
  113CHL1  H15B14568   0.968   5.053   5.337  1.6306  0.7930 -2.8413
  113CHL1   C1614569   1.161   4.998   5.269 -0.2897 -0.4172 -0.4562
  113CHL1  H16A14570   1.161   4.914   5.196 -0.3182 -1.0107  0.2180
  113CHL1  H16B14571   1.162   5.101   5.228  1.6714 -0.5538 -0.8333
  113CHL1   C1714572   1.299   4.993   5.349  0.4154 -0.3591  0.1588
  113CHL1   H1714573   1.332   5.099   5.360 -1.1667  0.5790 -2.8946
  113CHL1   C1314574   1.252   4.945   5.491 -0.7281  0.7625  0.5487
  113CHL1   C1814575   1.245   4.785   5.496  0.5315 -0.7189  0.4160
  113CHL1  H18A14576   1.165   4.751   5.565 -0.8912 -1.7685 -1.6592
  113CHL1  H18B14577   1.211   4.752   5.396 -0.7971 -2.1064  1.2721
  113CHL1  H18C14578   1.343   4.741   5.525  0.5033 -1.6548 -0.8766
  113CHL1   C1214579   1.332   4.990   5.608  0.2749 -0.1363  0.6247
  113CHL1  H12A14580   1.429   4.938   5.623 -0.0402 -0.5271  1.3426
  113CHL1  H12B14581   1.356   5.097   5.594  2.3954 -0.7256 -0.6817
  113CHL1   C1114582   1.262   4.970   5.745 -0.3042  0.1957  1.0014
  113CHL1  H11A14583   1.272   4.860   5.759  1.9646  0.1362 -0.4576
  113CHL1  H11B14584   1.323   5.025   5.820 -0.0025  0.4995  0.5456
  113CHL1    C914585   1.113   5.025   5.751 -0.0410  0.6123  0.3827
  113CHL1    H914586   1.127   5.134   5.735  0.2752  0.3788 -1.0494
  113CHL1   C1014587   1.037   4.991   5.884 -0.1091 -0.6090 -0.3444
  113CHL1   C1914588   1.044   4.839   5.910 -0.2860 -0.2403 -0.4389
  113CHL1  H19A14589   0.953   4.816   5.971  0.0690  1.2270  0.7100
  113CHL1  H19B14590   1.041   4.790   5.811  0.9271  0.0108 -0.6131
  113CHL1  H19C14591   1.136   4.801   5.959  0.1369 -1.4467 -2.0796
  113CHL1    C114592   1.113   5.067   6.004  0.4517 -0.5203  0.1757
  113CHL1   H1A14593   1.202   5.002   6.017 -0.7922 -1.8438  2.7141
  113CHL1   H1B14594   1.144   5.168   5.967  0.5147 -0.3550  0.6724
  113CHL1    C214595   1.041   5.072   6.144 -0.0856 -0.0422  0.7454
  113CHL1   H2A14596   1.090   5.143   6.214 -0.1127 -1.6864  2.5144
  113CHL1   H2B14597   1.035   4.967   6.182  0.4769 -0.5357 -0.4802
  113CHL1   C2014598   1.423   4.926   5.283  0.6395 -0.9304 -0.0291
  113CHL1   H2014599   1.378   4.827   5.259 -4.0488  0.8474  0.3928
  113CHL1   C2114600   1.540   4.898   5.376 -0.3397  0.2061  0.0410
  113CHL1  H21A14601   1.584   4.992   5.415  0.6937  0.8459 -2.4509
  113CHL1  H21B14602   1.618   4.844   5.318  0.1345  0.4990  0.4037
  113CHL1  H21C14603   1.515   4.825   5.455  3.3636 -1.0300  0.2491
  113CHL1   C2214604   1.467   4.986   5.144 -0.2770 -0.5749 -0.2636
  113CHL1  H22A14605   1.545   4.917   5.106  1.7318  1.4506 -0.0586
  113CHL1  H22B14606   1.373   4.990   5.085 -1.0449 -0.2401  0.9419
  113CHL1   C2314607   1.524   5.127   5.140 -0.1796  0.0858 -0.3291
  113CHL1  H23A14608   1.442   5.189   5.183  0.4609 -0.1032  1.2348
  113CHL1  H23B14609   1.606   5.140   5.214 -2.0244  1.6705  1.5717
  113CHL1   C2414610   1.561   5.168   5.001  0.2838 -0.0193 -0.1390
  113CHL1  H24A14611   1.492   5.114   4.933  2.5958 -0.1086 -2.5869
  113CHL1  H24B14612   1.537   5.276   4.989 -0.6002 -0.3171 -1.3450
  113CHL1   C2514613   1.706   5.149   4.954 -0.5053  0.4689 -0.7564
  113CHL1   H2514614   1.748   5.048   4.973  0.3767  0.7481 -1.1554
  113CHL1   C2614615   1.707   5.161   4.806  0.8788 -0.5563 -0.3569
  113CHL1  H26A14616   1.809   5.147   4.764  1.1583 -0.4345  0.2641
  113CHL1  H26B14617   1.635   5.092   4.757  1.9076 -0.5058 -2.0069
  113CHL1  H26C14618   1.672   5.260   4.772  0.0632 -0.8295 -0.3276
  113CHL1   C2714619   1.801   5.247   5.028 -0.0449  0.2022  1.4258
  113CHL1  H27A14620   1.905   5.241   4.989 -0.6826 -3.1796 -0.1457
  113CHL1  H27B14621   1.773   5.353   5.014  1.2953  0.4965  0.7767
  113CHL1  H27C14622   1.808   5.229   5.137 -1.1483 -1.3578  1.2877
  114CHL1    C314623   5.891   0.744   6.473 -0.0774  0.0657  0.3578
  114CHL1    H314624   5.807   0.812   6.448  0.5417  0.9617  0.6765
  114CHL1    O314625   5.926   0.760   6.607  0.3070 -0.1404 -0.5925
  114CHL1   H3'14626   5.949   0.853   6.615  0.7925 -0.3203  0.2682
  114CHL1    C414627   5.875   0.597   6.447  1.2697 -0.9455  0.1001
  114CHL1   H4A14628   5.960   0.537   6.487  1.7956 -0.3865 -0.1585
  114CHL1   H4B14629   5.786   0.575   6.509 -1.0476  2.3031 -1.7651
  114CHL1    C514630   5.849   0.569   6.304  0.0312  0.2562  0.2984
  114CHL1    C614631   5.737   0.499   6.275  0.1691 -0.4277  0.6514
  114CHL1    H614632   5.663   0.467   6.349 -2.3826  3.3155 -0.0254
  114CHL1    C714633   5.696   0.473   6.132  0.3983 -0.0222 -0.5546
  114CHL1   H7A14634   5.671   0.365   6.127  0.1326  0.0097 -0.0198
  114CHL1   H7B14635   5.600   0.527   6.113  0.5600  0.2925 -0.4766
  114CHL1    C814636   5.803   0.503   6.020  0.1365 -0.4503  0.2556
  114CHL1    H814637   5.871   0.416   6.012  0.4465 -0.0534 -1.9207
  114CHL1   C1414638   5.740   0.505   5.883  0.4549  0.2085 -0.4813
  114CHL1   H1414639   5.674   0.594   5.875  0.8954  0.6799  0.9159
  114CHL1   C1514640   5.663   0.374   5.841  0.2480 -0.2717  0.4024
  114CHL1  H15A14641   5.713   0.283   5.881  0.6135  0.6798  2.2490
  114CHL1  H15B14642   5.561   0.385   5.884  0.3964  0.1172  0.6662
  114CHL1   C1614643   5.659   0.388   5.689  0.6073  0.0852  0.2127
  114CHL1  H16A14644   5.689   0.292   5.640  1.4180 -0.3760  1.5631
  114CHL1  H16B14645   5.560   0.422   5.652  0.0105  0.1951  1.8564
  114CHL1   C1714646   5.766   0.496   5.646  0.1840 -0.1721 -0.1494
  114CHL1   H1714647   5.717   0.593   5.621 -0.7221 -0.7510 -0.6891
  114CHL1   C1314648   5.845   0.525   5.774  0.2723 -0.8157  0.3355
  114CHL1   C1814649   5.957   0.423   5.774  0.7188  0.2443  0.2386
  114CHL1  H18A14650   6.015   0.423   5.869  1.5988  3.2621 -0.1920
  114CHL1  H18B14651   5.922   0.322   5.744 -0.7480  0.4109  1.2823
  114CHL1  H18C14652   6.032   0.460   5.702  0.7240  1.9751  1.1018
  114CHL1   C1214653   5.910   0.676   5.791 -0.2029 -0.9681 -0.3851
  114CHL1  H12A14654   5.974   0.711   5.707  0.2815 -1.4859 -0.2408
  114CHL1  H12B14655   5.820   0.740   5.799 -0.0558 -0.9798  2.3046
  114CHL1   C1114656   5.974   0.684   5.937  0.5513 -0.5516  0.0161
  114CHL1  H11A14657   6.076   0.640   5.932  0.4426 -1.6276  3.8629
  114CHL1  H11B14658   6.004   0.788   5.962  2.5692 -1.0560 -0.1068
  114CHL1    C914659   5.881   0.631   6.052 -0.3884 -0.2108 -0.7053
  114CHL1    H914660   5.798   0.705   6.058 -3.4594 -3.3542 -0.7525
  114CHL1   C1014661   5.946   0.629   6.196  0.1949 -0.7501  0.3131
  114CHL1   C1914662   6.081   0.544   6.191  0.1510 -0.7082  0.2145
  114CHL1  H19A14663   6.061   0.439   6.162 -0.0299 -0.3224 -1.1268
  114CHL1  H19B14664   6.159   0.589   6.125 -1.4502  2.9779  0.6052
  114CHL1  H19C14665   6.132   0.546   6.289  0.6472  0.0547 -0.0471
  114CHL1    C114666   5.985   0.775   6.237  0.4871  0.2508  0.8199
  114CHL1   H1A14667   6.070   0.808   6.174  1.7375  1.8613  3.1832
  114CHL1   H1B14668   5.901   0.834   6.194  1.0003  0.3216 -0.1202
  114CHL1    C214669   6.000   0.804   6.390  0.9338  0.0678  0.0214
  114CHL1   H2A14670   6.020   0.910   6.418  1.2256  0.1689 -0.5457
  114CHL1   H2B14671   6.092   0.754   6.427  0.2739 -0.7500  0.5955
  114CHL1   C2014672   5.831   0.468   5.509 -0.2406  0.4351  0.5075
  114CHL1   H2014673   5.906   0.386   5.513 -0.9770 -0.3230 -0.7199
  114CHL1   C2114674   5.907   0.591   5.450 -0.0798 -0.1715  0.1266
  114CHL1  H21A14675   5.834   0.671   5.424  0.8037  0.1664 -1.4036
  114CHL1  H21B14676   5.954   0.562   5.354 -2.1905  1.1646 -1.3838
  114CHL1  H21C14677   5.992   0.626   5.514 -0.3775  2.7658 -0.9238
  114CHL1   C2214678   5.719   0.434   5.401  0.2961  0.5685  0.0864
  114CHL1  H22A14679   5.664   0.344   5.435  0.8380 -0.1022 -0.7664
  114CHL1  H22B14680   5.648   0.518   5.389  1.3594  1.4774 -0.0033
  114CHL1   C2314681   5.771   0.387   5.262  0.2475 -0.4163  0.2244
  114CHL1  H23A14682   5.824   0.465   5.203 -0.7353  0.0635 -0.0503
  114CHL1  H23B14683   5.847   0.307   5.270  0.2361 -0.5997 -1.1944
  114CHL1   C2414684   5.661   0.313   5.177 -0.4013  0.8277 -0.0161
  114CHL1  H24A14685   5.615   0.227   5.229 -0.2079  0.9784  0.4046
  114CHL1  H24B14686   5.585   0.395   5.173 -0.1939  0.9776 -2.1583
  114CHL1   C2514687   5.698   0.267   5.038 -0.6417  0.3782 -0.5384
  114CHL1   H2514688   5.744   0.355   4.986 -1.1076  1.2858  0.5337
  114CHL1   C2614689   5.814   0.161   5.047 -0.1410  0.3449 -0.1464
  114CHL1  H26A14690   5.909   0.201   5.090  0.9074 -1.4214 -0.7159
  114CHL1  H26B14691   5.773   0.086   5.117 -2.9382  1.7745 -0.1225
  114CHL1  H26C14692   5.840   0.123   4.946 -1.9787 -0.6519 -0.2681
  114CHL1   C2714693   5.583   0.209   4.961 -0.1192  0.3409 -0.6074
  114CHL1  H27A14694   5.624   0.163   4.868  1.5977 -0.8312  0.6746
  114CHL1  H27B14695   5.539   0.119   5.009 -1.0439 -0.2480 -2.4262
  114CHL1  H27C14696   5.508   0.286   4.932 -0.2876 -0.3426 -2.1045
  115CHL1    C314697   1.478   7.373   6.474 -0.3344  0.0781  0.1212
  115CHL1    H314698   1.471   7.263   6.491  0.9335 -0.5467 -2.7562
  115CHL1    O314699   1.490   7.445   6.598 -0.3132  0.1748 -0.2880
  115CHL1   H3'14700   1.403   7.445   6.639 -0.0348  0.6217  0.3339
  115CHL1    C414701   1.615   7.395   6.413  0.5120 -0.6211  0.3336
  115CHL1   H4A14702   1.635   7.504   6.406 -1.6392 -0.2408 -0.6802
  115CHL1   H4B14703   1.688   7.349   6.484  1.2258 -0.0217  0.0044
  115CHL1    C514704   1.620   7.329   6.275  0.0339 -0.5772 -0.1367
  115CHL1    C614705   1.718   7.241   6.241  0.8560 -0.1466 -0.4285
  115CHL1    H614706   1.795   7.229   6.319 -1.2998 -2.3235  1.5805
  115CHL1    C714707   1.736   7.181   6.105  0.2551  0.1579  0.6863
  115CHL1   H7A14708   1.838   7.207   6.068  0.4600 -0.5218  0.7509
  115CHL1   H7B14709   1.732   7.070   6.102 -0.6803  0.2034 -1.1664
  115CHL1    C814710   1.630   7.228   6.002  0.2014  0.3978 -0.1031
  115CHL1    H814711   1.666   7.324   5.958 -0.2647 -0.3010 -2.0761
  115CHL1   C1414712   1.620   7.143   5.875  0.3889  0.0724  0.5354
  115CHL1   H1414713   1.583   7.049   5.920 -0.3374 -1.1790 -2.4177
  115CHL1   C1514714   1.747   7.102   5.797  0.2431 -0.2032  0.4624
  115CHL1  H15A14715   1.798   7.197   5.770  0.6136 -0.5958 -0.2644
  115CHL1  H15B14716   1.818   7.038   5.853  0.2548 -0.5541  0.0503
  115CHL1   C1614717   1.682   7.034   5.676  0.1343  0.4169  0.5343
  115CHL1  H16A14718   1.742   7.048   5.583 -0.0890 -4.0163 -0.4965
  115CHL1  H16B14719   1.674   6.926   5.698 -3.9915  0.1664 -1.2881
  115CHL1   C1714720   1.533   7.073   5.666  0.2362  0.3559 -0.0356
  115CHL1   H1714721   1.487   6.989   5.723  1.3044  0.6172  1.2810
  115CHL1   C1314722   1.517   7.188   5.764 -0.4824  1.3056  0.2308
  115CHL1   C1814723   1.560   7.316   5.690  0.2921 -0.4351  0.4880
  115CHL1  H18A14724   1.469   7.362   5.645 -0.3086  0.4980  2.5355
  115CHL1  H18B14725   1.600   7.389   5.764 -0.7571  0.8976 -0.2163
  115CHL1  H18C14726   1.634   7.286   5.614 -0.6501 -1.3397 -0.0963
  115CHL1   C1214727   1.384   7.199   5.843 -0.2245 -0.7846 -0.2610
  115CHL1  H12A14728   1.307   7.243   5.775 -0.5431  0.3368  0.7946
  115CHL1  H12B14729   1.359   7.099   5.885  0.1711 -1.1260 -0.8240
  115CHL1   C1114730   1.407   7.303   5.958  0.6545  0.2814  0.3693
  115CHL1  H11A14731   1.432   7.399   5.908 -2.1083  0.0520 -1.7151
  115CHL1  H11B14732   1.307   7.323   6.002  1.5964  3.0366  1.4361
  115CHL1    C914733   1.495   7.258   6.069  0.6458  0.2360  0.3845
  115CHL1    H914734   1.456   7.164   6.113  0.3531 -0.0900 -0.5621
  115CHL1   C1014735   1.504   7.368   6.183 -0.6868  0.5332  0.0346
  115CHL1   C1914736   1.554   7.502   6.123  0.1457 -0.3263 -0.7563
  115CHL1  H19A14737   1.470   7.545   6.065 -1.0085 -3.3145 -1.4622
  115CHL1  H19B14738   1.584   7.577   6.200  1.1597  0.0534 -1.4966
  115CHL1  H19C14739   1.642   7.488   6.057  0.0274  1.6053 -1.3972
  115CHL1    C114740   1.366   7.377   6.255  0.0303  0.2969 -0.1282
  115CHL1   H1A14741   1.288   7.434   6.201 -0.9502 -0.2373  0.6822
  115CHL1   H1B14742   1.323   7.275   6.263 -2.1064  1.0274 -1.3857
  115CHL1    C214743   1.363   7.431   6.401  0.2207 -0.4750  0.7666
  115CHL1   H2A14744   1.271   7.410   6.460  0.8250  1.0983  2.3923
  115CHL1   H2B14745   1.372   7.542   6.397  1.0347 -0.5619 -0.4317
  115CHL1   C2014746   1.472   7.077   5.518 -0.2129 -0.6517 -0.1340
  115CHL1   H2014747   1.513   7.170   5.473  0.9953 -0.3958  1.4129
  115CHL1   C2114748   1.318   7.096   5.529  0.0077 -0.7871  0.1867
  115CHL1  H21A14749   1.268   7.092   5.429 -1.7532 -1.9468  1.0669
  115CHL1  H21B14750   1.300   7.199   5.565  0.3708 -1.3575  2.0985
  115CHL1  H21C14751   1.275   7.011   5.585  1.1980 -2.5411 -1.4284
  115CHL1   C2214752   1.519   6.955   5.431  0.3491  0.5029  0.8470
  115CHL1  H22A14753   1.625   6.968   5.402  0.1830  1.3395  0.5777
  115CHL1  H22B14754   1.508   6.861   5.489  0.7963  0.6469  1.1718
  115CHL1   C2314755   1.445   6.938   5.295  0.0355  0.2481 -0.2517
  115CHL1  H23A14756   1.338   6.913   5.315  0.1239  0.5192  0.5743
  115CHL1  H23B14757   1.455   7.034   5.239  0.5910 -0.5883 -1.6537
  115CHL1   C2414758   1.489   6.830   5.203 -0.3956 -0.9278 -0.4200
  115CHL1  H24A14759   1.420   6.820   5.116  0.1897 -0.6923 -0.9226
  115CHL1  H24B14760   1.590   6.866   5.176 -0.4371 -1.2032 -0.9674
  115CHL1   C2514761   1.502   6.688   5.258 -0.1491  0.0312  0.4336
  115CHL1   H2514762   1.592   6.686   5.322 -0.4233  0.8058  0.8643
  115CHL1   C2614763   1.383   6.650   5.346  0.4921 -0.4675  0.4711
  115CHL1  H26A14764   1.398   6.550   5.393  1.9971  0.5462  2.2551
  115CHL1  H26B14765   1.371   6.730   5.422  0.6459 -1.0037  1.0698
  115CHL1  H26C14766   1.287   6.647   5.290  0.3188  3.3359  0.3033
  115CHL1   C2714767   1.522   6.588   5.139 -0.5965  0.7285 -0.1033
  115CHL1  H27A14768   1.578   6.502   5.182  0.9800  1.6631 -0.2241
  115CHL1  H27B14769   1.422   6.560   5.099 -0.3856  0.6508 -0.5761
  115CHL1  H27C14770   1.590   6.629   5.061  3.3882 -1.6050  1.8156
  116CHL1    C314771   2.037   7.647   6.219  0.1328  0.2596  0.6231
  116CHL1    H314772   2.146   7.628   6.209  0.1921  0.7254  0.3758
  116CHL1    O314773   2.007   7.641   6.363  0.1735  0.4402  0.3662
  116CHL1   H3'14774   1.914   7.662   6.363 -0.0586 -0.3080 -2.1477
  116CHL1    C414775   2.010   7.785   6.167 -0.3843 -0.6852 -0.2552
  116CHL1   H4A14776   1.899   7.792   6.172 -0.3588 -0.2453 -0.2135
  116CHL1   H4B14777   2.062   7.854   6.237  1.6429 -3.2564  0.9510
  116CHL1    C514778   2.053   7.792   6.022 -0.8204 -0.1441 -0.0279
  116CHL1    C614779   2.151   7.875   5.995  0.1312 -0.0712  0.8579
  116CHL1    H614780   2.197   7.932   6.078  1.2069  1.0883 -0.4859
  116CHL1    C714781   2.227   7.880   5.863 -0.2447  0.8752 -0.1409
  116CHL1   H7A14782   2.240   7.984   5.824 -1.3754  0.6903 -1.0694
  116CHL1   H7B14783   2.327   7.832   5.870 -1.6419 -2.1215  0.4235
  116CHL1    C814784   2.135   7.815   5.751 -0.4246 -0.5406 -0.3130
  116CHL1    H814785   2.053   7.886   5.731 -0.6877 -0.1161  2.0098
  116CHL1   C1414786   2.211   7.799   5.623  0.0748  0.1650 -0.2546
  116CHL1   H1414787   2.305   7.748   5.653  0.4065  0.8730 -0.0796
  116CHL1   C1514788   2.260   7.935   5.564 -0.5753  0.3972 -0.7408
  116CHL1  H15A14789   2.180   8.009   5.543  0.0004  1.2419 -0.0330
  116CHL1  H15B14790   2.345   7.978   5.622 -1.8237  0.9874  0.7284
  116CHL1   C1614791   2.311   7.889   5.429  0.0361  0.2905  0.7604
  116CHL1  H16A14792   2.262   7.952   5.352  0.1126  1.6547  1.7780
  116CHL1  H16B14793   2.421   7.888   5.411 -0.2151  0.1102 -0.8714
  116CHL1   C1714794   2.264   7.740   5.409 -0.2041  0.1165  0.2456
  116CHL1   H1714795   2.352   7.687   5.452  0.7572 -0.1536 -1.9117
  116CHL1   C1314796   2.141   7.727   5.509 -0.1062  0.3717  0.0071
  116CHL1   C1814797   2.020   7.805   5.450  0.1345 -0.2021  0.0472
  116CHL1  H18A14798   1.964   7.854   5.532  0.2243  0.7967 -0.4764
  116CHL1  H18B14799   2.064   7.878   5.379 -0.0873 -1.0496 -1.0018
  116CHL1  H18C14800   1.946   7.742   5.395  0.0414  1.5699 -1.9982
  116CHL1   C1214801   2.103   7.581   5.553  0.2393 -0.0267  0.0916
  116CHL1  H12A14802   2.048   7.540   5.466 -0.4763  1.7178 -0.3141
  116CHL1  H12B14803   2.195   7.518   5.560  0.2017 -0.0169  0.7759
  116CHL1   C1114804   2.023   7.591   5.683  0.4764  0.2342 -0.3212
  116CHL1  H11A14805   1.927   7.642   5.659 -1.3764 -2.7114  0.2485
  116CHL1  H11B14806   1.985   7.493   5.720  0.0387  0.0923 -1.1110
  116CHL1    C914807   2.089   7.675   5.795  0.2620  0.2747  0.8059
  116CHL1    H914808   2.176   7.608   5.814  0.6800  0.0770 -1.4554
  116CHL1   C1014809   2.001   7.686   5.925  0.4027 -0.2904  0.1671
  116CHL1   C1914810   1.856   7.735   5.891 -0.3493 -0.0527  0.2973
  116CHL1  H19A14811   1.856   7.835   5.843 -2.1659 -1.1165 -2.1524
  116CHL1  H19B14812   1.811   7.680   5.806  0.1939  3.0845 -2.2281
  116CHL1  H19C14813   1.796   7.743   5.984  1.2240  0.2223  1.3212
  116CHL1    C114814   1.998   7.544   5.991 -0.5748 -0.4214 -0.1834
  116CHL1   H1A14815   1.930   7.472   5.941  2.2929 -1.9264 -2.1112
  116CHL1   H1B14816   2.097   7.494   5.989  0.7249  1.7985  2.1398
  116CHL1    C214817   1.957   7.543   6.137  0.5948  0.1997  0.8730
  116CHL1   H2A14818   1.977   7.443   6.183 -0.9793 -0.0071  1.1712
  116CHL1   H2B14819   1.847   7.556   6.142  0.2877 -1.9414  0.6595
  116CHL1   C2014820   2.251   7.684   5.264 -0.9017  0.0265  0.4598
  116CHL1   H2014821   2.146   7.696   5.232 -2.0880 -0.1548  3.8687
  116CHL1   C2114822   2.272   7.529   5.277 -1.1197 -0.3251  0.4328
  116CHL1  H21A14823   2.274   7.491   5.172 -2.3245 -0.6388  0.5008
  116CHL1  H21B14824   2.197   7.469   5.332  0.0519 -0.2628  2.1535
  116CHL1  H21C14825   2.373   7.508   5.316 -0.5746  3.0022  1.0775
  116CHL1   C2214826   2.349   7.745   5.164 -0.2629  0.5265  0.2606
  116CHL1  H22A14827   2.337   7.690   5.069 -2.1909  1.8277 -0.3102
  116CHL1  H22B14828   2.314   7.848   5.141 -0.4943  0.4022  0.0492
  116CHL1   C2314829   2.503   7.732   5.196 -0.0326 -0.1282 -0.9552
  116CHL1  H23A14830   2.530   7.787   5.288  0.9123 -0.6215 -0.9316
  116CHL1  H23B14831   2.517   7.626   5.224  2.1420  0.7654  1.7492
  116CHL1   C2414832   2.603   7.761   5.077  0.2080 -1.2287  0.2897
  116CHL1  H24A14833   2.599   7.681   5.000 -0.1772  0.5082 -1.5814
  116CHL1  H24B14834   2.576   7.859   5.032  2.4221  0.2175  1.9298
  116CHL1   C2514835   2.745   7.784   5.112  0.3389 -0.4066 -0.2007
  116CHL1   H2514836   2.756   7.858   5.194 -1.2809 -1.4179  0.9884
  116CHL1   C2614837   2.820   7.656   5.149 -0.1833 -0.0173  0.2394
  116CHL1  H26A14838   2.835   7.595   5.057 -2.2007 -1.3754  0.7424
  116CHL1  H26B14839   2.920   7.668   5.195  0.1480  0.8739 -0.6958
  116CHL1  H26C14840   2.758   7.588   5.212  0.2316 -2.5160 -1.8505
  116CHL1   C2714841   2.811   7.857   4.993 -0.4454  0.2296  0.1863
  116CHL1  H27A14842   2.907   7.909   5.014  0.3226 -0.6880 -0.9317
  116CHL1  H27B14843   2.837   7.775   4.923  0.8327  0.8261 -0.0630
  116CHL1  H27C14844   2.748   7.935   4.946  2.5412  1.3112 -2.3454
  117CHL1    C314845   5.729   1.165   6.439  0.8535 -0.3328  0.2587
  117CHL1    H314846   5.742   1.055   6.438 -0.1163 -0.4478 -0.5904
  117CHL1    O314847   5.679   1.216   6.564  0.1034 -0.1104  0.6552
  117CHL1   H3'14848   5.744   1.285   6.581  0.8415 -0.5958 -0.1009
  117CHL1    C414849   5.862   1.222   6.407 -0.5506  0.1613 -0.2175
  117CHL1   H4A14850   5.848   1.333   6.409 -1.3161  0.2146 -3.5385
  117CHL1   H4B14851   5.935   1.203   6.488  0.5975  0.4633 -1.1650
  117CHL1    C514852   5.923   1.205   6.270 -0.7315  0.7569  0.4983
  117CHL1    C614853   6.050   1.158   6.259 -0.1429 -0.2080  0.2433
  117CHL1    H614854   6.107   1.149   6.352 -0.8018  0.3708  0.7106
  117CHL1    C714855   6.112   1.146   6.117  0.2238  0.1984  0.4372
  117CHL1   H7A14856   6.202   1.211   6.119  0.8247 -0.5862 -0.5710
  117CHL1   H7B14857   6.130   1.038   6.098  0.5491 -0.3959  3.5184
  117CHL1    C814858   6.023   1.197   6.002  0.2831  0.9771  0.3595
  117CHL1    H814859   6.043   1.305   5.988  0.9099  0.7763 -0.3695
  117CHL1   C1414860   6.073   1.141   5.868  0.2259  0.4793 -0.2338
  117CHL1   H1414861   6.044   1.033   5.862 -1.6972  1.0452 -2.4554
  117CHL1   C1514862   6.222   1.145   5.833  0.2917 -0.0545  0.1587
  117CHL1  H15A14863   6.257   1.251   5.842  0.8537 -0.1383 -0.7856
  117CHL1  H15B14864   6.276   1.089   5.912 -0.3813 -0.2896  0.4556
  117CHL1   C1614865   6.230   1.101   5.687 -0.1402 -0.6338  1.4551
  117CHL1  H16A14866   6.297   1.174   5.635 -0.5839 -1.4969 -0.3941
  117CHL1  H16B14867   6.267   0.998   5.671  1.2989 -0.2061  1.8696
  117CHL1   C1714868   6.085   1.109   5.632 -0.1686 -0.0860 -0.0479
  117CHL1   H1714869   6.037   1.009   5.642 -1.2519  0.5261  1.0568
  117CHL1   C1314870   5.993   1.181   5.741 -0.4475 -0.1465 -0.3900
  117CHL1   C1814871   6.003   1.332   5.717 -0.7912 -0.0767 -0.7525
  117CHL1  H18A14872   6.105   1.376   5.717 -0.3206 -1.1325 -0.0754
  117CHL1  H18B14873   5.939   1.355   5.629 -1.9198  0.9450  0.2853
  117CHL1  H18C14874   5.953   1.379   5.804 -0.3254  0.4130 -0.7454
  117CHL1   C1214875   5.851   1.138   5.761  1.2447  0.4146 -0.1151
  117CHL1  H12A14876   5.786   1.175   5.680  0.2211 -2.4389 -0.7173
  117CHL1  H12B14877   5.834   1.028   5.755 -2.0778  0.7618  0.9490
  117CHL1   C1114878   5.785   1.174   5.898  0.2094 -0.2967 -0.2261
  117CHL1  H11A14879   5.761   1.281   5.885 -0.6991 -0.5470 -0.7048
  117CHL1  H11B14880   5.684   1.127   5.900  0.4551 -0.8818 -0.9768
  117CHL1    C914881   5.870   1.158   6.021 -0.0661 -0.9996 -0.5876
  117CHL1    H914882   5.868   1.049   6.046  0.5631 -0.4866  2.0556
  117CHL1   C1014883   5.820   1.222   6.154  0.0453  0.1848  0.5493
  117CHL1   C1914884   5.798   1.375   6.142 -0.5347  0.1643  0.7568
  117CHL1  H19A14885   5.879   1.434   6.094  0.2783  0.5532  2.5445
  117CHL1  H19B14886   5.717   1.384   6.066 -1.2629  1.8578  1.6760
  117CHL1  H19C14887   5.764   1.416   6.239  0.3559 -0.7736  1.4769
  117CHL1    C114888   5.681   1.161   6.187 -0.0823  0.2894 -0.1110
  117CHL1   H1A14889   5.613   1.183   6.102  0.3387  1.7556 -0.0877
  117CHL1   H1B14890   5.683   1.050   6.200 -0.7205  0.2709 -0.1674
  117CHL1    C214891   5.627   1.194   6.328  0.8129 -0.3447  0.1663
  117CHL1   H2A14892   5.537   1.130   6.343 -0.3014  1.8868  4.5104
  117CHL1   H2B14893   5.600   1.301   6.338 -0.0628 -0.2753 -2.2702
  117CHL1   C2014894   6.077   1.142   5.489  0.0326  0.4729 -0.0370
  117CHL1   H2014895   6.093   1.251   5.474 -0.2644  0.4670 -0.3959
  117CHL1   C2114896   5.927   1.123   5.434  0.3666 -0.1052  0.0401
  117CHL1  H21A14897   5.871   1.204   5.486 -0.4984 -0.3100 -0.5723
  117CHL1  H21B14898   5.882   1.023   5.454 -2.9407  0.7738 -2.2975
  117CHL1  H21C14899   5.926   1.125   5.323 -0.4775  0.2866  0.0505
  117CHL1   C2214900   6.181   1.073   5.399  0.1950  0.5804 -0.1965
  117CHL1  H22A14901   6.194   1.127   5.302 -0.9930  1.8376  0.3019
  117CHL1  H22B14902   6.280   1.102   5.440  0.5661  1.3871 -1.5951
  117CHL1   C2314903   6.164   0.920   5.387 -0.2320 -0.0826  0.0377
  117CHL1  H23A14904   6.169   0.877   5.489 -0.8546 -0.1511  0.0429
  117CHL1  H23B14905   6.059   0.906   5.353 -0.6317 -0.4818  1.3599
  117CHL1   C2414906   6.265   0.858   5.296 -0.1565  0.2266 -0.8772
  117CHL1  H24A14907   6.366   0.900   5.319 -0.5685  1.0411 -0.5093
  117CHL1  H24B14908   6.271   0.748   5.312 -2.9807 -0.0991 -1.5100
  117CHL1   C2514909   6.236   0.892   5.148  0.5243  0.5986  0.3681
  117CHL1   H2514910   6.210   1.001   5.151  0.7034  0.6427  0.3186
  117CHL1   C2614911   6.351   0.866   5.054 -0.1976 -0.5473 -0.5540
  117CHL1  H26A14912   6.335   0.879   4.945 -2.2033 -0.4707 -0.3032
  117CHL1  H26B14913   6.429   0.937   5.088 -1.5582 -0.3814  2.5890
  117CHL1  H26C14914   6.386   0.762   5.072 -0.8984 -0.7302 -0.1583
  117CHL1   C2714915   6.119   0.810   5.099 -0.6910  0.0230 -0.0542
  117CHL1  H27A14916   6.103   0.814   4.989 -1.5420 -0.1562  0.0513
  117CHL1  H27B14917   6.115   0.709   5.145  0.1995 -0.6935 -1.4807
  117CHL1  H27C14918   6.026   0.859   5.134 -1.3763  0.4301 -2.2599
  118CHL1    C314919   0.178   0.625   6.192 -0.4581  0.3637  0.1262
  118CHL1    H314920   0.081   0.600   6.143  0.2129 -1.7225 -0.2658
  118CHL1    O314921   0.166   0.551   6.313  0.0830 -0.7025  0.0262
  118CHL1   H3'14922   0.097   0.591   6.366  0.6153  0.2096  0.0464
  118CHL1    C414923   0.293   0.573   6.099  0.6757  0.2104 -0.8891
  118CHL1   H4A14924   0.393   0.590   6.144  0.5892  0.2891 -0.7277
  118CHL1   H4B14925   0.282   0.465   6.077  1.2747 -0.4957  1.9772
  118CHL1    C514926   0.294   0.648   5.973 -0.3582 -0.3266 -0.2708
  118CHL1    C614927   0.297   0.586   5.854  0.0614  0.3183 -0.4650
  118CHL1    H614928   0.280   0.478   5.855  1.0335  0.1587 -0.3320
  118CHL1    C714929   0.311   0.647   5.718 -0.5264  0.1685 -0.0532
  118CHL1   H7A14930   0.387   0.589   5.662  1.5222  1.8230  0.8905
  118CHL1   H7B14931   0.216   0.626   5.664 -0.3580 -0.6481 -0.0421
  118CHL1    C814932   0.342   0.806   5.729 -0.3872  1.0289  0.0407
  118CHL1    H814933   0.453   0.817   5.732  0.1440 -2.8131 -0.7569
  118CHL1   C1414934   0.293   0.881   5.604 -0.6223 -0.2387  0.5701
  118CHL1   H1414935   0.182   0.880   5.614 -0.5643 -2.4392  1.5505
  118CHL1   C1514936   0.344   0.834   5.471 -0.4411 -0.1857  0.2266
  118CHL1  H15A14937   0.453   0.821   5.488 -0.3651  0.9563  0.6750
  118CHL1  H15B14938   0.305   0.733   5.445  0.9221 -1.2738  2.1310
  118CHL1   C1614939   0.317   0.940   5.368  0.6408 -0.0446 -0.2304
  118CHL1  H16A14940   0.417   0.955   5.321  1.8961 -1.5454  1.7761
  118CHL1  H16B14941   0.232   0.907   5.305 -0.8279  2.3483  0.3823
  118CHL1   C1714942   0.285   1.075   5.452  0.0510  1.1020 -0.2263
  118CHL1   H1714943   0.175   1.086   5.463  0.0452  0.9020 -0.0923
  118CHL1   C1314944   0.329   1.036   5.604  0.3626 -0.3519  0.5900
  118CHL1   C1814945   0.482   1.065   5.607 -0.2236 -0.3887  0.3541
  118CHL1  H18A14946   0.521   1.011   5.696 -2.2691 -2.1465  0.2536
  118CHL1  H18B14947   0.529   1.019   5.518 -0.8544  2.3667 -1.5464
  118CHL1  H18C14948   0.505   1.174   5.616  1.8028 -0.8228  1.0127
  118CHL1   C1214949   0.250   1.105   5.719 -0.4046 -0.0113 -0.5477
  118CHL1  H12A14950   0.267   1.213   5.733  1.4434 -0.4699  1.3013
  118CHL1  H12B14951   0.143   1.081   5.697 -1.2868  1.0915  2.1174
  118CHL1   C1114952   0.289   1.034   5.855 -0.0311 -0.0152 -0.4916
  118CHL1  H11A14953   0.393   1.055   5.886 -0.1489 -1.4458  0.9889
  118CHL1  H11B14954   0.227   1.076   5.937 -0.3335 -0.3483 -0.5451
  118CHL1    C914955   0.273   0.873   5.845  0.2049  0.4246 -0.9888
  118CHL1    H914956   0.165   0.860   5.821  0.2176  2.3219 -2.3570
  118CHL1   C1014957   0.296   0.798   5.983  0.2503 -0.1587  0.9415
  118CHL1   C1914958   0.440   0.835   6.027  0.4517 -0.5980  0.0939
  118CHL1  H19A14959   0.510   0.817   5.943 -0.0397  2.5386 -1.1058
  118CHL1  H19B14960   0.448   0.945   6.034  1.2016 -0.5048 -1.6997
  118CHL1  H19C14961   0.481   0.784   6.117  2.3148 -0.0374 -0.4034
  118CHL1    C114962   0.186   0.848   6.081  0.4024 -0.0853 -0.1167
  118CHL1   H1A14963   0.200   0.954   6.110 -2.3959 -0.0794  1.6008
  118CHL1   H1B14964   0.089   0.827   6.031  0.8142  1.6576 -1.7763
  118CHL1    C214965   0.185   0.773   6.220 -0.1367  0.2805  0.0834
  118CHL1   H2A14966   0.094   0.814   6.270 -0.4227  0.0092 -0.2116
  118CHL1   H2B14967   0.277   0.794   6.278  0.3674 -0.1990 -0.5370
  118CHL1   C2014968   0.342   1.198   5.385  0.4221  0.6115  0.1430
  118CHL1   H2014969   0.453   1.197   5.387  0.4337 -0.9493 -0.1746
  118CHL1   C2114970   0.322   1.320   5.476 -0.5304  0.4439  0.8337
  118CHL1  H21A14971   0.372   1.315   5.575 -1.1355  4.3781  1.5173
  118CHL1  H21B14972   0.214   1.318   5.502 -0.0938 -0.0711  2.7874
  118CHL1  H21C14973   0.354   1.413   5.424  0.6307 -0.2291  0.2979
  118CHL1   C2214974   0.300   1.229   5.239 -0.2767 -0.1355  0.4254
  118CHL1  H22A14975   0.284   1.136   5.181 -0.3180  0.0261  0.1745
  118CHL1  H22B14976   0.209   1.293   5.247  1.1392  1.7768  2.5403
  118CHL1   C2314977   0.415   1.293   5.169  0.3577  0.9703  0.1305
  118CHL1  H23A14978   0.461   1.374   5.230  3.0941  0.5578 -1.2056
  118CHL1  H23B14979   0.498   1.222   5.147  0.2117  0.5691  0.8261
  118CHL1   C2414980   0.363   1.357   5.035  0.9773  0.0251 -0.2697
  118CHL1  H24A14981   0.330   1.275   4.969 -0.6762  1.9249 -1.9349
  118CHL1  H24B14982   0.271   1.418   5.042 -0.0629 -1.4001 -0.9756
  118CHL1   C2514983   0.463   1.454   4.973 -0.5314  0.5272 -0.1388
  118CHL1   H2514984   0.558   1.398   4.960  0.1284  1.3095  1.1146
  118CHL1   C2614985   0.410   1.489   4.828 -0.0417 -0.2366 -0.5150
  118CHL1  H26A14986   0.306   1.524   4.847  1.1223  2.3038  1.9852
  118CHL1  H26B14987   0.473   1.573   4.795 -3.5166  2.8806  0.0765
  118CHL1  H26C14988   0.412   1.399   4.763 -1.7158 -0.2381 -0.6274
  118CHL1   C2714989   0.482   1.576   5.066  0.0677 -0.1268 -0.7425
  118CHL1  H27A14990   0.530   1.658   5.008 -0.8105 -0.2756 -1.7165
  118CHL1  H27B14991   0.380   1.607   5.098 -0.2440 -2.7780  1.1086
  118CHL1  H27C14992   0.551   1.553   5.150 -0.1938  1.6823  0.0318
  119CHL1    C314993   0.730   7.500   6.559  0.5424 -0.1712 -0.2623
  119CHL1    H314994   0.620   7.500   6.545  0.4722  0.2865  0.2425
  119CHL1    O314995   0.757   7.497   6.696 -0.8380 -0.9617 -0.2122
  119CHL1   H3'14996   0.690   7.437   6.729 -0.2393 -1.1278  0.7620
  119CHL1    C414997   0.791   7.379   6.486 -0.0334 -0.0990 -0.4365
  119CHL1   H4A14998   0.886   7.354   6.536 -0.1540 -0.9192 -0.6063
  119CHL1   H4B14999   0.716   7.301   6.512 -0.4942  1.1718  2.5050
  119CHL1    C515000   0.809   7.381   6.340  1.0995  0.0331  0.3191
  119CHL1    C615001   0.770   7.282   6.263  0.1647  0.4936 -0.1992
  119CHL1    H615002   0.723   7.199   6.319  1.6398  0.0826  0.5000
  119CHL1    C715003   0.779   7.284   6.111 -0.1749  0.1883 -0.3277
  119CHL1   H7A15004   0.820   7.187   6.075  3.3131  0.9717  1.1509
  119CHL1   H7B15005   0.673   7.303   6.080 -0.8069 -2.1334  0.2075
  119CHL1    C815006   0.864   7.396   6.063  0.0579 -0.1406  0.2005
  119CHL1    H815007   0.972   7.377   6.085  0.2159  0.4341 -0.0795
  119CHL1   C1415008   0.857   7.409   5.910  0.6358 -0.1429 -0.5564
  119CHL1   H1415009   0.754   7.444   5.887  0.5726 -0.2872 -0.4916
  119CHL1   C1515010   0.850   7.278   5.828 -0.2888  0.4021 -0.1426
  119CHL1  H15A15011   0.931   7.211   5.865  0.5957 -0.2933 -3.1136
  119CHL1  H15B15012   0.757   7.218   5.833 -0.7912  1.1279 -0.5835
  119CHL1   C1615013   0.895   7.326   5.685 -0.2305  0.7358  0.1651
  119CHL1  H16A15014   0.996   7.285   5.660 -0.4400  0.5287 -0.3525
  119CHL1  H16B15015   0.825   7.280   5.612  0.0259  0.3856  0.1353
  119CHL1   C1715016   0.919   7.479   5.690  0.0392 -0.6628 -0.7025
  119CHL1   H1715017   0.820   7.527   5.676  0.8496  1.0006 -1.0120
  119CHL1   C1315018   0.953   7.512   5.843  0.5108  0.3472 -0.4022
  119CHL1   C1815019   1.094   7.484   5.888  0.6121 -0.3162  0.5831
  119CHL1  H18A15020   1.099   7.379   5.854 -2.2602 -0.8083  1.4428
  119CHL1  H18B15021   1.178   7.540   5.840  2.0093 -1.1961  1.9032
  119CHL1  H18C15022   1.112   7.484   5.998 -0.3788 -0.5777  0.7555
  119CHL1   C1215023   0.900   7.648   5.899  0.0207  0.1933 -0.3153
  119CHL1  H12A15024   0.958   7.734   5.860  1.0246 -0.0274  0.6539
  119CHL1  H12B15025   0.796   7.663   5.860  0.4833  0.3902 -1.5241
  119CHL1   C1115026   0.895   7.652   6.057 -0.1547 -0.0868 -0.0456
  119CHL1  H11A15027   1.001   7.665   6.086  0.0192 -0.5907 -0.4416
  119CHL1  H11B15028   0.841   7.746   6.081 -0.0582 -0.0081 -0.1388
  119CHL1    C915029   0.835   7.530   6.128 -0.1952 -0.1502 -0.2507
  119CHL1    H915030   0.725   7.547   6.117 -0.4929 -0.1702  2.1654
  119CHL1   C1015031   0.861   7.519   6.279 -0.3330 -0.2395  0.7589
  119CHL1   C1915032   1.012   7.530   6.322  0.3228  0.2170  0.0067
  119CHL1  H19A15033   1.074   7.464   6.258  0.8502  1.2092 -0.5431
  119CHL1  H19B15034   1.046   7.636   6.322  1.6758 -0.1717  1.8497
  119CHL1  H19C15035   1.031   7.491   6.424 -2.5508  1.4427  1.1193
  119CHL1    C115036   0.784   7.638   6.352  0.6654  0.0887  0.4331
  119CHL1   H1A15037   0.838   7.733   6.334 -0.0724  0.6437  1.0807
  119CHL1   H1B15038   0.685   7.645   6.303  1.5328  1.2380 -1.2681
  119CHL1    C215039   0.788   7.632   6.506  0.9762 -0.2548  0.2772
  119CHL1   H2A15040   0.717   7.706   6.549 -1.3794 -0.8482 -2.3549
  119CHL1   H2B15041   0.884   7.661   6.555  0.4621  0.3153  0.9615
  119CHL1   C2015042   1.009   7.530   5.575 -0.1980 -0.3812 -0.5040
  119CHL1   H2015043   1.113   7.510   5.608 -0.3095  1.1627  0.9273
  119CHL1   C2115044   0.992   7.678   5.556  0.3247 -0.0888  0.0286
  119CHL1  H21A15045   0.886   7.713   5.555 -0.7012 -2.8555  0.7152
  119CHL1  H21B15046   1.035   7.719   5.462 -1.0952  0.1574 -0.5424
  119CHL1  H21C15047   1.049   7.725   5.639  1.3276  0.0805 -0.7376
  119CHL1   C2215048   0.984   7.461   5.444 -0.1772 -0.0501  0.6217
  119CHL1  H22A15049   0.976   7.351   5.458  1.6395  0.0272  2.7560
  119CHL1  H22B15050   0.887   7.497   5.404  1.0155  0.1131 -2.3928
  119CHL1   C2315051   1.092   7.491   5.330  0.3985  0.2813  0.1658
  119CHL1  H23A15052   1.108   7.601   5.323 -0.1742  0.3680  0.2169
  119CHL1  H23B15053   1.188   7.444   5.362 -0.4087 -1.0946  0.6450
  119CHL1   C2415054   1.050   7.444   5.194 -0.5059 -0.7161  0.4131
  119CHL1  H24A15055   1.036   7.334   5.193 -1.0214 -0.6509 -0.1072
  119CHL1  H24B15056   0.947   7.483   5.178 -0.1150  0.4436  0.6088
  119CHL1   C2515057   1.155   7.492   5.087 -0.5938 -1.0498 -1.3042
  119CHL1   H2515058   1.181   7.598   5.105  1.3453 -1.8419  1.3572
  119CHL1   C2615059   1.294   7.419   5.097  0.6300 -0.2473  0.1522
  119CHL1  H26A15060   1.288   7.312   5.068  1.1477  0.4298 -2.7062
  119CHL1  H26B15061   1.347   7.467   5.012 -1.5041 -0.5489 -1.4300
  119CHL1  H26C15062   1.353   7.434   5.190  1.3196  1.2477 -0.4920
  119CHL1   C2715063   1.099   7.489   4.941  0.4833  0.4760  0.3424
  119CHL1  H27A15064   1.151   7.547   4.862  2.7813  0.7710  1.9533
  119CHL1  H27B15065   1.091   7.386   4.901 -1.1709  0.9811 -0.7398
  119CHL1  H27C15066   0.993   7.518   4.925 -0.3324 -1.9020  1.0387
  120CHL1    C315067   7.246   0.278   6.624  0.0495  0.4096  0.7135
  120CHL1    H315068   7.138   0.275   6.600  0.3894  2.4711 -1.3120
  120CHL1    O315069   7.266   0.227   6.755 -0.6998 -0.5065 -0.2088
  120CHL1   H3'15070   7.191   0.275   6.791 -0.8854 -0.5816 -0.4896
  120CHL1    C415071   7.302   0.170   6.524  0.1660 -0.7655  0.4587
  120CHL1   H4A15072   7.402   0.134   6.557  0.6181 -1.2339 -1.3005
  120CHL1   H4B15073   7.234   0.083   6.536  0.9745 -1.3846  0.6892
  120CHL1    C515074   7.321   0.227   6.382 -0.5040  0.1021 -0.2566
  120CHL1    C615075   7.270   0.165   6.275 -0.4991  0.5399 -0.2314
  120CHL1    H615076   7.217   0.070   6.291 -1.6331  1.2611  0.5020
  120CHL1    C715077   7.293   0.204   6.127  0.3081  0.2215 -0.0156
  120CHL1   H7A15078   7.346   0.115   6.086  1.9704  0.0253  2.3776
  120CHL1   H7B15079   7.201   0.238   6.076  0.3970  0.1389 -0.2313
  120CHL1    C815080   7.404   0.313   6.115  0.4950 -0.1852  0.4591
  120CHL1    H815081   7.506   0.272   6.130 -0.5425 -3.0202  0.5126
  120CHL1   C1415082   7.394   0.372   5.979  0.6013 -0.1910  0.5408
  120CHL1   H1415083   7.298   0.428   5.984 -0.5246 -2.0964  1.8538
  120CHL1   C1515084   7.390   0.273   5.861  0.0987 -0.4176  0.7296
  120CHL1  H15A15085   7.480   0.208   5.866  0.1058 -0.4521  0.1773
  120CHL1  H15B15086   7.293   0.219   5.856  1.3455 -2.6875 -0.4763
  120CHL1   C1615087   7.419   0.367   5.737 -0.1514 -0.1240  0.3369
  120CHL1  H16A15088   7.508   0.332   5.681  1.0667  3.0994  0.0756
  120CHL1  H16B15089   7.334   0.372   5.665  0.3976 -0.9928 -0.3931
  120CHL1   C1715090   7.465   0.507   5.795  0.4176  0.5196 -0.3681
  120CHL1   H1715091   7.365   0.556   5.797  0.7908  1.2716  1.3791
  120CHL1   C1315092   7.492   0.484   5.949 -0.2758 -0.2657  0.4797
  120CHL1   C1815093   7.642   0.429   5.962 -0.1900 -0.1489 -0.0962
  120CHL1  H18A15094   7.660   0.334   5.909  1.3839 -0.8892  1.6388
  120CHL1  H18B15095   7.706   0.506   5.914  1.2839 -0.6113  1.0559
  120CHL1  H18C15096   7.681   0.414   6.065  0.4362  2.0451  0.0495
  120CHL1   C1215097   7.463   0.597   6.047 -0.2871 -0.4917 -0.2385
  120CHL1  H12A15098   7.544   0.673   6.046 -2.7971  2.4412  1.3697
  120CHL1  H12B15099   7.368   0.645   6.015  0.5365 -0.0723 -2.2398
  120CHL1   C1115100   7.458   0.552   6.193  0.2045 -0.1414  0.1050
  120CHL1  H11A15101   7.564   0.540   6.224  0.3667 -0.2531 -0.4848
  120CHL1  H11B15102   7.423   0.637   6.254 -1.9591 -0.3612 -0.7268
  120CHL1    C915103   7.376   0.422   6.221  0.1518  0.0792  0.5505
  120CHL1    H915104   7.271   0.456   6.208  0.6800  0.9312 -2.2853
  120CHL1   C1015105   7.388   0.368   6.367  0.9523  0.6371 -0.6722
  120CHL1   C1915106   7.533   0.360   6.412 -0.1285 -0.0466 -0.7507
  120CHL1  H19A15107   7.541   0.335   6.520 -0.4923 -0.8682 -0.9101
  120CHL1  H19B15108   7.584   0.283   6.351 -1.9077 -0.9070 -1.2097
  120CHL1  H19C15109   7.581   0.460   6.400 -1.1212  0.3691 -1.3318
  120CHL1    C115110   7.315   0.466   6.460 -0.8381 -0.1864 -0.3240
  120CHL1   H1A15111   7.371   0.562   6.469 -2.2578  0.5760  0.8304
  120CHL1   H1B15112   7.211   0.479   6.423 -0.7483  1.7313  0.0016
  120CHL1    C215113   7.309   0.416   6.606  0.5451  0.1510  0.0389
  120CHL1   H2A15114   7.238   0.481   6.661  0.1597 -0.8134  0.7159
  120CHL1   H2B15115   7.408   0.427   6.654 -0.3680 -0.9171  2.3176
  120CHL1   C2015116   7.550   0.589   5.698  0.3012 -0.0552 -0.2062
  120CHL1   H2015117   7.649   0.539   5.703  0.2010 -0.4567 -1.6968
  120CHL1   C2115118   7.565   0.728   5.761  0.0224 -0.7310  0.1179
  120CHL1  H21A15119   7.477   0.795   5.749  0.6893  0.6319  2.1643
  120CHL1  H21B15120   7.632   0.796   5.704 -0.4632 -0.7675 -0.4936
  120CHL1  H21C15121   7.616   0.737   5.860  0.5386  2.0384 -0.2980
  120CHL1   C2215122   7.511   0.603   5.548 -0.2956 -1.0030  0.6112
  120CHL1  H22A15123   7.500   0.500   5.507  2.4835 -1.2491  0.3136
  120CHL1  H22B15124   7.412   0.654   5.542 -0.2790 -0.9583  0.7153
  120CHL1   C2315125   7.613   0.681   5.467 -0.4425  0.0348 -0.4250
  120CHL1  H23A15126   7.593   0.784   5.504  1.8407  0.2134  0.4340
  120CHL1  H23B15127   7.710   0.647   5.508 -0.3533 -0.8033 -1.3120
  120CHL1   C2415128   7.605   0.657   5.315  0.1503 -0.0148  0.2023
  120CHL1  H24A15129   7.633   0.551   5.295  1.3489  0.2870  0.1587
  120CHL1  H24B15130   7.500   0.675   5.285  0.8233  3.3774 -0.5280
  120CHL1   C2515131   7.700   0.737   5.222  0.3348 -0.5946 -0.4207
  120CHL1   H2515132   7.804   0.730   5.260  0.5470 -0.0922 -0.9123
  120CHL1   C2615133   7.684   0.684   5.082 -0.1839 -0.6753 -0.4989
  120CHL1  H26A15134   7.574   0.685   5.063 -0.9423  1.6524  3.0113
  120CHL1  H26B15135   7.733   0.746   5.004  1.9471 -2.4221 -0.6401
  120CHL1  H26C15136   7.723   0.581   5.071  0.5768 -0.8341  2.7996
  120CHL1   C2715137   7.658   0.881   5.241 -0.6293  0.4526  0.1275
  120CHL1  H27A15138   7.554   0.895   5.204 -0.7011 -0.1835  0.0860
  120CHL1  H27B15139   7.656   0.901   5.350 -0.2971  0.8244  0.0666
  120CHL1  H27C15140   7.729   0.956   5.201  2.0057 -1.1709  1.4786
  121CHL1    C315141   4.477   4.099   3.551  0.2963 -0.1110  0.3538
  121CHL1    H315142   4.470   3.988   3.543 -0.0714 -0.2492  2.1363
  121CHL1    O315143   4.517   4.149   3.424  0.1266 -0.2271  0.3224
  121CHL1   H3'15144   4.611   4.169   3.426  0.0196  0.5136 -0.9804
  121CHL1    C415145   4.335   4.143   3.587  0.0995 -0.6193  0.3199
  121CHL1   H4A15146   4.335   4.252   3.566  2.2458 -0.8569 -1.2545
  121CHL1   H4B15147   4.259   4.104   3.517  1.3587 -1.0363 -0.8586
  121CHL1    C515148   4.298   4.136   3.740 -0.1882  0.7231  0.4608
  121CHL1    C615149   4.188   4.070   3.781  0.1923 -0.2461  0.1864
  121CHL1    H615150   4.116   4.023   3.712  1.1708  1.1703 -1.8662
  121CHL1    C715151   4.152   4.055   3.927  0.2009  0.1049  0.3864
  121CHL1   H7A15152   4.045   4.080   3.944  0.5304  0.8879  1.4097
  121CHL1   H7B15153   4.165   3.949   3.956  3.2265 -0.0875 -1.3603
  121CHL1    C815154   4.231   4.151   4.014 -0.3805 -0.5752 -0.2211
  121CHL1    H815155   4.194   4.254   3.997  0.0430 -0.5460 -0.9896
  121CHL1   C1415156   4.217   4.120   4.161 -0.2174 -0.2352  0.4009
  121CHL1   H1415157   4.243   4.014   4.184  0.3494  0.1587  1.6489
  121CHL1   C1515158   4.068   4.140   4.205  0.2841  0.2983  0.1405
  121CHL1  H15A15159   4.035   4.234   4.154  1.0639  0.0353 -0.8951
  121CHL1  H15B15160   4.008   4.051   4.177  2.4313 -1.3741  0.5432
  121CHL1   C1615161   4.072   4.160   4.358  0.3870  0.3464 -0.4337
  121CHL1  H16A15162   4.020   4.253   4.387 -0.3149 -0.3210  0.5124
  121CHL1  H16B15163   4.029   4.070   4.407  2.9435 -0.5260  0.3881
  121CHL1   C1715164   4.222   4.163   4.395  0.3780  0.1218 -0.2906
  121CHL1   H1715165   4.250   4.056   4.409 -1.8323 -0.3355  1.1712
  121CHL1   C1315166   4.296   4.209   4.257 -0.0647  0.0033  0.1242
  121CHL1   C1815167   4.276   4.362   4.243 -0.0634  0.1136 -0.0992
  121CHL1  H18A15168   4.349   4.408   4.174 -0.6580 -1.1662 -1.6258
  121CHL1  H18B15169   4.177   4.375   4.193 -1.5981 -1.7912  2.1960
  121CHL1  H18C15170   4.289   4.406   4.345 -0.6123 -2.7269  1.2961
  121CHL1   C1215171   4.444   4.176   4.237  0.2627  0.3150  0.4605
  121CHL1  H12A15172   4.517   4.231   4.300 -1.3043  3.3477 -0.1642
  121CHL1  H12B15173   4.470   4.072   4.267  2.3611  0.7174  0.1856
  121CHL1   C1115174   4.483   4.196   4.087 -0.4649 -0.1248  0.2327
  121CHL1  H11A15175   4.498   4.304   4.069 -2.3057  0.0133 -0.7335
  121CHL1  H11B15176   4.584   4.151   4.073 -0.1966  0.5666 -0.0772
  121CHL1    C915177   4.376   4.140   3.980  0.3049  0.2622  0.1191
  121CHL1    H915178   4.388   4.029   3.988 -0.9382 -0.0167 -1.3955
  121CHL1   C1015179   4.413   4.174   3.837 -0.2442  0.5934 -0.3501
  121CHL1   C1915180   4.443   4.319   3.831 -0.0225 -0.1067  0.3710
  121CHL1  H19A15181   4.548   4.352   3.850 -0.2017  0.4282  0.4503
  121CHL1  H19B15182   4.425   4.362   3.729 -0.7035 -0.7506  0.2137
  121CHL1  H19C15183   4.377   4.370   3.904  0.4502  0.2968  0.5281
  121CHL1    C115184   4.544   4.102   3.793 -0.2346 -0.0453  0.0745
  121CHL1   H1A15185   4.628   4.130   3.860 -1.5744 -0.5047  2.0329
  121CHL1   H1B15186   4.517   3.995   3.804  0.3192 -0.1912  0.0854
  121CHL1    C215187   4.586   4.137   3.648 -0.4368  0.1255 -0.9910
  121CHL1   H2A15188   4.682   4.096   3.612 -1.1439  0.7484 -3.8764
  121CHL1   H2B15189   4.599   4.247   3.659  1.4245 -0.3185  2.5471
  121CHL1   C2015190   4.258   4.233   4.531 -0.5313 -0.5788  0.3678
  121CHL1   H2015191   4.230   4.341   4.527  2.6782  0.3645  0.1455
  121CHL1   C2115192   4.408   4.228   4.562 -0.5890 -0.6847 -0.8909
  121CHL1  H21A15193   4.436   4.240   4.669 -1.5957 -0.0159 -0.6787
  121CHL1  H21B15194   4.457   4.316   4.516  1.2607  0.4592  2.8804
  121CHL1  H21C15195   4.442   4.131   4.520 -1.3292  0.0412 -3.3678
  121CHL1   C2215196   4.176   4.173   4.649 -0.3825 -0.3604 -0.6105
  121CHL1  H22A15197   4.067   4.182   4.628 -0.4958 -0.8846 -0.2595
  121CHL1  H22B15198   4.200   4.066   4.665  2.4570  0.3875  0.6782
  121CHL1   C2315199   4.189   4.249   4.783  0.1152 -0.3096  0.1467
  121CHL1  H23A15200   4.299   4.245   4.793  0.5174  0.6991 -2.8241
  121CHL1  H23B15201   4.157   4.355   4.770  2.7937  0.5341 -0.1584
  121CHL1   C2415202   4.100   4.201   4.901 -0.5437  0.6316 -0.0895
  121CHL1  H24A15203   3.992   4.210   4.873 -0.9266 -0.2985  1.0179
  121CHL1  H24B15204   4.119   4.094   4.926  0.1177  0.9359  0.7615
  121CHL1   C2515205   4.104   4.293   5.020  0.0721  0.3784 -0.5115
  121CHL1   H2515206   4.080   4.394   4.981  0.4212  0.5299 -0.3345
  121CHL1   C2615207   3.989   4.267   5.121  0.2748 -0.5756 -0.2575
  121CHL1  H26A15208   4.008   4.169   5.171  2.2748  0.0332  0.2951
  121CHL1  H26B15209   3.984   4.341   5.204 -0.2814 -0.1240 -0.6864
  121CHL1  H26C15210   3.895   4.262   5.063 -0.2100 -0.0939  0.4673
  121CHL1   C2715211   4.240   4.293   5.092  0.3690  0.5595 -0.1107
  121CHL1  H27A15212   4.264   4.188   5.120 -2.6864  0.1014  1.1978
  121CHL1  H27B15213   4.321   4.314   5.019 -0.4869 -1.6850 -1.8460
  121CHL1  H27C15214   4.245   4.361   5.180  0.3552  0.4347 -0.0128
  122CHL1    C315215   3.341   4.338   3.574 -0.0621  0.0203  0.4705
  122CHL1    H315216   3.273   4.276   3.636 -0.4542 -0.4538 -0.4068
  122CHL1    O315217   3.392   4.268   3.462 -0.1052  0.1492 -0.2666
  122CHL1   H3'15218   3.432   4.342   3.415  0.2086 -0.1082 -0.4070
  122CHL1    C415219   3.257   4.455   3.527  1.1649  0.1750  0.0425
  122CHL1   H4A15220   3.317   4.518   3.457 -1.4644  1.2906 -1.3567
  122CHL1   H4B15221   3.173   4.418   3.464  0.1721 -0.3030  1.5857
  122CHL1    C515222   3.203   4.549   3.635 -0.4814  0.3268 -0.0095
  122CHL1    C615223   3.071   4.567   3.649  0.4432  0.4815  0.4062
  122CHL1    H615224   2.997   4.528   3.578  0.1562 -1.1968  1.5763
  122CHL1    C715225   3.025   4.648   3.758  0.7023 -0.3549 -0.3674
  122CHL1   H7A15226   2.941   4.719   3.740 -1.0609 -2.3810 -0.6455
  122CHL1   H7B15227   2.983   4.582   3.838 -0.6014 -0.1388 -0.8403
  122CHL1    C815228   3.125   4.733   3.838 -0.1467  0.0774  0.0779
  122CHL1    H815229   3.142   4.822   3.774 -0.0285 -0.0938 -0.1330
  122CHL1   C1415230   3.063   4.793   3.970 -0.0341 -0.5053  0.3263
  122CHL1   H1415231   3.042   4.706   4.036  1.1567 -0.3824  0.8887
  122CHL1   C1515232   2.929   4.860   3.973 -0.3602 -0.2019 -0.0354
  122CHL1  H15A15233   2.932   4.933   3.889  2.0748 -0.0433  0.1213
  122CHL1  H15B15234   2.850   4.783   3.962 -1.6990  1.1415 -0.2488
  122CHL1   C1615235   2.929   4.925   4.110 -0.4583 -0.1344 -0.2675
  122CHL1  H16A15236   2.885   5.026   4.095  0.8691  0.3356 -1.0959
  122CHL1  H16B15237   2.868   4.868   4.183 -0.0606  0.3089  0.4246
  122CHL1   C1715238   3.071   4.929   4.160  0.4841  1.4871 -0.9014
  122CHL1   H1715239   3.068   4.846   4.233 -1.3914  1.0255 -1.4462
  122CHL1   C1315240   3.165   4.877   4.045  0.1004  0.4774 -0.0251
  122CHL1   C1815241   3.211   5.006   3.961  0.8867  0.2677 -0.4254
  122CHL1  H18A15242   3.262   5.075   4.032  1.4926 -0.6745  0.0725
  122CHL1  H18B15243   3.287   4.979   3.885 -0.0659 -1.1689 -0.9031
  122CHL1  H18C15244   3.131   5.062   3.908  2.3010  2.2494 -0.5871
  122CHL1   C1215245   3.276   4.785   4.079 -0.1841  0.2536 -0.1569
  122CHL1  H12A15246   3.353   4.842   4.135 -1.5230  1.7943  0.1619
  122CHL1  H12B15247   3.247   4.696   4.139  1.2333 -0.1248  0.0166
  122CHL1   C1115248   3.348   4.731   3.957  0.2463  0.4684 -0.3141
  122CHL1  H11A15249   3.393   4.816   3.901 -1.6366  0.0620 -2.5925
  122CHL1  H11B15250   3.432   4.660   3.975  0.8216  0.6772 -1.9905
  122CHL1    C915251   3.252   4.654   3.863  0.0123  0.3267 -0.3440
  122CHL1    H915252   3.212   4.577   3.933  0.7695 -0.6192 -0.9191
  122CHL1   C1015253   3.309   4.590   3.733 -0.0372 -0.2058 -0.7779
  122CHL1   C1915254   3.394   4.701   3.669  0.2381 -1.5141  0.3885
  122CHL1  H19A15255   3.485   4.715   3.731 -0.7674  1.0275  1.4151
  122CHL1  H19B15256   3.442   4.685   3.570  1.0688  1.4222  0.2315
  122CHL1  H19C15257   3.342   4.799   3.668  0.7245 -1.2410  0.9089
  122CHL1    C115258   3.399   4.470   3.782  0.1912 -0.4791 -0.4048
  122CHL1   H1A15259   3.491   4.514   3.825  0.5379  0.6272 -2.1420
  122CHL1   H1B15260   3.355   4.406   3.861 -0.5889 -1.6193 -1.7063
  122CHL1    C215261   3.453   4.394   3.655 -0.1016  0.8427 -0.0751
  122CHL1   H2A15262   3.519   4.315   3.694 -1.5821 -0.4719 -0.1259
  122CHL1   H2B15263   3.510   4.464   3.590  1.1941 -0.3330 -0.2292
  122CHL1   C2015264   3.103   5.051   4.243  0.3988  0.1787 -0.0337
  122CHL1   H2015265   3.087   5.141   4.181 -0.3965  0.3512  0.4086
  122CHL1   C2115266   3.252   5.056   4.288 -0.4710  0.7134 -0.6304
  122CHL1  H21A15267   3.284   4.961   4.337  0.2888 -0.3725 -3.0495
  122CHL1  H21B15268   3.266   5.136   4.364 -2.4168  0.1122  0.4242
  122CHL1  H21C15269   3.325   5.083   4.208 -1.4246  2.3476 -0.9862
  122CHL1   C2215270   3.014   5.054   4.374 -0.7103  0.0245  0.7364
  122CHL1  H22A15271   2.910   5.080   4.347 -0.9693  1.3472  2.7842
  122CHL1  H22B15272   3.020   4.958   4.430 -2.4852 -0.1401  0.6916
  122CHL1   C2315273   3.046   5.163   4.475 -0.1717  0.2987  0.5301
  122CHL1  H23A15274   3.141   5.138   4.526  0.3564  3.1168  1.1035
  122CHL1  H23B15275   3.065   5.258   4.420 -1.6776  0.4811  0.2867
  122CHL1   C2415276   2.939   5.182   4.587  0.6782  0.0568 -0.4357
  122CHL1  H24A15277   2.842   5.204   4.539 -0.1099 -1.6404  0.2961
  122CHL1  H24B15278   2.940   5.086   4.642  1.7634  0.4259  0.2316
  122CHL1   C2515279   2.981   5.294   4.677 -0.0774  0.3547 -0.4213
  122CHL1   H2515280   3.090   5.288   4.697 -0.1328  2.8957  1.0722
  122CHL1   C2615281   2.962   5.431   4.609  0.4557 -0.6720 -0.2895
  122CHL1  H26A15282   2.991   5.501   4.690  0.3506 -1.9897  0.9374
  122CHL1  H26B15283   3.037   5.442   4.529  1.7674  2.2256  1.1988
  122CHL1  H26C15284   2.862   5.452   4.565  1.0854 -1.9257 -2.4615
  122CHL1   C2715285   2.922   5.284   4.818  0.4984 -0.4920  0.2807
  122CHL1  H27A15286   2.816   5.317   4.811  1.3633  2.5541  0.1995
  122CHL1  H27B15287   2.931   5.186   4.870  1.0757  0.0339  1.2088
  122CHL1  H27C15288   2.974   5.355   4.886 -1.1365 -0.5430  1.6534
  123CHL1    C315289   5.264   3.831   3.749 -0.0554 -0.0361 -0.2949
  123CHL1    H315290   5.308   3.929   3.719 -2.0454  0.5760 -1.4264
  123CHL1    O315291   5.228   3.761   3.635 -0.7046  0.3947 -0.0408
  123CHL1   H3'15292   5.299   3.705   3.604 -2.4547 -2.0480  0.0778
  123CHL1    C415293   5.369   3.741   3.816 -0.1226 -0.0369  0.0372
  123CHL1   H4A15294   5.322   3.642   3.834 -0.5641 -0.3149 -2.3375
  123CHL1   H4B15295   5.452   3.722   3.746 -1.5101 -1.2993 -1.3373
  123CHL1    C515296   5.409   3.796   3.955 -0.3635  0.0389  0.4304
  123CHL1    C615297   5.538   3.820   3.984 -0.6002 -0.0557  0.2555
  123CHL1    H615298   5.615   3.813   3.906 -0.9751  1.5309 -0.2960
  123CHL1    C715299   5.574   3.879   4.118 -0.0816  0.5048 -0.1508
  123CHL1   H7A15300   5.654   3.827   4.174 -0.1772  0.9199  0.3755
  123CHL1   H7B15301   5.599   3.987   4.111  1.6528  0.2274  1.1142
  123CHL1    C815302   5.463   3.877   4.222 -0.1119  0.2717 -1.0683
  123CHL1    H815303   5.448   3.773   4.256 -0.0369  0.1214 -1.4871
  123CHL1   C1415304   5.496   3.965   4.341  0.3227 -0.5849  0.2143
  123CHL1   H1415305   5.505   4.066   4.295  0.1791 -0.0244  1.3821
  123CHL1   C1515306   5.627   3.930   4.416 -0.7705  0.1671  0.2218
  123CHL1  H15A15307   5.628   3.819   4.426  0.0159  0.0473 -0.9041
  123CHL1  H15B15308   5.710   3.967   4.351 -0.3862  0.7115  1.0045
  123CHL1   C1615309   5.620   4.012   4.542 -0.5503  0.3166  0.5866
  123CHL1  H16A15310   5.648   3.960   4.637  1.9620  0.6562  0.1096
  123CHL1  H16B15311   5.693   4.096   4.546 -0.0048 -0.1205 -0.0204
  123CHL1   C1715312   5.470   4.065   4.550 -1.0013 -0.3649  0.5480
  123CHL1   H1715313   5.491   4.167   4.510  3.1159  0.9483  5.1208
  123CHL1   C1315314   5.388   3.983   4.448 -0.3608  0.0434  0.0210
  123CHL1   C1815315   5.354   3.844   4.507  0.1065 -0.2191  0.0022
  123CHL1  H18A15316   5.335   3.760   4.437 -0.2333  1.0383 -1.4625
  123CHL1  H18B15317   5.431   3.811   4.580 -0.8336  0.7521  1.4820
  123CHL1  H18C15318   5.267   3.854   4.575  0.6975 -1.0262  0.9107
  123CHL1   C1215319   5.262   4.047   4.384 -0.1930  0.1830  0.0807
  123CHL1  H12A15320   5.179   4.061   4.456  0.2975  0.3404  0.6202
  123CHL1  H12B15321   5.293   4.148   4.350 -0.7613 -0.0098 -1.0534
  123CHL1   C1115322   5.220   3.963   4.257 -0.3005  0.0428 -0.4856
  123CHL1  H11A15323   5.170   3.873   4.298  1.4298 -0.4059  0.7866
  123CHL1  H11B15324   5.145   4.021   4.199 -1.1686  0.1322  0.6974
  123CHL1    C915325   5.336   3.928   4.158  0.5906  0.1200  0.0102
  123CHL1    H915326   5.364   4.025   4.113  0.2181  0.2230 -0.0028
  123CHL1   C1015327   5.289   3.834   4.048 -0.2171 -0.8495 -0.1766
  123CHL1   C1915328   5.237   3.701   4.103  0.3003  0.3652  0.4074
  123CHL1  H19A15329   5.138   3.723   4.148  0.4392 -0.9096  1.4022
  123CHL1  H19B15330   5.232   3.619   4.029  2.1815 -0.1305  0.7772
  123CHL1  H19C15331   5.298   3.667   4.189  2.1665 -0.8098 -1.3007
  123CHL1    C115332   5.179   3.911   3.968  0.1107  0.2551 -0.3710
  123CHL1   H1A15333   5.088   3.919   4.032  1.6909  1.1084  1.8940
  123CHL1   H1B15334   5.214   4.013   3.941 -0.5317  0.1441 -1.7271
  123CHL1    C215335   5.144   3.847   3.839 -0.6249  0.5657 -0.3127
  123CHL1   H2A15336   5.070   3.907   3.781  1.2061  2.0001 -1.2511
  123CHL1   H2B15337   5.107   3.743   3.855 -1.1884  1.0868  2.2001
  123CHL1   C2015338   5.425   4.092   4.691 -0.1291 -0.1066  0.6365
  123CHL1   H2015339   5.395   3.990   4.723  2.6228 -0.9886  0.7101
  123CHL1   C2115340   5.294   4.175   4.691  0.2755  0.4481  0.3057
  123CHL1  H21A15341   5.255   4.185   4.794  1.8019 -2.9849  1.3485
  123CHL1  H21B15342   5.211   4.113   4.650 -0.3977  1.1995  0.5022
  123CHL1  H21C15343   5.300   4.275   4.642 -0.3371 -0.0864 -0.9221
  123CHL1   C2215344   5.531   4.147   4.794 -0.6358  0.5555 -0.6207
  123CHL1  H22A15345   5.626   4.088   4.791 -1.4285 -0.9936  1.8341
  123CHL1  H22B15346   5.563   4.248   4.760 -1.2352  0.0496 -2.8974
  123CHL1   C2315347   5.484   4.144   4.939 -0.5760  0.0242  0.0482
  123CHL1  H23A15348   5.403   4.217   4.958 -0.5245 -0.7284  3.9567
  123CHL1  H23B15349   5.459   4.037   4.953 -0.7250 -0.3300 -2.4194
  123CHL1   C2415350   5.600   4.185   5.036 -0.6047  0.0771  0.1750
  123CHL1  H24A15351   5.692   4.124   5.022 -0.5302 -0.1088  1.3378
  123CHL1  H24B15352   5.629   4.289   5.012 -0.1528 -0.5043 -2.0360
  123CHL1   C2515353   5.554   4.184   5.186 -0.4729  0.1131  0.2279
  123CHL1   H2515354   5.518   4.086   5.223 -1.3219  1.2170  2.5316
  123CHL1   C2615355   5.679   4.210   5.270  0.0817  0.2368 -0.8752
  123CHL1  H26A15356   5.710   4.316   5.286 -1.9856  1.0787 -1.9315
  123CHL1  H26B15357   5.662   4.170   5.372 -1.1163  1.3686 -0.5940
  123CHL1  H26C15358   5.770   4.158   5.233  0.1801 -1.1811  1.1990
  123CHL1   C2715359   5.451   4.286   5.219 -0.1344  0.2731  0.4533
  123CHL1  H27A15360   5.371   4.306   5.144 -0.8428  0.7264  1.3193
  123CHL1  H27B15361   5.407   4.255   5.316  0.8662 -0.9114  0.5545
  123CHL1  H27C15362   5.499   4.386   5.229 -1.6991  1.1751 -0.4905
  124CHL1    C315363   3.804   5.370   3.279 -0.2542 -0.1751 -0.5836
  124CHL1    H315364   3.811   5.263   3.309 -1.6507 -0.0101  0.4352
  124CHL1    O315365   3.838   5.392   3.144  0.9965  0.1128 -0.3804
  124CHL1   H3'15366   3.855   5.486   3.131  0.5449  0.2293 -0.1310
  124CHL1    C415367   3.654   5.412   3.296 -0.4491 -0.2721 -0.4049
  124CHL1   H4A15368   3.656   5.519   3.264  0.3676 -0.6007 -1.4928
  124CHL1   H4B15369   3.585   5.365   3.223 -0.2014 -1.5094  0.1320
  124CHL1    C515370   3.608   5.392   3.442  0.4850 -0.3898  0.0761
  124CHL1    C615371   3.497   5.322   3.470 -0.1247  0.3014  1.0230
  124CHL1    H615372   3.446   5.288   3.379  1.6226  2.7111 -1.0086
  124CHL1    C715373   3.436   5.300   3.608 -0.9427  0.5033  0.1048
  124CHL1   H7A15374   3.327   5.323   3.619 -1.2963 -1.3901  0.9597
  124CHL1   H7B15375   3.460   5.199   3.648  2.7160  0.9445 -0.6730
  124CHL1    C815376   3.505   5.395   3.711  0.5769 -0.1044  0.4031
  124CHL1    H815377   3.459   5.495   3.696  1.2626  0.3132  1.0407
  124CHL1   C1415378   3.468   5.352   3.855  0.2663 -0.1584  0.3227
  124CHL1   H1415379   3.494   5.244   3.867 -0.8553 -0.3737  0.9766
  124CHL1   C1515380   3.317   5.360   3.889  0.2118  0.3803 -0.5808
  124CHL1  H15A15381   3.279   5.458   3.852  2.8681  1.7361  0.0389
  124CHL1  H15B15382   3.258   5.276   3.849 -0.5764  0.1511  1.0292
  124CHL1   C1615383   3.315   5.366   4.044  0.2854 -0.1268 -0.4651
  124CHL1  H16A15384   3.253   5.452   4.077 -0.9867 -0.5022 -1.7657
  124CHL1  H16B15385   3.284   5.275   4.101  1.0182 -0.7941 -1.1079
  124CHL1   C1715386   3.464   5.384   4.085  0.3066 -0.1938  0.1442
  124CHL1   H1715387   3.512   5.286   4.102  1.0403  0.3101  1.0574
  124CHL1   C1315388   3.539   5.438   3.960  0.7127  0.1160 -0.2116
  124CHL1   C1815389   3.496   5.590   3.948  0.3289 -0.3670 -0.0108
  124CHL1  H18A15390   3.509   5.620   3.842  1.3172 -0.7100  0.0033
  124CHL1  H18B15391   3.386   5.596   3.963  0.6400  1.2212  2.1316
  124CHL1  H18C15392   3.545   5.664   4.015  0.9244 -2.4324  1.9502
  124CHL1   C1215393   3.691   5.419   3.945  0.0111  0.1581 -0.2500
  124CHL1  H12A15394   3.740   5.493   4.012  0.1978  0.0463 -0.2630
  124CHL1  H12B15395   3.713   5.316   3.981 -0.7943  0.4354  1.1193
  124CHL1   C1115396   3.731   5.465   3.807 -0.2738  0.5107 -0.0745
  124CHL1  H11A15397   3.725   5.575   3.795 -1.6120  0.5028  0.4328
  124CHL1  H11B15398   3.840   5.441   3.806 -0.5518 -0.9109 -1.7778
  124CHL1    C915399   3.653   5.398   3.689 -0.2861  0.1207 -0.5925
  124CHL1    H915400   3.693   5.295   3.693 -1.1102 -0.1735  0.6995
  124CHL1   C1015401   3.695   5.454   3.545  0.0192 -0.2643  0.2133
  124CHL1   C1915402   3.664   5.610   3.543 -0.9053  0.7778 -0.1863
  124CHL1  H19A15403   3.739   5.646   3.617 -2.9157 -0.0197  2.3723
  124CHL1  H19B15404   3.680   5.643   3.438 -0.5472  2.6593  0.4151
  124CHL1  H19C15405   3.564   5.638   3.580 -0.5845  1.1274  0.4352
  124CHL1    C115406   3.844   5.417   3.522 -0.2100  0.3484  0.7043
  124CHL1   H1A15407   3.913   5.478   3.584 -1.4581  0.0200  2.5102
  124CHL1   H1B15408   3.857   5.310   3.549  0.1201 -0.1781 -1.4173
  124CHL1    C215409   3.893   5.440   3.381 -0.0370  0.5943 -0.6444
  124CHL1   H2A15410   3.995   5.398   3.365 -0.0615  0.7947 -1.3646
  124CHL1   H2B15411   3.902   5.547   3.353 -3.4754  1.7167  1.8060
  124CHL1   C2015412   3.481   5.455   4.227 -0.3378  0.1089  0.4064
  124CHL1   H2015413   3.409   5.538   4.212 -0.6342 -0.6668 -3.6538
  124CHL1   C2115414   3.636   5.494   4.251 -0.0408  0.1950 -0.1995
  124CHL1  H21A15415   3.671   5.571   4.178  1.2988  0.8408  1.0618
  124CHL1  H21B15416   3.692   5.399   4.235 -0.9517 -0.6675  1.5621
  124CHL1  H21C15417   3.645   5.537   4.353  0.5141 -1.2472  0.3821
  124CHL1   C2215418   3.415   5.375   4.350 -0.2480 -0.0551 -0.0448
  124CHL1  H22A15419   3.308   5.367   4.320 -0.8255  1.2783  1.5160
  124CHL1  H22B15420   3.457   5.272   4.361 -2.1171 -1.0138 -1.3278
  124CHL1   C2315421   3.426   5.440   4.486 -0.5614 -0.2080  0.3750
  124CHL1  H23A15422   3.531   5.459   4.518 -0.9251  0.4250  1.2515
  124CHL1  H23B15423   3.388   5.545   4.481 -1.7454 -0.6629 -0.9270
  124CHL1   C2415424   3.358   5.356   4.596 -0.8008 -0.1707  0.2166
  124CHL1  H24A15425   3.247   5.357   4.589 -0.8318  4.2113 -1.6526
  124CHL1  H24B15426   3.387   5.249   4.583 -2.0838 -0.4987 -0.0958
  124CHL1   C2515427   3.414   5.391   4.729 -0.5744 -0.4959  0.0578
  124CHL1   H2515428   3.524   5.375   4.716 -0.2493  2.3900 -1.5645
  124CHL1   C2615429   3.398   5.532   4.783 -0.3548 -0.5190 -0.2933
  124CHL1  H26A15430   3.292   5.565   4.793 -0.5156 -1.2943  0.6711
  124CHL1  H26B15431   3.441   5.538   4.886  1.1575  2.4315 -0.9673
  124CHL1  H26C15432   3.456   5.599   4.716  0.7278 -1.5010 -0.3697
  124CHL1   C2715433   3.356   5.295   4.834  0.1375 -0.2743  0.6452
  124CHL1  H27A15434   3.246   5.306   4.838 -0.0937 -2.3190  0.8540
  124CHL1  H27B15435   3.387   5.191   4.812  2.4080  0.0465  1.9905
  124CHL1  H27C15436   3.394   5.331   4.932  2.2677  4.5466 -1.5831
  125CHL1    C315437   4.503   5.148   3.267 -0.6178 -0.0837 -0.4419
  125CHL1    H315438   4.459   5.048   3.247 -0.4233 -0.1942 -0.3209
  125CHL1    O315439   4.553   5.212   3.150  0.4440  0.5863  0.3640
  125CHL1   H3'15440   4.626   5.265   3.183  0.1139 -0.6892  3.4876
  125CHL1    C415441   4.411   5.246   3.342 -0.2223 -0.0166  0.5090
  125CHL1   H4A15442   4.463   5.344   3.338 -0.4710  0.0629 -1.6907
  125CHL1   H4B15443   4.324   5.265   3.277  0.2754  1.5976  0.2700
  125CHL1    C515444   4.376   5.204   3.483  0.0935  0.5280 -0.5831
  125CHL1    C615445   4.247   5.219   3.530 -0.2849 -0.2232  0.2341
  125CHL1    H615446   4.163   5.260   3.473  0.5723  1.9870  0.4292
  125CHL1    C715447   4.212   5.204   3.675  0.1548 -0.1665 -0.0535
  125CHL1   H7A15448   4.165   5.301   3.704  1.1079  1.0859 -2.4762
  125CHL1   H7B15449   4.144   5.118   3.693  1.3056 -0.7160  2.0420
  125CHL1    C815450   4.329   5.172   3.772  0.2308 -0.4572  0.1836
  125CHL1    H815451   4.373   5.269   3.804 -0.3356  0.1806 -0.9113
  125CHL1   C1415452   4.290   5.092   3.898  0.5448 -0.0291  0.4039
  125CHL1   H1415453   4.252   4.995   3.860 -0.8267  1.3474 -2.0034
  125CHL1   C1515454   4.181   5.155   3.990  1.1202  0.1185 -0.0492
  125CHL1  H15A15455   4.203   5.262   4.010 -0.0867  0.1729  1.1670
  125CHL1  H15B15456   4.079   5.136   3.947  0.6161  0.6811  0.8757
  125CHL1   C1615457   4.189   5.067   4.115  0.1199 -0.3661  0.5266
  125CHL1  H16A15458   4.178   5.128   4.207 -2.8698 -0.1253  0.1020
  125CHL1  H16B15459   4.105   4.995   4.124 -0.4697  0.1321 -0.7831
  125CHL1   C1715460   4.316   4.985   4.103 -0.4369  0.7602  0.6656
  125CHL1   H1715461   4.279   4.891   4.057 -0.6791  0.9306  0.5078
  125CHL1   C1315462   4.403   5.057   3.996  0.3515 -0.6270  0.7328
  125CHL1   C1815463   4.458   5.187   4.056 -0.2123  0.1950  0.0992
  125CHL1  H18A15464   4.465   5.274   3.986 -0.5756  0.4568  0.3874
  125CHL1  H18B15465   4.405   5.227   4.145  0.1772  2.6903 -0.6876
  125CHL1  H18C15466   4.560   5.166   4.095  0.4009  1.7033 -0.5919
  125CHL1   C1215467   4.509   4.979   3.930 -0.3986  0.4026  0.4268
  125CHL1  H12A15468   4.592   4.972   4.004 -0.4915 -0.8430  0.4406
  125CHL1  H12B15469   4.466   4.877   3.916  2.7747 -1.2598  1.7380
  125CHL1   C1115470   4.551   5.038   3.795  0.0519  0.7220  0.5892
  125CHL1  H11A15471   4.636   5.107   3.816  0.1452  0.4587  1.0957
  125CHL1  H11B15472   4.603   4.957   3.739 -0.6050  0.4096  0.4222
  125CHL1    C915473   4.444   5.094   3.702  0.0668  0.3836  0.9895
  125CHL1    H915474   4.393   4.999   3.672 -0.5150  1.1439 -0.5226
  125CHL1   C1015475   4.493   5.156   3.574  0.3057 -1.3047 -0.2777
  125CHL1   C1915476   4.574   5.283   3.622 -0.2993 -0.1118 -0.9743
  125CHL1  H19A15477   4.674   5.261   3.663 -1.4190  1.0170  2.7593
  125CHL1  H19B15478   4.587   5.357   3.540  1.2031 -0.8538 -1.4373
  125CHL1  H19C15479   4.525   5.330   3.710  2.1702 -1.0957  1.0457
  125CHL1    C115480   4.582   5.060   3.491  0.0721  1.1053 -0.4287
  125CHL1   H1A15481   4.662   5.024   3.559  0.4726  2.3809 -0.1913
  125CHL1   H1B15482   4.512   4.974   3.483 -1.2889  1.9334  1.8385
  125CHL1    C215483   4.627   5.113   3.356  0.1120  0.9955  0.0479
  125CHL1   H2A15484   4.683   5.034   3.301  0.1159  2.2227 -1.8036
  125CHL1   H2B15485   4.708   5.188   3.367  1.1796 -0.2171  0.7561
  125CHL1   C2015486   4.366   4.946   4.248  0.0627 -0.7284 -0.4796
  125CHL1   H2015487   4.398   5.034   4.308 -1.2069 -0.4192 -0.2150
  125CHL1   C2115488   4.479   4.842   4.231 -0.1221  0.1606  0.6099
  125CHL1  H21A15489   4.520   4.815   4.331  2.9647 -0.9685 -0.8303
  125CHL1  H21B15490   4.570   4.877   4.179 -0.0943 -2.0068 -0.9512
  125CHL1  H21C15491   4.444   4.742   4.198 -0.8628  0.3660  0.7445
  125CHL1   C2215492   4.266   4.875   4.327 -0.3349  0.6373 -0.6597
  125CHL1  H22A15493   4.158   4.899   4.313 -0.1375  0.6910 -2.3058
  125CHL1  H22B15494   4.262   4.765   4.309 -2.1462  0.5641 -0.0591
  125CHL1   C2315495   4.283   4.897   4.480 -0.1310 -0.0357  0.2474
  125CHL1  H23A15496   4.393   4.886   4.496  0.3646  1.3164 -1.8791
  125CHL1  H23B15497   4.249   5.002   4.494 -1.7446 -0.1544 -2.2305
  125CHL1   C2415498   4.207   4.797   4.570  0.2486  0.2904 -0.0980
  125CHL1  H24A15499   4.098   4.793   4.548  0.5380 -3.0211 -1.4015
  125CHL1  H24B15500   4.246   4.700   4.533 -0.5398 -0.2754  0.5343
  125CHL1   C2515501   4.224   4.806   4.721 -0.2824  0.3856 -0.2056
  125CHL1   H2515502   4.334   4.802   4.738 -0.6500  0.1648  2.4256
  125CHL1   C2615503   4.163   4.940   4.772 -0.2175  0.0525 -0.2818
  125CHL1  H26A15504   4.175   4.962   4.880  1.1041  2.5969 -0.8652
  125CHL1  H26B15505   4.211   5.024   4.717  3.3207  0.5600  3.1075
  125CHL1  H26C15506   4.057   4.955   4.745 -0.5781 -2.1008 -0.1946
  125CHL1   C2715507   4.161   4.685   4.797  0.2465 -1.2142  0.0550
  125CHL1  H27A15508   4.213   4.592   4.764  1.0513 -0.0352 -2.2816
  125CHL1  H27B15509   4.169   4.702   4.906  1.3289  0.8962 -0.2927
  125CHL1  H27C15510   4.056   4.689   4.761 -0.1370 -0.7882  1.1971
  126CHL1    C315511   4.200   5.627   3.471 -0.2508  0.4003  0.2267
  126CHL1    H315512   4.143   5.533   3.493  0.5328  0.2010  1.5284
  126CHL1    O315513   4.194   5.653   3.334 -0.0235  0.1634  0.6634
  126CHL1   H3'15514   4.224   5.743   3.322 -0.0142 -0.0706 -1.6521
  126CHL1    C415515   4.129   5.737   3.542  0.7225 -0.0418  0.0307
  126CHL1   H4A15516   4.167   5.839   3.519 -0.5806  0.8024  1.4053
  126CHL1   H4B15517   4.022   5.752   3.515  0.8408  1.6070  0.3276
  126CHL1    C515518   4.122   5.725   3.695 -0.0585  0.0327 -0.2029
  126CHL1    C615519   4.008   5.751   3.765 -0.0276 -0.0680  0.3884
  126CHL1    H615520   3.920   5.790   3.712  0.7743  2.2860  0.6652
  126CHL1    C715521   3.998   5.731   3.910 -0.2741  0.1876  0.2242
  126CHL1   H7A15522   3.956   5.820   3.962  0.9248  2.3163 -2.2141
  126CHL1   H7B15523   3.926   5.651   3.936 -0.5397  0.7778  1.3652
  126CHL1    C815524   4.129   5.698   3.988 -0.4351 -0.2149  0.4926
  126CHL1    H815525   4.178   5.797   4.006  1.8209 -1.1722 -0.0119
  126CHL1   C1415526   4.110   5.625   4.121  0.1687 -0.6343 -0.3851
  126CHL1   H1415527   4.061   5.528   4.096  2.6080 -1.9648 -0.2701
  126CHL1   C1515528   4.006   5.672   4.219  0.3912  0.0751  0.0491
  126CHL1  H15A15529   3.988   5.782   4.228  0.5443  0.0788  0.3394
  126CHL1  H15B15530   3.913   5.630   4.174  0.4329  0.7094 -0.6457
  126CHL1   C1615531   4.040   5.602   4.350  0.3964  0.4043 -0.4892
  126CHL1  H16A15532   4.064   5.677   4.429  0.1647  0.6671 -0.6644
  126CHL1  H16B15533   3.954   5.543   4.387  1.6596 -2.9695 -2.4871
  126CHL1   C1715534   4.164   5.516   4.315 -0.5789  0.2624  0.3457
  126CHL1   H1715535   4.127   5.421   4.270 -1.5622  0.3820  0.8874
  126CHL1   C1315536   4.236   5.592   4.201 -0.2287 -0.0259  0.2352
  126CHL1   C1815537   4.302   5.718   4.258  0.1835  0.2223  0.2593
  126CHL1  H18A15538   4.238   5.782   4.323  0.3245  0.2334  0.3847
  126CHL1  H18B15539   4.395   5.697   4.314  0.7317  1.4636 -0.1540
  126CHL1  H18C15540   4.337   5.786   4.177 -0.5437  1.0180  0.5926
  126CHL1   C1215541   4.349   5.531   4.118  0.4496  0.1161  0.1590
  126CHL1  H12A15542   4.448   5.536   4.170 -0.2104  0.3497  1.4294
  126CHL1  H12B15543   4.318   5.425   4.122 -3.2656  1.0571 -0.6401
  126CHL1   C1115544   4.358   5.592   3.983  0.4071 -0.0227  0.4851
  126CHL1  H11A15545   4.403   5.692   4.001  1.5469 -0.4511  0.1578
  126CHL1  H11B15546   4.428   5.537   3.917 -0.1734  1.6425 -1.6062
  126CHL1    C915547   4.227   5.617   3.900  0.3428 -0.0950 -0.4728
  126CHL1    H915548   4.193   5.512   3.889 -0.1198  0.0615 -0.5838
  126CHL1   C1015549   4.255   5.674   3.763 -0.4097 -0.5228  0.1051
  126CHL1   C1915550   4.337   5.799   3.776 -0.2670 -0.4781 -0.0773
  126CHL1  H19A15551   4.361   5.843   3.678  1.2817  1.2405  1.0220
  126CHL1  H19B15552   4.283   5.873   3.839 -0.2602 -1.5279  1.2375
  126CHL1  H19C15553   4.436   5.781   3.823 -0.5192  0.0225  0.6601
  126CHL1    C115554   4.338   5.572   3.675  0.2371 -0.3532  0.2091
  126CHL1   H1A15555   4.440   5.575   3.720  0.6899 -1.4188 -0.6915
  126CHL1   H1B15556   4.295   5.470   3.687 -2.5908  0.8748  1.1631
  126CHL1    C215557   4.342   5.612   3.524 -0.4162 -0.4157 -0.1790
  126CHL1   H2A15558   4.397   5.532   3.470  0.4497  0.6109 -0.8562
  126CHL1   H2B15559   4.389   5.710   3.499 -1.4103 -0.3299 -1.8304
  126CHL1   C2015560   4.242   5.471   4.444  0.4075 -0.6407  0.6497
  126CHL1   H2015561   4.287   5.558   4.496 -0.4672  0.1249  0.1525
  126CHL1   C2115562   4.351   5.372   4.406  0.5591 -0.3808  0.2046
  126CHL1  H21A15563   4.417   5.435   4.342 -0.3015  1.3557  0.9901
  126CHL1  H21B15564   4.313   5.280   4.355  1.0181 -1.0176  0.9788
  126CHL1  H21C15565   4.411   5.333   4.491 -2.2487  0.6804  2.8292
  126CHL1   C2215566   4.159   5.421   4.560 -0.0641 -0.1474 -0.7123
  126CHL1  H22A15567   4.081   5.496   4.585  1.7566  1.6787 -0.1524
  126CHL1  H22B15568   4.103   5.328   4.536 -3.9307  1.2984  1.7453
  126CHL1   C2315569   4.238   5.398   4.683 -0.6946 -0.4251  0.0669
  126CHL1  H23A15570   4.281   5.295   4.682  0.0447 -0.1852 -3.1869
  126CHL1  H23B15571   4.325   5.466   4.688  1.1112 -2.5785 -0.4832
  126CHL1   C2415572   4.152   5.417   4.810 -0.1339 -0.4733 -0.2587
  126CHL1  H24A15573   4.100   5.514   4.795 -2.7939 -1.8410 -0.3576
  126CHL1  H24B15574   4.064   5.349   4.806 -0.7511  0.3793 -2.4470
  126CHL1   C2515575   4.211   5.403   4.949  0.3094  0.2631 -0.1967
  126CHL1   H2515576   4.239   5.296   4.961 -1.7116 -0.6041 -2.3938
  126CHL1   C2615577   4.332   5.492   4.963  0.5207  0.2085 -0.0656
  126CHL1  H26A15578   4.373   5.467   5.064 -1.7040 -2.0019  0.3723
  126CHL1  H26B15579   4.411   5.471   4.888 -0.1044 -1.6549 -0.2337
  126CHL1  H26C15580   4.295   5.595   4.941  1.4264  0.8533  1.2338
  126CHL1   C2715581   4.109   5.442   5.058  0.1264  0.2006  0.7515
  126CHL1  H27A15582   4.163   5.411   5.149  0.5625 -1.0015  0.1034
  126CHL1  H27B15583   4.098   5.553   5.056  1.1764  0.3094 -0.8202
  126CHL1  H27C15584   4.014   5.386   5.040 -0.9524  1.6470  1.6545
  127CHL1    C315585   2.863   7.131   3.188  0.6738  0.7826 -0.7640
  127CHL1    H315586   2.794   7.216   3.203 -1.0174 -0.9572  2.3586
  127CHL1    O315587   2.889   7.137   3.053 -0.5210 -0.1831  0.1198
  127CHL1   H3'15588   2.831   7.071   3.014 -0.7400 -1.4708  2.4452
  127CHL1    C415589   2.991   7.145   3.275 -0.2159  0.3810  0.0847
  127CHL1   H4A15590   3.067   7.077   3.230 -0.7374  0.9692 -1.7483
  127CHL1   H4B15591   3.034   7.244   3.252  1.3521 -0.8145 -2.5700
  127CHL1    C515592   2.960   7.111   3.417  0.4065 -0.9134 -0.3121
  127CHL1    C615593   2.986   7.201   3.518 -0.0197  0.0665 -0.0233
  127CHL1    H615594   3.024   7.301   3.490 -2.2299  0.5887 -1.4366
  127CHL1    C715595   2.989   7.178   3.659 -0.3937  0.2458 -0.4446
  127CHL1   H7A15596   3.083   7.217   3.703 -0.6718  0.9037 -0.4183
  127CHL1   H7B15597   2.903   7.232   3.705 -0.9322 -0.3673 -0.7078
  127CHL1    C815598   2.973   7.026   3.683 -0.1130 -0.2588  0.0138
  127CHL1    H815599   3.075   6.984   3.669  0.7638  2.2000 -1.5930
  127CHL1   C1415600   2.934   7.010   3.825  0.0950  0.7291 -0.2186
  127CHL1   H1415601   2.840   7.068   3.838 -1.5030 -1.5948 -0.7945
  127CHL1   C1515602   3.022   7.072   3.936 -0.0853  0.2108 -0.0329
  127CHL1  H15A15603   3.124   7.029   3.923  0.7822  1.6019  1.6918
  127CHL1  H15B15604   3.035   7.182   3.930  0.0849  0.2301  0.5726
  127CHL1   C1615605   2.967   7.025   4.066 -0.1774 -0.1420 -0.0640
  127CHL1  H16A15606   3.048   6.986   4.131  0.3794  0.8177 -0.1602
  127CHL1  H16B15607   2.912   7.106   4.120  0.7274 -1.2567  2.7399
  127CHL1   C1715608   2.864   6.914   4.028  0.2741 -0.0732 -0.2539
  127CHL1   H1715609   2.761   6.955   4.024  0.2101 -0.2398 -0.3018
  127CHL1   C1315610   2.900   6.875   3.876  0.3367  0.1052 -0.4485
  127CHL1   C1815611   3.013   6.769   3.882 -0.0186 -0.9015 -0.1515
  127CHL1  H18A15612   3.079   6.782   3.970  0.6167  0.3181 -0.7756
  127CHL1  H18B15613   2.966   6.669   3.893 -0.4211 -1.3147 -4.0174
  127CHL1  H18C15614   3.074   6.764   3.789 -0.9152 -0.5174 -0.7714
  127CHL1   C1215615   2.788   6.818   3.788 -0.2093 -0.4223 -0.6500
  127CHL1  H12A15616   2.784   6.711   3.815 -0.1615  0.0172  1.2257
  127CHL1  H12B15617   2.689   6.863   3.812  0.4086  1.7781 -1.9561
  127CHL1   C1115618   2.830   6.818   3.642  0.5941 -0.1094  0.9474
  127CHL1  H11A15619   2.916   6.749   3.627 -1.4740 -2.7424  0.5090
  127CHL1  H11B15620   2.745   6.783   3.580  0.0584  0.6714  1.2313
  127CHL1    C915621   2.865   6.963   3.594  0.2392  0.6055 -0.1058
  127CHL1    H915622   2.771   7.016   3.622 -0.1777 -0.1409 -0.0490
  127CHL1   C1015623   2.896   6.980   3.442 -0.1683 -0.7038 -0.6550
  127CHL1   C1915624   2.994   6.873   3.400  0.1510 -0.1606  0.4091
  127CHL1  H19A15625   2.941   6.776   3.387  0.2837  0.0634 -2.5400
  127CHL1  H19B15626   3.032   6.881   3.296 -0.9791 -3.2965 -0.3472
  127CHL1  H19C15627   3.064   6.838   3.479  1.2975  0.1713 -0.4235
  127CHL1    C115628   2.771   6.976   3.359  0.6689 -0.3861  0.0686
  127CHL1   H1A15629   2.718   6.879   3.365 -0.4025  0.2220  0.6656
  127CHL1   H1B15630   2.696   7.052   3.388 -0.5567 -1.3304 -0.5412
  127CHL1    C215631   2.793   6.998   3.216 -0.0051  0.4336  0.1664
  127CHL1   H2A15632   2.694   7.000   3.166 -0.5573 -1.3021  1.1326
  127CHL1   H2B15633   2.842   6.916   3.160 -1.6099  0.7569 -1.8367
  127CHL1   C2015634   2.859   6.809   4.135  0.1874 -0.0844  0.0791
  127CHL1   H2015635   2.958   6.762   4.153 -0.8590 -2.2679  0.5249
  127CHL1   C2115636   2.741   6.702   4.097 -0.2004 -0.3997 -0.2166
  127CHL1  H21A15637   2.648   6.762   4.086  1.3278  1.9723 -1.0947
  127CHL1  H21B15638   2.739   6.627   4.179  1.7098 -0.2455  0.0064
  127CHL1  H21C15639   2.760   6.643   4.006 -3.9493  0.4146 -1.7093
  127CHL1   C2215640   2.832   6.864   4.279 -0.9699  0.0966 -0.6375
  127CHL1  H22A15641   2.915   6.936   4.297 -0.8238 -0.3106  0.3697
  127CHL1  H22B15642   2.734   6.916   4.284 -1.0974 -0.0657 -1.4417
  127CHL1   C2315643   2.851   6.760   4.392  0.3702 -0.0451  0.2336
  127CHL1  H23A15644   2.769   6.685   4.389  1.9993 -1.8991 -0.0063
  127CHL1  H23B15645   2.947   6.705   4.383  0.5559  0.2850  0.1573
  127CHL1   C2415646   2.852   6.844   4.522  0.4217 -0.2711  0.3651
  127CHL1  H24A15647   2.952   6.892   4.526  1.7972 -2.7410 -1.4775
  127CHL1  H24B15648   2.770   6.919   4.523  0.8504  0.2092  0.0299
  127CHL1   C2515649   2.844   6.761   4.649  0.5064  0.2601 -0.0290
  127CHL1   H2515650   2.752   6.699   4.653  1.2960 -0.8886  0.8620
  127CHL1   C2615651   2.966   6.670   4.665 -0.9429  0.3880  0.0041
  127CHL1  H26A15652   2.961   6.615   4.762  4.3226 -2.3758 -0.9263
  127CHL1  H26B15653   2.978   6.602   4.578  0.8375 -0.2056  0.6567
  127CHL1  H26C15654   3.059   6.730   4.677  0.8171 -2.2361  0.5384
  127CHL1   C2715655   2.840   6.850   4.778 -0.2127  0.2111 -0.2333
  127CHL1  H27A15656   2.834   6.789   4.871 -0.1918 -0.0243 -0.3855
  127CHL1  H27B15657   2.931   6.915   4.777  0.0817 -0.1952 -0.3426
  127CHL1  H27C15658   2.755   6.921   4.776  0.1423  0.6206 -1.2272
  128CHL1    C315659   2.655   1.199   3.389  0.4593 -0.0245  0.6522
  128CHL1    H315660   2.746   1.142   3.418  1.0142 -0.1827 -1.2395
  128CHL1    O315661   2.632   1.189   3.245 -0.8280  0.2222 -0.1725
  128CHL1   H3'15662   2.576   1.266   3.233 -0.6147  1.0180  3.0269
  128CHL1    C415663   2.526   1.147   3.459 -0.3976 -0.2727  0.0040
  128CHL1   H4A15664   2.436   1.197   3.417  0.0852  0.2825 -0.3913
  128CHL1   H4B15665   2.523   1.039   3.432  1.7125 -0.4977  0.4621
  128CHL1    C515666   2.528   1.174   3.607 -0.7123 -0.1273 -0.0028
  128CHL1    C615667   2.512   1.070   3.690  0.1811  0.1214  0.0675
  128CHL1    H615668   2.496   0.977   3.633  1.5416  2.2519 -4.1552
  128CHL1    C715669   2.523   1.068   3.839  0.2309 -0.4999  0.8326
  128CHL1   H7A15670   2.446   1.001   3.883 -1.5649 -0.4590 -1.9489
  128CHL1   H7B15671   2.624   1.029   3.860 -0.0436 -1.5782  0.2130
  128CHL1    C815672   2.499   1.214   3.885 -0.0295 -0.0843  0.4167
  128CHL1    H815673   2.390   1.230   3.880  0.2735  2.0508 -0.3659
  128CHL1   C1415674   2.537   1.219   4.038  0.4971 -0.2163 -0.0488
  128CHL1   H1415675   2.645   1.203   4.058  0.0095 -1.9925  1.3193
  128CHL1   C1515676   2.471   1.114   4.132 -0.3488  0.4243 -0.0953
  128CHL1  H15A15677   2.366   1.106   4.098 -0.5800  0.8236  0.5029
  128CHL1  H15B15678   2.514   1.012   4.123  0.1830  0.5798  0.5695
  128CHL1   C1615679   2.499   1.177   4.272 -0.8043  0.3447 -0.0731
  128CHL1  H16A15680   2.415   1.162   4.343 -0.7398 -0.4020 -0.1442
  128CHL1  H16B15681   2.579   1.112   4.313 -1.5425 -0.5507 -0.0272
  128CHL1   C1715682   2.550   1.324   4.248 -0.0638 -0.3700  0.0671
  128CHL1   H1715683   2.660   1.309   4.247 -0.1664 -2.1980 -4.0500
  128CHL1   C1315684   2.515   1.359   4.101 -0.5810 -0.2752  0.3377
  128CHL1   C1815685   2.367   1.395   4.092  0.6582  0.3502 -0.1120
  128CHL1  H18A15686   2.333   1.379   3.988 -0.5812 -1.3963  0.5121
  128CHL1  H18B15687   2.322   1.332   4.172  1.9103 -1.3598 -0.7147
  128CHL1  H18C15688   2.347   1.504   4.101 -0.1146  0.3965 -1.9388
  128CHL1   C1215689   2.601   1.463   4.027 -0.1188  0.3677 -0.1789
  128CHL1  H12A15690   2.571   1.561   4.071  2.3299  1.2352 -0.2603
  128CHL1  H12B15691   2.709   1.457   4.053 -0.4553 -1.1299  1.0124
  128CHL1   C1115692   2.582   1.464   3.871 -0.0025  0.1109  0.2627
  128CHL1  H11A15693   2.483   1.512   3.859  0.0595  0.1327 -0.1558
  128CHL1  H11B15694   2.663   1.527   3.828  0.1893  0.3543  0.9712
  128CHL1    C915695   2.580   1.319   3.808 -0.4639 -0.5769 -0.1396
  128CHL1    H915696   2.685   1.285   3.824  0.6629  2.5790 -0.0545
  128CHL1   C1015697   2.554   1.314   3.658 -0.1303 -0.3458 -0.4481
  128CHL1   C1915698   2.433   1.401   3.624 -0.7870  0.5727 -0.0009
  128CHL1  H19A15699   2.404   1.395   3.517  1.0245  2.9317 -0.7075
  128CHL1  H19B15700   2.344   1.363   3.678 -1.2216  1.3360 -0.1665
  128CHL1  H19C15701   2.446   1.510   3.640  1.5687  0.2705  0.5200
  128CHL1    C115702   2.672   1.361   3.578  0.1627 -0.2032 -0.4926
  128CHL1   H1A15703   2.681   1.472   3.588  3.1192 -0.2947 -1.1957
  128CHL1   H1B15704   2.769   1.320   3.614  0.4635 -1.3869 -2.4840
  128CHL1    C215705   2.661   1.341   3.422 -0.0726  0.4761  0.2472
  128CHL1   H2A15706   2.745   1.391   3.370 -0.1113  0.8984  0.5876
  128CHL1   H2B15707   2.564   1.388   3.395 -1.1263 -0.4467  2.2285
  128CHL1   C2015708   2.518   1.427   4.356  0.0978  0.2534  0.4851
  128CHL1   H2015709   2.419   1.474   4.339  0.7708  1.9647  1.0985
  128CHL1   C2115710   2.618   1.537   4.359  0.0076 -0.4831 -0.5511
  128CHL1  H21A15711   2.604   1.601   4.449 -0.2103 -2.0101  0.5389
  128CHL1  H21B15712   2.613   1.604   4.271 -0.0020  2.0003  1.2417
  128CHL1  H21C15713   2.721   1.495   4.363 -0.1996 -0.9130  2.7352
  128CHL1   C2215714   2.511   1.376   4.505  0.1900 -0.7540 -0.2168
  128CHL1  H22A15715   2.478   1.271   4.490 -0.2211 -0.3970 -1.9637
  128CHL1  H22B15716   2.612   1.380   4.551  0.3996 -0.0448 -0.7279
  128CHL1   C2315717   2.396   1.444   4.592  0.0311  0.4431  0.4464
  128CHL1  H23A15718   2.414   1.546   4.632 -3.8630  1.3606  0.2000
  128CHL1  H23B15719   2.309   1.431   4.524  0.2708  0.5464  0.1206
  128CHL1   C2415720   2.356   1.354   4.715  0.0643  0.2386 -0.5217
  128CHL1  H24A15721   2.344   1.246   4.692  0.6879 -0.4894  2.1505
  128CHL1  H24B15722   2.445   1.354   4.782  0.6547 -0.9475 -1.2697
  128CHL1   C2515723   2.231   1.405   4.787  0.0319 -0.7400  0.2935
  128CHL1   H2515724   2.248   1.512   4.812  1.9672 -1.2723  1.5870
  128CHL1   C2615725   2.101   1.394   4.696  0.7323 -0.8736  0.4205
  128CHL1  H26A15726   2.087   1.287   4.667  0.5070 -1.3100  2.0298
  128CHL1  H26B15727   2.016   1.429   4.758  0.9044  1.1405 -0.4093
  128CHL1  H26C15728   2.114   1.452   4.602  0.2981 -0.2879  0.7213
  128CHL1   C2715729   2.210   1.328   4.917 -0.1788 -0.0493  0.2402
  128CHL1  H27A15730   2.211   1.221   4.890  0.4501  0.6461 -2.8871
  128CHL1  H27B15731   2.297   1.347   4.983 -0.5777  0.9911  0.5048
  128CHL1  H27C15732   2.110   1.351   4.961 -1.7211 -2.5215 -1.6745
  129CHL1    C315733   5.392   7.633   3.513 -0.2365  0.5200  0.6214
  129CHL1    H315734   5.287   7.639   3.480  0.7725  1.6644 -2.7530
  129CHL1    O315735   5.465   7.598   3.399 -0.0784 -0.0277  0.0122
  129CHL1   H3'15736   5.538   7.552   3.441 -1.8006 -0.7624  2.4475
  129CHL1    C415737   5.435   7.773   3.549 -0.2024  0.3352 -0.2846
  129CHL1   H4A15738   5.546   7.772   3.545  0.1280 -1.1112  4.0969
  129CHL1   H4B15739   5.402   7.846   3.472 -1.9518  1.0555  1.0695
  129CHL1    C515740   5.380   7.809   3.683  0.2035  0.4288 -0.1376
  129CHL1    C615741   5.290   7.913   3.695 -0.6051 -0.1934  0.7492
  129CHL1    H615742   5.273   7.977   3.607  0.8806 -2.3706 -1.2579
  129CHL1    C715743   5.234   7.956   3.824  0.3036 -0.0255  0.2876
  129CHL1   H7A15744   5.244   8.067   3.835 -0.7505 -0.0108  1.2545
  129CHL1   H7B15745   5.125   7.937   3.829  0.5189 -1.3906  0.0014
  129CHL1    C815746   5.310   7.895   3.951 -0.1246  0.4892  0.2597
  129CHL1    H815747   5.413   7.935   3.965 -0.2272  0.5698  0.8130
  129CHL1   C1415748   5.222   7.914   4.074 -0.8375  0.0412 -1.0260
  129CHL1   H1415749   5.125   7.862   4.055 -0.8303  0.2042 -1.5152
  129CHL1   C1515750   5.179   8.058   4.106 -0.0716 -0.4633  0.3452
  129CHL1  H15A15751   5.257   8.134   4.125 -0.8649 -0.0004  1.9031
  129CHL1  H15B15752   5.093   8.096   4.046 -1.4688  1.3973  3.3182
  129CHL1   C1615753   5.127   8.044   4.249  0.2878 -0.7154 -0.3504
  129CHL1  H16A15754   5.169   8.124   4.314 -1.3700  1.2784 -1.5731
  129CHL1  H16B15755   5.019   8.069   4.250  0.5838  1.0726 -2.7244
  129CHL1   C1715756   5.156   7.903   4.298 -0.1545  0.0701 -0.3331
  129CHL1   H1715757   5.063   7.848   4.276 -1.3303  2.8303 -3.0865
  129CHL1   C1315758   5.265   7.845   4.210  0.3583  0.5033  0.6788
  129CHL1   C1815759   5.404   7.902   4.243 -0.0094  0.2386 -0.1209
  129CHL1  H18A15760   5.458   7.842   4.319 -2.0340  0.3687  1.4700
  129CHL1  H18B15761   5.466   7.919   4.152  0.7319 -0.9105  0.1515
  129CHL1  H18C15762   5.396   8.005   4.285 -2.1430 -0.0130  0.1620
  129CHL1   C1215763   5.269   7.691   4.176  0.0384  0.4192 -0.1277
  129CHL1  H12A15764   5.312   7.641   4.265 -0.7371  1.4116  0.8320
  129CHL1  H12B15765   5.166   7.655   4.153  0.5341 -0.8550 -0.4252
  129CHL1   C1115766   5.361   7.663   4.056 -0.5351  0.5071  0.0258
  129CHL1  H11A15767   5.462   7.705   4.071 -0.4697 -0.6089  3.6357
  129CHL1  H11B15768   5.378   7.556   4.033  0.8166  0.7658 -0.2194
  129CHL1    C915769   5.316   7.744   3.922 -0.1376 -0.2416 -0.1585
  129CHL1    H915770   5.213   7.709   3.901 -1.8311  2.9884  2.1305
  129CHL1   C1015771   5.410   7.711   3.799 -0.1758  0.1873  1.0606
  129CHL1   C1915772   5.557   7.726   3.831 -1.3007 -0.1204  0.2760
  129CHL1  H19A15773   5.618   7.724   3.738 -1.1920  0.6571  0.3269
  129CHL1  H19B15774   5.581   7.828   3.866  0.8928 -0.7811  0.8123
  129CHL1  H19C15775   5.585   7.650   3.906  0.3014  1.0882  0.9359
  129CHL1    C115776   5.372   7.569   3.754  0.0638  0.1115  0.2025
  129CHL1   H1A15777   5.424   7.509   3.832  1.6467  1.0873 -0.0631
  129CHL1   H1B15778   5.264   7.563   3.776  0.4124  0.1479  2.0634
  129CHL1    C215779   5.420   7.524   3.613 -0.1757  0.4374  0.1894
  129CHL1   H2A15780   5.384   7.423   3.585  0.8046  0.1393 -0.0403
  129CHL1   H2B15781   5.530   7.513   3.613 -0.2709 -0.7058  1.4850
  129CHL1   C2015782   5.167   7.896   4.452  0.5274  0.3263 -0.5052
  129CHL1   H2015783   5.260   7.940   4.496  0.0024  0.9351  0.0100
  129CHL1   C2115784   5.184   7.751   4.496 -0.5734  0.5431 -0.2208
  129CHL1  H21A15785   5.274   7.704   4.450 -0.4692  1.3197 -0.8159
  129CHL1  H21B15786   5.090   7.693   4.481 -0.3271  0.5662 -2.0246
  129CHL1  H21C15787   5.211   7.755   4.604 -0.8369 -1.5152 -0.0278
  129CHL1   C2215788   5.046   7.965   4.524  0.6449 -0.4708 -0.2337
  129CHL1  H22A15789   5.049   8.074   4.503 -2.3668  0.1012  1.7439
  129CHL1  H22B15790   4.951   7.921   4.485 -0.8843  1.7254  0.8147
  129CHL1   C2315791   5.039   7.952   4.673 -0.2445  0.2702  0.1900
  129CHL1  H23A15792   5.038   7.845   4.705  1.8884 -0.4015 -1.7075
  129CHL1  H23B15793   5.136   7.988   4.715 -0.0668 -0.3801  0.3696
  129CHL1   C2415794   4.918   8.017   4.736 -0.0689  0.0936  0.3751
  129CHL1  H24A15795   4.898   8.120   4.701  0.1414 -0.2321 -0.7372
  129CHL1  H24B15796   4.839   7.957   4.687 -2.2890  2.7390  0.4857
  129CHL1   C2515797   4.925   8.002   4.890  0.1141  0.2435 -0.5483
  129CHL1   H2515798   4.966   7.900   4.904 -0.5351 -0.8092 -4.7836
  129CHL1   C2615799   5.021   8.100   4.954  0.2628  0.2735 -0.0850
  129CHL1  H26A15800   5.117   8.095   4.899 -0.0386  2.7062 -0.9590
  129CHL1  H26B15801   4.969   8.196   4.933 -1.1270 -0.4003  0.2027
  129CHL1  H26C15802   5.025   8.085   5.064 -1.4208 -0.9868 -0.1609
  129CHL1   C2715803   4.782   8.011   4.955 -0.2008 -0.2755 -0.1542
  129CHL1  H27A15804   4.792   8.011   5.066 -1.0604 -0.8544 -0.0726
  129CHL1  H27B15805   4.739   8.102   4.907  0.5834 -0.6891 -1.7119
  129CHL1  H27C15806   4.730   7.917   4.931  1.8428 -1.2987 -0.8639
  130CHL1    C315807   3.057   6.177   3.432 -0.3798 -0.6265 -0.3884
  130CHL1    H315808   3.065   6.069   3.453 -0.9920 -0.7895 -0.9909
  130CHL1    O315809   3.047   6.186   3.295 -0.2093  0.5138 -0.4543
  130CHL1   H3'15810   2.962   6.144   3.279  0.1891 -1.3845  2.0296
  130CHL1    C415811   2.933   6.235   3.503  0.5732  0.2787  0.2952
  130CHL1   H4A15812   2.914   6.339   3.469  1.1521  1.0308  2.1664
  130CHL1   H4B15813   2.846   6.173   3.472  1.5766 -1.5391  0.9715
  130CHL1    C515814   2.948   6.245   3.653  0.3479 -0.4749  0.3646
  130CHL1    C615815   2.858   6.201   3.733  1.0947 -0.2362  0.1689
  130CHL1    H615816   2.772   6.151   3.686  0.6240 -0.1833  0.9500
  130CHL1    C715817   2.863   6.206   3.881  0.1831 -0.1888 -0.8712
  130CHL1   H7A15818   2.764   6.219   3.929  1.3838  0.5586  1.5415
  130CHL1   H7B15819   2.884   6.102   3.914 -1.9555 -1.5114 -3.2938
  130CHL1    C815820   2.966   6.308   3.927  0.4971  0.1842 -0.5813
  130CHL1    H815821   2.930   6.412   3.911 -1.7010 -0.2338  1.0472
  130CHL1   C1415822   2.992   6.277   4.073  0.2481  0.2620 -0.1345
  130CHL1   H1415823   3.038   6.176   4.074  2.0440  1.0290 -0.8504
  130CHL1   C1515824   2.880   6.280   4.169  0.2213  0.2324  0.4500
  130CHL1  H15A15825   2.806   6.362   4.161 -1.3126 -1.2260 -1.1217
  130CHL1  H15B15826   2.825   6.184   4.165  2.1356 -0.8652 -0.6378
  130CHL1   C1615827   2.943   6.284   4.306 -0.0580 -0.0316 -0.0596
  130CHL1  H16A15828   2.907   6.361   4.378 -1.7613  0.7738 -1.6975
  130CHL1  H16B15829   2.943   6.197   4.375  2.5207  0.6961  1.0014
  130CHL1   C1715830   3.096   6.310   4.280 -0.5971  0.0403 -0.1957
  130CHL1   H1715831   3.136   6.207   4.273 -0.4859  0.0265  0.5990
  130CHL1   C1315832   3.101   6.364   4.141 -0.3410  0.1762  0.6258
  130CHL1   C1815833   3.060   6.517   4.142  0.0062 -0.4281  0.3072
  130CHL1  H18A15834   3.154   6.571   4.167  0.2282 -1.2933  1.4451
  130CHL1  H18B15835   3.041   6.553   4.039  3.4967  0.0206 -0.2893
  130CHL1  H18C15836   2.972   6.533   4.208 -1.4563 -4.1366 -0.5091
  130CHL1   C1215837   3.234   6.351   4.067 -0.3826 -0.3605  0.3040
  130CHL1  H12A15838   3.306   6.423   4.113 -2.7126  1.4791  1.2724
  130CHL1  H12B15839   3.278   6.249   4.066 -0.1524 -0.2594 -0.8386
  130CHL1   C1115840   3.208   6.391   3.917  0.4228 -0.1796 -0.6496
  130CHL1  H11A15841   3.174   6.494   3.892  1.0170  0.2843  0.4142
  130CHL1  H11B15842   3.300   6.376   3.856 -0.0356  1.9692 -1.9986
  130CHL1    C915843   3.101   6.296   3.858 -0.6153  0.2439  0.1162
  130CHL1    H915844   3.135   6.192   3.877  2.4383  1.1427  0.0792
  130CHL1   C1015845   3.084   6.308   3.702 -0.3663 -0.0089 -0.2528
  130CHL1   C1915846   3.090   6.460   3.669  0.0526  0.2722  0.2233
  130CHL1  H19A15847   3.029   6.515   3.744 -1.0819 -1.3841  0.5770
  130CHL1  H19B15848   3.193   6.501   3.671  0.0884  0.2575 -0.8108
  130CHL1  H19C15849   3.037   6.486   3.574  0.1258 -2.6323 -0.6926
  130CHL1    C115850   3.202   6.231   3.633 -0.1208  0.0406 -0.4998
  130CHL1   H1A15851   3.290   6.295   3.655  0.7091 -0.7918 -1.3374
  130CHL1   H1B15852   3.212   6.125   3.664 -0.8849 -0.0024 -0.3844
  130CHL1    C215853   3.193   6.234   3.483  0.0280  0.0997  0.4217
  130CHL1   H2A15854   3.271   6.165   3.444  1.4926  0.4737  2.5136
  130CHL1   H2B15855   3.206   6.335   3.440 -2.1604  1.0305  1.7785
  130CHL1   C2015856   3.174   6.369   4.402  0.8253  0.0615  0.0546
  130CHL1   H2015857   3.139   6.471   4.427  1.2391  0.3100 -0.3806
  130CHL1   C2115858   3.325   6.375   4.375 -0.0305 -0.1587 -0.9247
  130CHL1  H21A15859   3.377   6.364   4.473 -2.0230 -2.2557 -0.0029
  130CHL1  H21B15860   3.361   6.465   4.322  0.1594 -0.1014 -0.6997
  130CHL1  H21C15861   3.359   6.283   4.323  0.7850 -0.4228  0.0412
  130CHL1   C2215862   3.140   6.279   4.520  0.0081 -1.0876 -0.0315
  130CHL1  H22A15863   3.030   6.280   4.541 -0.3159 -1.5454 -1.5847
  130CHL1  H22B15864   3.184   6.178   4.504  1.1386 -1.5539  4.5278
  130CHL1   C2315865   3.182   6.346   4.651  0.1256  0.4967 -0.2311
  130CHL1  H23A15866   3.292   6.354   4.666 -0.0130  0.8772  0.6292
  130CHL1  H23B15867   3.148   6.450   4.667  0.2982  0.2466  2.0988
  130CHL1   C2415868   3.133   6.274   4.781 -0.2184  0.4831  0.5986
  130CHL1  H24A15869   3.025   6.290   4.799 -0.0786  0.2504  1.6675
  130CHL1  H24B15870   3.151   6.165   4.776 -0.1558  0.5044  0.3329
  130CHL1   C2515871   3.186   6.335   4.913 -0.1116 -0.4844  0.3189
  130CHL1   H2515872   3.295   6.356   4.904 -0.7671  2.6178 -1.9812
  130CHL1   C2615873   3.115   6.469   4.942  0.2847  0.5794  0.0653
  130CHL1  H26A15874   3.155   6.513   5.036  2.0404 -2.5949  0.9632
  130CHL1  H26B15875   3.144   6.539   4.862 -1.8757  0.0945 -1.2369
  130CHL1  H26C15876   3.005   6.456   4.950  0.3906 -0.4260  0.0039
  130CHL1   C2715877   3.158   6.244   5.036 -0.1087  0.4204  0.0262
  130CHL1  H27A15878   3.056   6.261   5.077 -1.0995  1.7866 -2.7092
  130CHL1  H27B15879   3.169   6.136   5.013  1.0695  0.8302 -1.5101
  130CHL1  H27C15880   3.229   6.273   5.116  0.1233  1.5878 -0.5726
  131CHL1    C315881   1.132   4.466   3.791 -0.4598 -0.0653  0.1905
  131CHL1    H315882   1.093   4.377   3.845 -2.4822  0.9551  0.4969
  131CHL1    O315883   1.149   4.433   3.654  0.2353 -0.2032 -0.2457
  131CHL1   H3'15884   1.220   4.495   3.635  0.4746  1.0243  3.7282
  131CHL1    C415885   1.027   4.581   3.801 -0.2763 -0.4160  0.3958
  131CHL1   H4A15886   1.061   4.668   3.741  0.5600 -0.9293  0.1137
  131CHL1   H4B15887   0.935   4.540   3.753  2.2987 -1.8295 -3.9587
  131CHL1    C515888   0.999   4.623   3.941  0.6747  0.1964 -0.4849
  131CHL1    C615889   0.882   4.599   4.004 -0.0978  0.1155  0.7844
  131CHL1    H615890   0.799   4.546   3.956  0.6688  0.1797 -0.6659
  131CHL1    C715891   0.854   4.633   4.146 -0.3506 -0.2681 -0.1326
  131CHL1   H7A15892   0.753   4.680   4.148 -0.8595 -1.2901 -0.8403
  131CHL1   H7B15893   0.867   4.540   4.205  1.2259 -1.0414 -1.5833
  131CHL1    C815894   0.958   4.735   4.196 -0.6099  0.3032  0.2137
  131CHL1    H815895   0.934   4.834   4.151 -2.6862 -0.0518  0.4048
  131CHL1   C1415896   0.942   4.754   4.348  0.2341 -0.6410 -0.8129
  131CHL1   H1415897   0.957   4.655   4.396 -0.1760  0.2307  1.1694
  131CHL1   C1515898   0.802   4.797   4.399  0.0380  0.4338 -1.1723
  131CHL1  H15A15899   0.753   4.868   4.329 -0.1207  0.1078 -1.3951
  131CHL1  H15B15900   0.738   4.709   4.422  1.9461 -1.2247 -1.9436
  131CHL1   C1615901   0.835   4.864   4.539 -0.1511  0.3814 -0.1978
  131CHL1  H16A15902   0.803   4.971   4.537 -2.8587 -0.3358  0.5117
  131CHL1  H16B15903   0.786   4.814   4.625  2.4840 -1.6216  0.2334
  131CHL1   C1715904   0.993   4.859   4.554  0.4367 -0.4352  0.0929
  131CHL1   H1715905   1.009   4.761   4.604 -0.3124  0.0711  1.3909
  131CHL1   C1315906   1.048   4.846   4.413  0.4820  0.4123  0.7278
  131CHL1   C1815907   1.038   4.986   4.348 -0.1019 -0.6737  0.0893
  131CHL1  H18A15908   1.037   4.992   4.237 -0.4523  0.5956  0.1421
  131CHL1  H18B15909   0.950   5.046   4.380  0.9041  1.1108 -0.3475
  131CHL1  H18C15910   1.129   5.039   4.385 -0.2061  0.8744 -1.7221
  131CHL1   C1215911   1.185   4.783   4.395  0.5858 -0.1292  0.4341
  131CHL1  H12A15912   1.267   4.838   4.446  1.2238 -0.4776 -0.1918
  131CHL1  H12B15913   1.187   4.685   4.446  1.2765  0.2089  1.0707
  131CHL1   C1115914   1.210   4.760   4.242  0.2856  0.0173 -0.7422
  131CHL1  H11A15915   1.222   4.859   4.194  3.3075 -1.0222 -2.3744
  131CHL1  H11B15916   1.307   4.708   4.232 -0.2065 -0.9096 -0.8279
  131CHL1    C915917   1.100   4.688   4.170 -0.4296 -0.2306  0.2793
  131CHL1    H915918   1.110   4.584   4.207 -1.4078 -1.2774 -2.2365
  131CHL1   C1015919   1.125   4.668   4.014  0.4192 -1.2450  0.1469
  131CHL1   C1915920   1.161   4.799   3.938 -0.3663 -0.1672  0.3258
  131CHL1  H19A15921   1.072   4.866   3.945 -0.6514 -0.4571 -0.5026
  131CHL1  H19B15922   1.248   4.852   3.981 -0.3166  0.7962 -0.9048
  131CHL1  H19C15923   1.183   4.785   3.830  0.3347 -2.8597  0.7463
  131CHL1    C115924   1.240   4.559   3.999 -0.2793  0.7934  0.6107
  131CHL1   H1A15925   1.335   4.600   4.039  0.2226  1.6997 -1.3779
  131CHL1   H1B15926   1.207   4.469   4.054 -1.2777  0.1792 -0.9166
  131CHL1    C215927   1.258   4.515   3.851 -0.7204 -0.8666 -0.2952
  131CHL1   H2A15928   1.335   4.435   3.864  0.4512  0.2341 -0.2074
  131CHL1   H2B15929   1.298   4.600   3.792 -1.2195 -1.0558 -0.9201
  131CHL1   C2015930   1.034   4.988   4.640  0.1102 -0.8479 -0.2301
  131CHL1   H2015931   0.988   5.070   4.581 -1.3894 -0.5018  1.3454
  131CHL1   C2115932   1.191   4.984   4.662  0.0258 -0.6255 -0.1452
  131CHL1  H21A15933   1.237   4.995   4.561 -1.5247 -0.5230 -0.8636
  131CHL1  H21B15934   1.220   4.888   4.709  0.2274 -1.1692 -1.3516
  131CHL1  H21C15935   1.216   5.070   4.728  0.8864 -2.0283  1.4597
  131CHL1   C2215936   0.964   4.996   4.778  0.5624  0.3300 -0.0131
  131CHL1  H22A15937   0.854   5.007   4.766  0.8482  3.1337 -0.8951
  131CHL1  H22B15938   0.981   4.904   4.837  0.0946 -0.7072 -1.4338
  131CHL1   C2315939   0.995   5.115   4.867 -0.3085  0.7521  0.6318
  131CHL1  H23A15940   1.103   5.137   4.874 -0.2128  1.4971 -2.0954
  131CHL1  H23B15941   0.957   5.203   4.810  0.6301  0.8024  0.0682
  131CHL1   C2415942   0.950   5.093   5.009 -0.2098 -0.2873 -0.6867
  131CHL1  H24A15943   0.986   4.998   5.053 -0.2673  0.7453  1.7122
  131CHL1  H24B15944   0.989   5.176   5.071 -0.9487  0.5320 -1.2967
  131CHL1   C2515945   0.797   5.091   5.031 -0.6507  0.2184  0.2048
  131CHL1   H2515946   0.749   5.004   4.981 -2.0442 -0.0961  1.9592
  131CHL1   C2615947   0.759   5.077   5.181 -0.0658  0.3725  0.2400
  131CHL1  H26A15948   0.649   5.071   5.187 -0.0708  1.0974  1.0815
  131CHL1  H26B15949   0.809   4.982   5.210  0.1991  0.4258 -0.0346
  131CHL1  H26C15950   0.807   5.157   5.242 -1.5371  2.6129 -1.4120
  131CHL1   C2715951   0.716   5.209   4.963 -0.9544 -0.3810  0.3896
  131CHL1  H27A15952   0.608   5.216   4.988 -0.5742 -0.9271  2.3620
  131CHL1  H27B15953   0.772   5.301   4.991  0.6903 -1.1226 -0.3748
  131CHL1  H27C15954   0.726   5.199   4.853  0.6741  1.0451  0.3662
  132CHL1    C315955   2.502   7.292   3.259  0.5798 -0.6200  0.1517
  132CHL1    H315956   2.573   7.210   3.234  0.7375 -1.1453  2.1043
  132CHL1    O315957   2.458   7.338   3.134 -0.4858 -0.3962  0.3911
  132CHL1   H3'15958   2.369   7.367   3.153 -0.7108 -2.0043  2.1283
  132CHL1    C415959   2.377   7.246   3.342  0.2695 -1.1620 -0.8282
  132CHL1   H4A15960   2.301   7.326   3.335 -0.6219 -1.7627  1.1423
  132CHL1   H4B15961   2.333   7.151   3.305  1.0342 -2.1426  0.6354
  132CHL1    C515962   2.428   7.231   3.485  0.3589  0.0023 -0.0361
  132CHL1    C615963   2.406   7.123   3.560  0.1802 -0.0898  0.0078
  132CHL1    H615964   2.346   7.042   3.515 -0.0257 -0.9546  1.7413
  132CHL1    C715965   2.446   7.099   3.706  0.1633 -0.4940 -0.0524
  132CHL1   H7A15966   2.362   7.043   3.752  0.1512  1.1782  2.1403
  132CHL1   H7B15967   2.536   7.034   3.711 -0.9209 -1.9483  2.0809
  132CHL1    C815968   2.478   7.229   3.776  0.2394 -0.3028 -0.2044
  132CHL1    H815969   2.389   7.291   3.799  2.3939  3.0622 -0.2232
  132CHL1   C1415970   2.541   7.200   3.916 -0.0236 -0.2086 -0.2582
  132CHL1   H1415971   2.641   7.154   3.896  0.8346  0.8858  1.2892
  132CHL1   C1515972   2.484   7.096   4.017  0.6292 -0.2243  0.4945
  132CHL1  H15A15973   2.373   7.098   4.005  0.5615 -1.5932  0.7066
  132CHL1  H15B15974   2.519   6.993   3.996 -2.2178 -1.1863  0.0560
  132CHL1   C1615975   2.534   7.145   4.152  0.2593  0.5521 -0.3435
  132CHL1  H16A15976   2.448   7.184   4.211 -0.4004 -1.4573  0.1150
  132CHL1  H16B15977   2.590   7.069   4.209 -2.7124 -1.0821  0.6443
  132CHL1   C1715978   2.636   7.253   4.121 -0.1677 -0.5101 -1.5897
  132CHL1   H1715979   2.731   7.210   4.082  0.8347 -2.0685  2.0929
  132CHL1   C1315980   2.581   7.327   3.995  0.0676  1.1891 -0.4061
  132CHL1   C1815981   2.457   7.403   4.034 -0.0590 -0.4197 -0.0257
  132CHL1  H18A15982   2.498   7.494   4.084 -0.9036 -0.5235  0.8932
  132CHL1  H18B15983   2.401   7.439   3.945 -1.0658 -0.1281  0.7053
  132CHL1  H18C15984   2.384   7.356   4.103 -0.0913  0.7514  0.7781
  132CHL1   C1215985   2.677   7.408   3.915 -0.3347 -0.3108  0.6426
  132CHL1  H12A15986   2.695   7.507   3.963  1.3206 -0.2211 -0.0999
  132CHL1  H12B15987   2.774   7.356   3.905 -0.9907 -1.2624 -1.2502
  132CHL1   C1115988   2.622   7.435   3.774  0.2207  0.2323 -0.4620
  132CHL1  H11A15989   2.539   7.507   3.789  0.7753  1.3205 -2.3367
  132CHL1  H11B15990   2.699   7.491   3.716  2.2601 -0.4698  1.4029
  132CHL1    C915991   2.573   7.314   3.699 -0.0120  0.9618 -0.3350
  132CHL1    H915992   2.658   7.245   3.682 -1.2476  0.1358 -3.8627
  132CHL1   C1015993   2.514   7.349   3.561  0.7926  0.3753 -0.0111
  132CHL1   C1915994   2.415   7.469   3.567  0.0311 -0.7362 -0.3269
  132CHL1  H19A15995   2.326   7.438   3.626 -0.0166 -0.5854 -0.3200
  132CHL1  H19B15996   2.462   7.551   3.626 -0.4167 -1.0298  0.4488
  132CHL1  H19C15997   2.385   7.507   3.467  1.7222 -1.2923 -1.0868
  132CHL1    C115998   2.634   7.379   3.468 -0.2511  0.0563  0.1488
  132CHL1   H1A15999   2.690   7.468   3.504 -1.9175  0.5851  1.5629
  132CHL1   H1B16000   2.708   7.295   3.468  1.0877  1.1601 -1.8882
  132CHL1    C216001   2.589   7.407   3.319 -0.3533 -0.5038  0.1576
  132CHL1   H2A16002   2.671   7.439   3.251 -0.7822  1.6778  0.5917
  132CHL1   H2B16003   2.531   7.501   3.311 -2.0557 -1.4131  1.3444
  132CHL1   C2016004   2.657   7.336   4.249 -0.4701 -0.4510 -0.6286
  132CHL1   H2016005   2.568   7.403   4.252 -0.1899 -0.0953  0.3914
  132CHL1   C2116006   2.789   7.416   4.237  0.0214  0.2446  0.3973
  132CHL1  H21A16007   2.817   7.471   4.329  1.5374  0.3811 -0.1248
  132CHL1  H21B16008   2.774   7.492   4.157  1.0866 -1.9152 -2.0010
  132CHL1  H21C16009   2.874   7.351   4.209  0.1437  0.4207  0.3590
  132CHL1   C2216010   2.652   7.264   4.383 -1.0336 -0.7678 -0.1817
  132CHL1  H22A16011   2.567   7.195   4.403 -2.5612  0.9101 -0.7012
  132CHL1  H22B16012   2.746   7.207   4.404 -1.4379 -1.2514  0.3340
  132CHL1   C2316013   2.632   7.357   4.505 -0.7826 -0.3934 -0.2736
  132CHL1  H23A16014   2.644   7.287   4.590  2.3531 -0.0657 -0.3186
  132CHL1  H23B16015   2.722   7.422   4.517 -0.6641 -0.7641  1.0522
  132CHL1   C2416016   2.505   7.446   4.519  0.3354 -0.6515  0.4177
  132CHL1  H24A16017   2.502   7.508   4.428  1.0952  0.2460  0.9842
  132CHL1  H24B16018   2.411   7.388   4.529 -0.9654  1.3679  0.5136
  132CHL1   C2516019   2.491   7.548   4.633 -0.1972  0.5071 -0.4675
  132CHL1   H2516020   2.577   7.618   4.632 -0.2712  0.6112 -0.0482
  132CHL1   C2616021   2.361   7.627   4.627  0.4924  0.4786  0.4087
  132CHL1  H26A16022   2.384   7.722   4.679 -0.0304  1.1335 -0.5248
  132CHL1  H26B16023   2.334   7.648   4.522 -2.9651 -0.1877  1.0393
  132CHL1  H26C16024   2.272   7.589   4.683 -2.4204  1.5495 -3.1208
  132CHL1   C2716025   2.505   7.477   4.772  0.3889 -0.3297  0.7544
  132CHL1  H27A16026   2.409   7.431   4.803 -0.5192  1.1602  0.3061
  132CHL1  H27B16027   2.568   7.386   4.763  0.3059 -0.5017  1.8116
  132CHL1  H27C16028   2.525   7.541   4.861 -1.9764  0.9719  0.4271
  133CHL1    C316029   1.854   1.987   3.683  0.8337 -0.1034  0.5063
  133CHL1    H316030   1.887   1.900   3.623  1.4753  1.4088 -1.4374
  133CHL1    O316031   1.892   2.100   3.602  0.4040 -0.0418 -0.4070
  133CHL1   H3'16032   1.952   2.060   3.538  0.2930 -1.2870  0.2285
  133CHL1    C416033   1.701   1.979   3.696 -0.3375 -0.1810 -0.0408
  133CHL1   H4A16034   1.661   2.070   3.745  1.9819  0.6293  0.4540
  133CHL1   H4B16035   1.655   1.968   3.595 -0.4360 -0.4466  0.0318
  133CHL1    C516036   1.656   1.873   3.792  0.4426  0.6487  0.1182
  133CHL1    C616037   1.575   1.769   3.756  0.0927 -0.6342 -0.4354
  133CHL1    H616038   1.528   1.760   3.657 -0.4243  0.5117 -0.3146
  133CHL1    C716039   1.532   1.662   3.850 -0.4882  0.7439 -0.8271
  133CHL1   H7A16040   1.421   1.655   3.851 -0.4546 -0.7058  1.5523
  133CHL1   H7B16041   1.582   1.570   3.812 -2.1146  0.1847 -1.6867
  133CHL1    C816042   1.573   1.678   3.997 -0.4153  0.5275  0.4722
  133CHL1    H816043   1.501   1.749   4.043 -1.3264 -0.2713  0.3030
  133CHL1   C1416044   1.569   1.542   4.072 -0.4963 -0.1610  0.0226
  133CHL1   H1416045   1.646   1.475   4.026 -0.0631  0.5599 -0.3210
  133CHL1   C1516046   1.443   1.455   4.058  0.2454  0.1217  0.0324
  133CHL1  H15A16047   1.354   1.520   4.064  0.9861  1.1567  0.0321
  133CHL1  H15B16048   1.443   1.403   3.959  4.5556 -0.0606 -0.0565
  133CHL1   C1616049   1.461   1.347   4.165  0.0909 -0.2965 -0.1846
  133CHL1  H16A16050   1.381   1.363   4.241  0.3213 -1.4206  0.3170
  133CHL1  H16B16051   1.464   1.239   4.137 -0.1735  0.2173 -2.4049
  133CHL1   C1716052   1.584   1.386   4.250 -0.3645  0.5773 -0.2829
  133CHL1   H1716053   1.672   1.335   4.204 -1.2659 -0.4216 -0.9603
  133CHL1   C1316054   1.610   1.539   4.219 -0.4927 -0.2392 -0.1643
  133CHL1   C1816055   1.506   1.624   4.293 -0.0572  0.3684 -0.2058
  133CHL1  H18A16056   1.507   1.726   4.249 -0.8384 -0.6508 -2.7781
  133CHL1  H18B16057   1.405   1.581   4.273  0.4977 -0.9934 -0.2004
  133CHL1  H18C16058   1.516   1.625   4.404  1.2893  0.4374 -0.3179
  133CHL1   C1216059   1.755   1.598   4.223  0.2013  0.4419  0.2014
  133CHL1  H12A16060   1.797   1.624   4.323  2.4308  1.4504 -0.9248
  133CHL1  H12B16061   1.822   1.525   4.173  0.4581  0.7460  0.0962
  133CHL1   C1116062   1.775   1.737   4.151 -0.3015  0.0969  0.6114
  133CHL1  H11A16063   1.725   1.811   4.217 -0.6080 -0.2953  0.8253
  133CHL1  H11B16064   1.883   1.762   4.142 -0.2397 -0.5634 -0.7861
  133CHL1    C916065   1.717   1.732   4.010 -0.2719  0.3804 -0.1494
  133CHL1    H916066   1.779   1.662   3.950  2.0687  0.4253  2.0638
  133CHL1   C1016067   1.730   1.867   3.928  0.3898 -0.6577 -0.0326
  133CHL1   C1916068   1.677   1.980   4.016 -0.6154  0.0627  0.5645
  133CHL1  H19A16069   1.672   2.082   3.972  2.3568 -0.5238 -1.3844
  133CHL1  H19B16070   1.575   1.962   4.057 -0.0745 -0.4526  1.7377
  133CHL1  H19C16071   1.750   1.983   4.099  0.4181 -0.4918 -0.3062
  133CHL1    C116072   1.880   1.882   3.910 -0.4748 -0.2478  0.6436
  133CHL1   H1A16073   1.927   1.903   4.009 -1.0866  0.7612  0.7354
  133CHL1   H1B16074   1.925   1.788   3.873  2.5805  0.4209  2.3148
  133CHL1    C216075   1.924   1.997   3.820  0.1405 -0.0471 -0.4182
  133CHL1   H2A16076   2.035   2.008   3.814  0.3129 -0.9235  0.6371
  133CHL1   H2B16077   1.892   2.091   3.868  1.1981  0.0035  0.2221
  133CHL1   C2016078   1.580   1.340   4.398  0.5685 -0.1336  0.0760
  133CHL1   H2016079   1.487   1.373   4.447  1.0204 -0.6255  1.3033
  133CHL1   C2116080   1.694   1.389   4.484  0.2098  0.1059 -0.0921
  133CHL1  H21A16081   1.683   1.498   4.499 -1.3691 -0.3513  2.8153
  133CHL1  H21B16082   1.800   1.369   4.457  0.9821  2.4319  0.9648
  133CHL1  H21C16083   1.692   1.355   4.590  1.3400 -0.2552 -0.1788
  133CHL1   C2216084   1.571   1.185   4.406  0.0786  0.5457  0.8294
  133CHL1  H22A16085   1.472   1.149   4.370 -0.7132  2.3422  1.1366
  133CHL1  H22B16086   1.651   1.144   4.340  0.2191 -1.9899  2.4147
  133CHL1   C2316087   1.587   1.131   4.547 -0.1914 -0.2896 -0.0928
  133CHL1  H23A16088   1.687   1.156   4.590 -1.4328 -0.8266  3.3971
  133CHL1  H23B16089   1.503   1.170   4.609 -1.0929  0.1900 -1.5664
  133CHL1   C2416090   1.576   0.980   4.564  0.6124 -0.0511  0.0338
  133CHL1  H24A16091   1.486   0.960   4.503 -0.1483  1.1975  0.7105
  133CHL1  H24B16092   1.661   0.918   4.528  0.0048 -0.0365 -1.4988
  133CHL1   C2516093   1.547   0.928   4.710  0.1685  0.1569  0.5943
  133CHL1   H2516094   1.465   0.993   4.746  0.3916  0.0950  1.2228
  133CHL1   C2616095   1.482   0.783   4.717  0.0002  0.3184  0.3700
  133CHL1  H26A16096   1.381   0.775   4.672 -0.0935  0.3624  0.5751
  133CHL1  H26B16097   1.551   0.722   4.653 -0.4266  0.2561 -0.0390
  133CHL1  H26C16098   1.479   0.731   4.815  1.7753 -3.1174 -1.2000
  133CHL1   C2716099   1.675   0.926   4.803 -0.1180  0.8638 -0.2765
  133CHL1  H27A16100   1.757   0.989   4.765 -1.9468  3.1301 -0.7076
  133CHL1  H27B16101   1.658   0.966   4.906 -1.9499  0.2857 -0.3151
  133CHL1  H27C16102   1.714   0.826   4.832 -1.8313  0.3022  0.2428
  134CHL1    C316103   0.200   2.274   3.742  0.9447  0.0255  0.0679
  134CHL1    H316104   0.097   2.313   3.748  0.2346 -1.6389 -0.6922
  134CHL1    O316105   0.259   2.307   3.616 -0.0707  0.6703 -0.3529
  134CHL1   H3'16106   0.260   2.403   3.613  0.5758  0.8669  2.7455
  134CHL1    C416107   0.271   2.344   3.857 -0.8210 -0.8307 -0.4687
  134CHL1   H4A16108   0.379   2.318   3.847 -0.8994 -2.2497  1.7500
  134CHL1   H4B16109   0.274   2.455   3.846  1.1773 -0.9527 -1.7529
  134CHL1    C516110   0.220   2.299   3.991  0.3914 -0.2377 -0.1636
  134CHL1    C616111   0.171   2.389   4.081  0.2523  0.3660  0.1868
  134CHL1    H616112   0.179   2.496   4.056 -0.5162  0.1288 -1.2163
  134CHL1    C716113   0.121   2.345   4.218  0.5791 -0.6812 -0.1858
  134CHL1   H7A16114   0.143   2.416   4.300  1.1197 -1.4432  0.3499
  134CHL1   H7B16115   0.011   2.336   4.212  0.5582 -0.2331 -0.5898
  134CHL1    C816116   0.183   2.211   4.267  0.3013 -0.2190 -0.0745
  134CHL1    H816117   0.292   2.232   4.277  0.4976  1.1040 -3.5913
  134CHL1   C1416118   0.110   2.156   4.389 -0.0310 -0.2909  0.0262
  134CHL1   H1416119   0.003   2.141   4.364 -0.0280 -1.3448  0.5894
  134CHL1   C1516120   0.116   2.246   4.512  0.0707  0.4897  0.1070
  134CHL1  H15A16121   0.219   2.274   4.541 -0.1814  1.0981  0.4242
  134CHL1  H15B16122   0.058   2.340   4.513 -1.9732 -0.6815 -0.4991
  134CHL1   C1616123   0.056   2.153   4.621  0.8958  0.1659  0.0989
  134CHL1  H16A16124   0.110   2.177   4.715  0.3354 -1.2007  0.7981
  134CHL1  H16B16125  -0.053   2.170   4.633  0.0638 -2.8647 -1.9726
  134CHL1   C1716126   0.083   2.001   4.573 -0.2748 -0.2795  0.3085
  134CHL1   H1716127  -0.014   1.957   4.539 -1.5830  4.4534 -3.1584
  134CHL1   C1316128   0.162   2.019   4.444  0.9270 -0.1237  0.5100
  134CHL1   C1816129   0.307   2.020   4.487 -0.2023  0.1105 -0.6361
  134CHL1  H18A16130   0.378   2.064   4.413 -1.0834 -1.1271 -2.3036
  134CHL1  H18B16131   0.307   2.079   4.581 -0.1471 -2.3147  0.9753
  134CHL1  H18C16132   0.336   1.916   4.510 -2.1140  0.3113  3.5562
  134CHL1   C1216133   0.137   1.916   4.328  0.2971 -0.1867  0.3555
  134CHL1  H12A16134   0.180   1.817   4.356  1.5089 -0.3829 -1.9644
  134CHL1  H12B16135   0.026   1.906   4.319  0.0995  0.2526  2.0608
  134CHL1   C1116136   0.206   1.961   4.199 -0.0316 -0.3504 -0.5943
  134CHL1  H11A16137   0.314   1.952   4.224  0.7885  1.6641 -2.9425
  134CHL1  H11B16138   0.186   1.892   4.114  1.1070 -0.6443 -0.6443
  134CHL1    C916139   0.168   2.103   4.151 -0.6743  0.1015 -0.6827
  134CHL1    H916140   0.062   2.103   4.118 -0.5608 -1.0963 -1.1032
  134CHL1   C1016141   0.233   2.144   4.019 -0.0306 -0.1494  0.5009
  134CHL1   C1916142   0.379   2.106   4.021 -0.4906  0.4357 -0.4267
  134CHL1  H19A16143   0.388   1.997   4.002  0.3154  0.6060 -1.0653
  134CHL1  H19B16144   0.451   2.154   3.951  0.9946  2.1641  2.1082
  134CHL1  H19C16145   0.426   2.132   4.118  0.0553  0.9718 -0.8247
  134CHL1    C116146   0.168   2.077   3.892  0.5153  0.5320  0.7397
  134CHL1   H1A16147   0.178   1.967   3.909  0.1143  0.5630  1.2176
  134CHL1   H1B16148   0.058   2.093   3.886  0.2235 -1.6535 -1.0846
  134CHL1    C216149   0.209   2.123   3.754  0.4043 -0.8285  0.4567
  134CHL1   H2A16150   0.152   2.067   3.677  1.7260 -2.1509  0.3834
  134CHL1   H2B16151   0.315   2.092   3.742  0.0294 -1.7629 -0.6456
  134CHL1   C2016152   0.131   1.906   4.682  0.2504 -0.9428  0.1210
  134CHL1   H2016153   0.222   1.943   4.735  1.3431 -3.8776  0.5273
  134CHL1   C2116154   0.147   1.764   4.621  0.3769 -0.0101 -0.2617
  134CHL1  H21A16155   0.232   1.757   4.550  2.2162  1.7751  1.6353
  134CHL1  H21B16156   0.055   1.742   4.563 -0.5582  3.2380 -0.1672
  134CHL1  H21C16157   0.174   1.690   4.700 -0.7317  0.0660  0.2079
  134CHL1   C2216158   0.021   1.893   4.786  0.1069  0.3743  0.0830
  134CHL1  H22A16159  -0.044   1.983   4.790 -1.0113 -0.4685  3.4296
  134CHL1  H22B16160  -0.050   1.815   4.749  0.8936 -0.1447 -0.3695
  134CHL1   C2316161   0.062   1.866   4.925 -0.0383 -0.0747 -0.0509
  134CHL1  H23A16162   0.125   1.775   4.916  0.6878  0.5093 -1.1970
  134CHL1  H23B16163   0.123   1.953   4.959  1.3560 -0.0079 -2.4337
  134CHL1   C2416164  -0.059   1.868   5.028 -0.1024  0.1308  0.4025
  134CHL1  H24A16165  -0.081   1.970   5.066  0.4167  1.7094 -3.1168
  134CHL1  H24B16166  -0.155   1.833   4.985  0.3333 -0.2857 -0.2515
  134CHL1   C2516167  -0.027   1.782   5.151  0.0069 -0.1321  0.1817
  134CHL1   H2516168   0.017   1.687   5.115  1.3681  0.6391 -0.2939
  134CHL1   C2616169   0.083   1.849   5.236 -0.1781  0.1861 -0.6435
  134CHL1  H26A16170   0.101   1.787   5.326 -1.6243 -1.3880 -1.3751
  134CHL1  H26B16171   0.184   1.847   5.190 -0.2905  1.9404 -1.0071
  134CHL1  H26C16172   0.054   1.953   5.262 -0.7565 -0.3022  0.7770
  134CHL1   C2716173  -0.161   1.760   5.228 -0.2390  0.0847  0.2741
  134CHL1  H27A16174  -0.246   1.742   5.158 -1.2658  0.7988  1.2804
  134CHL1  H27B16175  -0.156   1.687   5.311 -0.7614 -0.7738 -0.4353
  134CHL1  H27C16176  -0.180   1.856   5.281  1.6683  1.0634 -0.7164
  135CHL1    C316177   7.342   2.164   3.672  0.5214 -0.2277 -0.2271
  135CHL1    H316178   7.258   2.091   3.679 -0.7423  0.9106 -2.4537
  135CHL1    O316179   7.372   2.185   3.534 -0.4867 -0.0898 -0.3468
  135CHL1   H3'16180   7.427   2.263   3.530 -1.8545  0.8701 -2.2634
  135CHL1    C416181   7.293   2.299   3.740 -0.3033 -0.6414  1.6378
  135CHL1   H4A16182   7.380   2.364   3.716 -1.3091 -0.8181 -3.9391
  135CHL1   H4B16183   7.211   2.335   3.673 -0.6854 -1.4979  1.6271
  135CHL1    C516184   7.260   2.280   3.884 -0.0792  0.1375  0.1391
  135CHL1    C616185   7.142   2.320   3.930  0.2007 -0.6509 -0.3975
  135CHL1    H616186   7.063   2.362   3.867 -1.4921 -0.9822  1.3807
  135CHL1    C716187   7.100   2.305   4.077  0.0925 -0.5437 -0.4083
  135CHL1   H7A16188   7.043   2.391   4.119  1.4653  1.4592 -2.3581
  135CHL1   H7B16189   7.027   2.222   4.085 -1.7681  0.9222 -1.3630
  135CHL1    C816190   7.221   2.283   4.170 -0.0402  0.5768  0.5678
  135CHL1    H816191   7.263   2.377   4.212  0.4222  0.6630 -0.0903
  135CHL1   C1416192   7.164   2.228   4.305 -0.3935 -0.1981  0.0574
  135CHL1   H1416193   7.107   2.136   4.281  0.2727 -0.5545 -0.1821
  135CHL1   C1516194   7.063   2.314   4.376 -0.0465  0.3907  0.1620
  135CHL1  H15A16195   7.112   2.413   4.387  0.8348 -0.1619  1.3583
  135CHL1  H15B16196   6.970   2.328   4.317 -0.2977 -2.9231 -0.4194
  135CHL1   C1616197   7.056   2.252   4.519 -0.0043 -0.0345 -0.2582
  135CHL1  H16A16198   7.069   2.333   4.593 -3.5451  0.7225 -0.2670
  135CHL1  H16B16199   6.956   2.205   4.535  0.2208 -0.3279  0.3027
  135CHL1   C1716200   7.167   2.145   4.524  0.3202 -0.4254  0.8433
  135CHL1   H1716201   7.116   2.051   4.492  1.7604 -1.4692  1.5304
  135CHL1   C1316202   7.267   2.185   4.415  0.1359 -0.4221 -0.0158
  135CHL1   C1816203   7.350   2.304   4.460 -0.7565 -0.0708  0.1801
  135CHL1  H18A16204   7.288   2.381   4.511  1.8731  0.5639  2.6642
  135CHL1  H18B16205   7.434   2.286   4.531  2.8851  0.0396 -3.7541
  135CHL1  H18C16206   7.388   2.362   4.374 -1.5194  3.0194  1.7785
  135CHL1   C1216207   7.354   2.070   4.339 -0.2714  0.2724  0.0810
  135CHL1  H12A16208   7.438   2.039   4.404  0.4684  2.2214  0.1031
  135CHL1  H12B16209   7.296   1.979   4.313  0.1381  0.4574 -1.6175
  135CHL1   C1116210   7.414   2.130   4.209  0.5841 -0.2710  0.0685
  135CHL1  H11A16211   7.471   2.223   4.231 -0.5303  0.1189  1.4582
  135CHL1  H11B16212   7.488   2.055   4.173  0.5616  0.1258 -0.8230
  135CHL1    C916213   7.312   2.176   4.108 -0.0533  0.1301 -0.1692
  135CHL1    H916214   7.254   2.083   4.094 -2.1689  1.4214 -0.4076
  135CHL1   C1016215   7.370   2.219   3.970 -0.1796  0.0862 -0.4034
  135CHL1   C1916216   7.472   2.328   3.991 -0.4274  0.3789 -0.3203
  135CHL1  H19A16217   7.498   2.378   3.896 -1.4611  1.1073 -0.2279
  135CHL1  H19B16218   7.443   2.395   4.075  0.3228 -0.4530  0.6458
  135CHL1  H19C16219   7.564   2.280   4.031 -0.8775 -1.0776 -0.9930
  135CHL1    C116220   7.431   2.095   3.902  0.1775 -0.1002 -0.3090
  135CHL1   H1A16221   7.523   2.063   3.956  0.6656  1.1094 -0.3920
  135CHL1   H1B16222   7.357   2.014   3.922 -1.4117  1.5374  0.8492
  135CHL1    C216223   7.462   2.113   3.752 -0.0419 -0.5414  0.4651
  135CHL1   H2A16224   7.499   2.014   3.719  2.9683  1.3425 -2.3673
  135CHL1   H2B16225   7.547   2.183   3.738  1.1106 -1.1575  3.5231
  135CHL1   C2016226   7.221   2.126   4.666 -0.7412 -0.5195  0.3088
  135CHL1   H2016227   7.278   2.219   4.690  0.8015 -0.9180 -1.4791
  135CHL1   C2116228   7.315   2.005   4.671 -0.6060  0.0468 -0.0160
  135CHL1  H21A16229   7.385   2.004   4.758 -1.0350 -0.6050  0.3353
  135CHL1  H21B16230   7.387   2.006   4.587 -0.7939  2.2882 -0.2040
  135CHL1  H21C16231   7.258   1.911   4.690 -1.9021  1.3291  3.1621
  135CHL1   C2216232   7.111   2.102   4.773 -0.4153  0.0062  0.7999
  135CHL1  H22A16233   7.033   2.180   4.761 -0.1447  0.0468 -0.9303
  135CHL1  H22B16234   7.056   2.006   4.764 -0.5118  0.2595 -2.1419
  135CHL1   C2316235   7.172   2.127   4.915 -0.2929  0.0643 -0.2545
  135CHL1  H23A16236   7.258   2.056   4.922 -1.5646 -1.4934  0.1446
  135CHL1  H23B16237   7.213   2.230   4.919 -1.9983  0.7328  1.8497
  135CHL1   C2416238   7.078   2.098   5.027  0.2805 -0.6991 -0.3306
  135CHL1  H24A16239   6.990   2.165   5.021  1.8215  1.3201 -3.6329
  135CHL1  H24B16240   7.055   1.989   5.027 -0.4427 -0.5509  0.6076
  135CHL1   C2516241   7.149   2.118   5.164 -0.2974 -0.2520 -0.6924
  135CHL1   H2516242   7.190   2.220   5.182  0.0778 -0.7176  1.3174
  135CHL1   C2616243   7.045   2.102   5.268 -0.5772 -0.0370  0.3278
  135CHL1  H26A16244   7.016   1.997   5.292 -2.0125  0.2784  0.0979
  135CHL1  H26B16245   7.076   2.158   5.358  1.3870 -1.0751  0.3553
  135CHL1  H26C16246   6.949   2.143   5.230 -2.1576 -1.6395  2.3824
  135CHL1   C2716247   7.262   2.013   5.187  0.4833  0.5872  0.0667
  135CHL1  H27A16248   7.222   1.910   5.201 -0.1192  0.7598 -0.3313
  135CHL1  H27B16249   7.336   2.014   5.105  1.7462 -0.7878  1.1383
  135CHL1  H27C16250   7.313   2.031   5.284  2.3256 -1.8944 -0.3765
  136CHL1    C316251   6.068   1.424   3.733 -0.3052 -0.0167 -0.2786
  136CHL1    H316252   5.987   1.481   3.681  0.6647  2.8108  1.0925
  136CHL1    O316253   6.177   1.414   3.642 -0.2862 -0.5064 -0.4795
  136CHL1   H3'16254   6.160   1.343   3.580  0.6727 -1.9522  0.8453
  136CHL1    C416255   6.105   1.522   3.844  0.0083  0.3313  0.4066
  136CHL1   H4A16256   6.187   1.463   3.891  0.5467  0.2410 -0.6270
  136CHL1   H4B16257   6.151   1.609   3.792 -0.4187  0.7709  0.7582
  136CHL1    C516258   5.984   1.559   3.933 -0.3745  0.6544 -0.3633
  136CHL1    C616259   5.950   1.685   3.945  0.4274 -0.9157 -1.1024
  136CHL1    H616260   6.015   1.759   3.896  1.1269 -0.0780  0.9479
  136CHL1    C716261   5.834   1.735   4.036 -0.0090  0.1442  0.4738
  136CHL1   H7A16262   5.869   1.801   4.118  1.8083  0.5484 -0.5700
  136CHL1   H7B16263   5.754   1.780   3.974 -1.1201 -3.8282 -1.2951
  136CHL1    C816264   5.771   1.616   4.122  0.4797 -0.5393  0.1606
  136CHL1    H816265   5.842   1.608   4.207  0.2903  0.3726  0.4168
  136CHL1   C1416266   5.627   1.655   4.170 -0.2122 -0.3472 -0.3745
  136CHL1   H1416267   5.569   1.661   4.076  2.3266  1.2418 -1.9446
  136CHL1   C1516268   5.602   1.783   4.248  0.1736  0.3872 -0.2226
  136CHL1  H15A16269   5.687   1.796   4.319  1.0429 -1.0017 -0.9570
  136CHL1  H15B16270   5.597   1.877   4.189  0.6133  0.5095 -0.0689
  136CHL1   C1616271   5.465   1.751   4.319  0.0045  0.1484 -0.1904
  136CHL1  H16A16272   5.494   1.768   4.425 -0.1136  1.3217 -0.3283
  136CHL1  H16B16273   5.390   1.824   4.283 -0.5902 -1.5644 -2.6623
  136CHL1   C1716274   5.433   1.602   4.298  0.5684  0.3183  0.2309
  136CHL1   H1716275   5.366   1.599   4.209 -0.0268 -1.4848  0.7114
  136CHL1   C1316276   5.563   1.541   4.250  0.6302  0.1532 -0.1320
  136CHL1   C1816277   5.646   1.493   4.370 -0.3297 -0.2301  0.1688
  136CHL1  H18A16278   5.618   1.400   4.424 -1.5181 -0.6594 -1.1288
  136CHL1  H18B16279   5.751   1.480   4.337  0.0348  0.4891  1.0239
  136CHL1  H18C16280   5.634   1.581   4.437  2.9588  0.5587 -0.1215
  136CHL1   C1216281   5.550   1.422   4.148 -0.4302  0.7504  0.3789
  136CHL1  H12A16282   5.501   1.335   4.196 -0.7458  0.4210 -0.5328
  136CHL1  H12B16283   5.476   1.458   4.074 -2.9231 -0.0631  2.3067
  136CHL1   C1116284   5.681   1.371   4.090 -0.0292  0.0104 -0.3801
  136CHL1  H11A16285   5.738   1.319   4.170  0.3559 -1.1216 -1.3519
  136CHL1  H11B16286   5.655   1.310   4.000 -2.1581  1.3565 -0.7445
  136CHL1    C916287   5.772   1.485   4.040 -0.1280  0.3939  0.6262
  136CHL1    H916288   5.720   1.520   3.948 -0.8396 -1.0761  0.4320
  136CHL1   C1016289   5.909   1.430   3.992 -0.1187 -0.3687  0.5739
  136CHL1   C1916290   6.006   1.359   4.096  0.6247 -0.3289  0.2616
  136CHL1  H19A16291   5.964   1.269   4.146 -0.2477  1.3235  2.7139
  136CHL1  H19B16292   6.102   1.348   4.042 -0.5604  2.1452 -2.6245
  136CHL1  H19C16293   6.027   1.434   4.176  0.6448 -0.0958  0.0422
  136CHL1    C116294   5.884   1.322   3.879  0.3650  0.0016  0.5010
  136CHL1   H1A16295   5.833   1.229   3.910 -0.6418 -0.0359 -1.1467
  136CHL1   H1B16296   5.809   1.369   3.812 -0.6546  1.8564  2.7996
  136CHL1    C216297   6.011   1.292   3.790 -0.3983 -0.3763 -0.3362
  136CHL1   H2A16298   5.994   1.220   3.708  1.6168 -1.1791 -0.0870
  136CHL1   H2B16299   6.089   1.250   3.857 -2.1576 -1.1735  1.3395
  136CHL1   C2016300   5.344   1.545   4.417 -0.1525  0.3661  0.0250
  136CHL1   H2016301   5.422   1.501   4.483  1.9040 -0.8821 -3.0436
  136CHL1   C2116302   5.253   1.438   4.353  0.7061  0.1123  0.1807
  136CHL1  H21A16303   5.173   1.427   4.430  0.4901  1.6730  0.2126
  136CHL1  H21B16304   5.322   1.351   4.339  0.2204 -0.0212 -1.6119
  136CHL1  H21C16305   5.218   1.482   4.258  0.3575 -1.1625 -0.3076
  136CHL1   C2216306   5.262   1.636   4.503  0.0873  0.0224  0.1918
  136CHL1  H22A16307   5.216   1.581   4.588  1.1913 -1.2041  0.0154
  136CHL1  H22B16308   5.324   1.713   4.553  2.3893 -0.8376 -1.1931
  136CHL1   C2316309   5.145   1.708   4.419 -0.0300 -0.3474 -0.4259
  136CHL1  H23A16310   5.191   1.758   4.332  0.4748  1.8442  1.0044
  136CHL1  H23B16311   5.078   1.627   4.384  0.0622 -0.8919  0.6278
  136CHL1   C2416312   5.072   1.819   4.506  0.5744 -0.2945 -0.6276
  136CHL1  H24A16313   4.972   1.822   4.457 -0.2535 -2.4502  0.8101
  136CHL1  H24B16314   5.057   1.795   4.613  0.5493  2.9327  0.1845
  136CHL1   C2516315   5.126   1.962   4.489 -0.6015  0.7105 -0.3762
  136CHL1   H2516316   5.164   1.974   4.386  4.1839  2.1279  1.2614
  136CHL1   C2616317   5.017   2.060   4.511 -0.1077 -0.0510 -0.1292
  136CHL1  H26A16318   4.932   2.045   4.442 -1.4585 -2.2831  1.8829
  136CHL1  H26B16319   4.985   2.041   4.615  0.6807  1.6915  0.4682
  136CHL1  H26C16320   5.053   2.165   4.515 -0.7082  0.1130  1.5234
  136CHL1   C2716321   5.245   1.988   4.590 -0.6015  0.0412  0.0626
  136CHL1  H27A16322   5.335   1.932   4.555 -1.5918  0.1887 -3.0532
  136CHL1  H27B16323   5.278   2.094   4.593 -2.5364  0.6943 -0.6335
  136CHL1  H27C16324   5.214   1.953   4.690 -2.2062 -0.4940 -0.5902
  137CHL1    C316325   2.122   1.534   3.503 -0.4538 -0.5954 -0.4342
  137CHL1    H316326   2.223   1.523   3.549 -1.0956  2.4914  2.0237
  137CHL1    O316327   2.120   1.612   3.384  0.2480 -0.0493 -0.1978
  137CHL1   H3'16328   2.029   1.610   3.352  0.1234  2.1807 -0.1601
  137CHL1    C416329   2.056   1.396   3.473  0.3191  0.7147 -0.0379
  137CHL1   H4A16330   1.950   1.408   3.441 -0.7756 -1.0320  2.6292
  137CHL1   H4B16331   2.110   1.345   3.390  0.4865 -1.1614  1.1571
  137CHL1    C516332   2.060   1.312   3.604 -0.1424  0.4452 -0.2072
  137CHL1    C616333   2.125   1.197   3.605 -0.5852  0.1194 -0.0851
  137CHL1    H616334   2.185   1.165   3.518 -1.5368 -1.1794 -0.2877
  137CHL1    C716335   2.141   1.106   3.729  0.1809 -0.2358  0.2783
  137CHL1   H7A16336   2.146   0.997   3.707 -0.6364  0.1095 -1.8421
  137CHL1   H7B16337   2.240   1.128   3.774  0.3197  0.5733 -0.4180
  137CHL1    C816338   2.042   1.146   3.840  0.3220  0.7675 -0.1536
  137CHL1    H816339   1.944   1.107   3.807  0.3511 -0.5326  1.2021
  137CHL1   C1416340   2.084   1.082   3.973  0.2088  0.2202 -0.3151
  137CHL1   H1416341   2.182   1.124   4.005 -1.2641  4.5103 -0.8074
  137CHL1   C1516342   2.099   0.932   3.976 -0.7239 -0.1168  0.1993
  137CHL1  H15A16343   2.022   0.876   3.919  0.2262 -1.5761  0.3117
  137CHL1  H15B16344   2.197   0.899   3.934 -0.6206 -1.2943  1.3255
  137CHL1   C1616345   2.084   0.904   4.118 -0.2032  0.9799  0.2616
  137CHL1  H16A16346   2.020   0.815   4.136 -0.4260  0.5811 -2.2319
  137CHL1  H16B16347   2.185   0.867   4.146  0.4325 -0.1187 -3.0734
  137CHL1   C1716348   2.044   1.035   4.198  0.5373  0.8238 -0.2368
  137CHL1   H1716349   2.142   1.078   4.227  0.1769  2.7939 -1.7927
  137CHL1   C1316350   1.983   1.120   4.087  0.0092  0.0446  0.0339
  137CHL1   C1816351   1.843   1.066   4.053 -0.0181 -0.2001 -0.2302
  137CHL1  H18A16352   1.776   1.084   4.140  1.3376  0.6875  0.6784
  137CHL1  H18B16353   1.805   1.123   3.965  0.0397 -0.2900 -0.3126
  137CHL1  H18C16354   1.842   0.958   4.028 -2.6779 -0.1392 -0.7024
  137CHL1   C1216355   1.987   1.273   4.100 -0.1191  0.2403 -1.0580
  137CHL1  H12A16356   1.929   1.317   4.184 -0.4221  1.3617 -1.8412
  137CHL1  H12B16357   2.093   1.302   4.120  0.3978 -2.1529  0.0105
  137CHL1   C1116358   1.936   1.343   3.974 -0.2804  0.0964  0.4925
  137CHL1  H11A16359   1.827   1.325   3.963 -0.8868  2.0771  2.4020
  137CHL1  H11B16360   1.943   1.453   3.991 -1.2318  0.2387  0.0244
  137CHL1    C916361   2.028   1.301   3.858  0.2308 -0.1453 -0.3162
  137CHL1    H916362   2.133   1.324   3.886  0.5090 -2.8315  1.0864
  137CHL1   C1016363   1.992   1.379   3.724 -0.3024 -0.4279  0.2652
  137CHL1   C1916364   1.840   1.379   3.694 -0.0867  0.6949  0.4464
  137CHL1  H19A16365   1.804   1.275   3.704  0.3206  0.1898 -2.5049
  137CHL1  H19B16366   1.787   1.433   3.775  0.4554 -1.2121  2.1609
  137CHL1  H19C16367   1.819   1.413   3.591 -0.4287  1.1329  0.6556
  137CHL1    C116368   2.032   1.527   3.733 -0.0817  1.2800 -0.4779
  137CHL1   H1A16369   1.965   1.558   3.816 -2.3648  0.7582 -2.0220
  137CHL1   H1B16370   2.135   1.522   3.775  0.1727  0.2582 -1.1827
  137CHL1    C216371   2.042   1.612   3.610  0.0956  0.6802 -0.2433
  137CHL1   H2A16372   2.069   1.718   3.629 -2.0277  0.9430  1.8777
  137CHL1   H2B16373   1.938   1.621   3.573 -0.0014 -1.7127 -0.6880
  137CHL1   C2016374   1.964   1.005   4.324  0.5025 -0.7447 -0.1991
  137CHL1   H2016375   1.863   0.966   4.301  0.6729 -1.1359 -0.2926
  137CHL1   C2116376   1.945   1.135   4.406  0.0740  0.4794  0.1408
  137CHL1  H21A16377   1.906   1.109   4.507  2.6906  1.1086  1.3957
  137CHL1  H21B16378   1.866   1.181   4.343  0.2571 -0.1748 -0.5929
  137CHL1  H21C16379   2.028   1.205   4.427 -0.0293  1.2998 -1.9141
  137CHL1   C2216380   2.032   0.898   4.413 -0.0268 -0.4080  0.4344
  137CHL1  H22A16381   2.093   0.820   4.362 -2.6327 -2.2023 -0.1308
  137CHL1  H22B16382   2.104   0.962   4.469  1.2068 -0.1928 -1.3199
  137CHL1   C2316383   1.932   0.820   4.500  0.0126  0.0209  1.0996
  137CHL1  H23A16384   1.872   0.887   4.565  0.5286 -0.0550  1.6546
  137CHL1  H23B16385   1.863   0.766   4.431 -1.9221  2.6232  0.8522
  137CHL1   C2416386   1.991   0.708   4.583 -0.1854 -0.0327 -0.2466
  137CHL1  H24A16387   2.062   0.644   4.526 -0.3134 -0.4007  0.0007
  137CHL1  H24B16388   2.060   0.749   4.660 -0.8079 -3.3116  2.2806
  137CHL1   C2516389   1.876   0.626   4.652  0.2288 -0.0702  0.6598
  137CHL1   H2516390   1.797   0.696   4.685  0.0592  0.8673 -1.5507
  137CHL1   C2616391   1.816   0.524   4.560 -0.1911 -0.7854  0.5953
  137CHL1  H26A16392   1.896   0.462   4.513 -0.5810 -0.0018 -1.2036
  137CHL1  H26B16393   1.743   0.450   4.599 -1.9590  0.1535 -0.7815
  137CHL1  H26C16394   1.784   0.577   4.467  3.4032  0.6770  0.0277
  137CHL1   C2716395   1.930   0.558   4.779  0.4949 -0.1064  0.5995
  137CHL1  H27A16396   1.859   0.484   4.822  0.0978 -1.7503 -2.5803
  137CHL1  H27B16397   2.015   0.497   4.742 -0.5707 -1.7723  0.7836
  137CHL1  H27C16398   1.962   0.626   4.861 -0.1223  1.7343 -0.6301
  138CHL1    C316399   0.373   0.362   3.313  1.3898  0.0098  0.3021
  138CHL1    H316400   0.334   0.456   3.357  0.4062  0.0531 -0.6302
  138CHL1    O316401   0.339   0.349   3.182 -0.4441  0.3928 -0.3027
  138CHL1   H3'16402   0.384   0.278   3.136 -2.5091 -0.7231 -0.7180
  138CHL1    C416403   0.525   0.362   3.328 -0.0073  0.2036  0.7324
  138CHL1   H4A16404   0.566   0.273   3.276  0.4928  1.3854 -0.9934
  138CHL1   H4B16405   0.556   0.445   3.261  0.4161 -1.8475 -1.7382
  138CHL1    C516406   0.568   0.368   3.472 -0.1571 -0.1982 -0.6375
  138CHL1    C616407   0.647   0.468   3.507  0.0904  0.0522 -0.4275
  138CHL1    H616408   0.685   0.540   3.434  0.4292 -0.2767 -0.5801
  138CHL1    C716409   0.707   0.480   3.641  0.5891 -0.5897 -0.0899
  138CHL1   H7A16410   0.816   0.500   3.632  0.3618  2.2219  1.9846
  138CHL1   H7B16411   0.673   0.578   3.682  1.1228 -0.9746  1.3256
  138CHL1    C816412   0.671   0.363   3.740  0.6043  0.0313  0.7696
  138CHL1    H816413   0.747   0.286   3.716  1.4762  1.0419  0.2129
  138CHL1   C1416414   0.691   0.402   3.886 -0.2580 -0.5092  0.2000
  138CHL1   H1416415   0.614   0.480   3.906 -0.8855 -1.2984  0.9995
  138CHL1   C1516416   0.820   0.470   3.918 -0.4726  0.1493 -0.5412
  138CHL1  H15A16417   0.907   0.418   3.871  0.7400  1.9953 -0.4506
  138CHL1  H15B16418   0.821   0.579   3.894 -2.7635  0.2054 -0.5890
  138CHL1   C1616419   0.829   0.441   4.068  0.0859  0.7206 -0.2037
  138CHL1  H16A16420   0.918   0.377   4.084 -1.8464 -2.0160  0.4304
  138CHL1  H16B16421   0.850   0.535   4.124  1.4610 -0.5674  1.5432
  138CHL1   C1716422   0.700   0.365   4.116 -0.1415 -0.6026 -0.3579
  138CHL1   H1716423   0.634   0.451   4.139  0.4677  0.2784 -1.7742
  138CHL1   C1316424   0.660   0.296   3.987 -0.2910 -0.0280  0.0470
  138CHL1   C1816425   0.757   0.170   3.972  0.2762  0.2004 -0.0982
  138CHL1  H18A16426   0.730   0.108   3.883  1.2950  0.1702 -0.4013
  138CHL1  H18B16427   0.867   0.189   3.968  0.3138  0.0432  0.1921
  138CHL1  H18C16428   0.740   0.103   4.059  0.2665  2.2793  1.5762
  138CHL1   C1216429   0.519   0.249   3.970  0.2455  0.2743  0.8093
  138CHL1  H12A16430   0.500   0.161   4.035  2.2537 -0.8960 -0.0897
  138CHL1  H12B16431   0.447   0.329   3.997  0.0296  0.1332  0.6624
  138CHL1   C1116432   0.479   0.212   3.826  0.3241  0.6096  0.6742
  138CHL1  H11A16433   0.523   0.111   3.814 -2.1249 -0.3955 -0.4357
  138CHL1  H11B16434   0.369   0.210   3.838  0.5762 -1.0298  4.1453
  138CHL1    C916435   0.528   0.312   3.720 -0.1679 -0.0047  0.1162
  138CHL1    H916436   0.462   0.400   3.735  1.6272  1.0937  2.2541
  138CHL1   C1016437   0.512   0.268   3.572 -0.1265  0.7277 -0.2449
  138CHL1   C1916438   0.573   0.128   3.540  1.2481 -0.7795 -0.3596
  138CHL1  H19A16439   0.501   0.053   3.580 -0.9891  1.5315  0.2429
  138CHL1  H19B16440   0.575   0.115   3.430 -1.9031  0.2569 -0.6526
  138CHL1  H19C16441   0.675   0.111   3.581  1.4056  0.2385 -0.3015
  138CHL1    C116442   0.357   0.265   3.549  0.0403 -0.1888  0.5310
  138CHL1   H1A16443   0.308   0.181   3.603  1.1012 -0.8673  0.4700
  138CHL1   H1B16444   0.316   0.361   3.586  0.6235 -0.2141  1.2913
  138CHL1    C216445   0.314   0.253   3.403 -0.2629  0.3068 -0.0654
  138CHL1   H2A16446   0.205   0.235   3.395 -0.3944  1.2848 -0.6008
  138CHL1   H2B16447   0.369   0.163   3.366 -1.0462 -0.5609  0.8353
  138CHL1   C2016448   0.722   0.283   4.244 -0.3784 -0.1089  0.1647
  138CHL1   H2016449   0.781   0.189   4.229 -2.1105 -1.3682  0.9584
  138CHL1   C2116450   0.584   0.242   4.293 -0.0520 -0.2196  0.3349
  138CHL1  H21A16451   0.592   0.182   4.386  1.2673  0.8907  0.9814
  138CHL1  H21B16452   0.539   0.170   4.221 -0.5576  0.4243 -0.0129
  138CHL1  H21C16453   0.511   0.324   4.311  0.8688  0.1813  2.4538
  138CHL1   C2216454   0.790   0.370   4.348 -1.2969 -0.9825 -0.5668
  138CHL1  H22A16455   0.882   0.413   4.303  0.3200 -0.1419  3.2172
  138CHL1  H22B16456   0.724   0.457   4.371 -1.5365 -1.0778 -0.8811
  138CHL1   C2316457   0.835   0.310   4.484 -0.0718  0.3258 -0.4197
  138CHL1  H23A16458   0.745   0.288   4.545  0.6344  0.3760  0.6730
  138CHL1  H23B16459   0.891   0.215   4.470  0.4344  0.5224  0.2427
  138CHL1   C2416460   0.918   0.411   4.560 -0.5879  0.3736  0.4763
  138CHL1  H24A16461   1.008   0.438   4.501 -1.1001 -1.7552 -1.4047
  138CHL1  H24B16462   0.860   0.505   4.573 -0.6745  0.5055 -0.6866
  138CHL1   C2516463   0.959   0.361   4.699 -0.2000 -0.4217 -0.4157
  138CHL1   H2516464   0.874   0.321   4.758  0.1043  1.3029  1.2858
  138CHL1   C2616465   1.067   0.250   4.684 -0.2852 -0.3778 -1.0669
  138CHL1  H26A16466   1.163   0.302   4.663  0.0848 -0.1205  1.0832
  138CHL1  H26B16467   1.084   0.203   4.783  2.8548  0.7564 -0.9586
  138CHL1  H26C16468   1.040   0.170   4.612  0.2693 -2.3233  0.7961
  138CHL1   C2716469   1.006   0.476   4.796  0.6768  0.7477 -0.5464
  138CHL1  H27A16470   0.918   0.543   4.806 -0.2883 -0.5547  0.1212
  138CHL1  H27B16471   1.039   0.449   4.898  1.4887  1.3636 -0.6390
  138CHL1  H27C16472   1.096   0.518   4.747  2.5564 -0.4579  1.6818
  139CHL1    C316473   7.305   5.630   3.484 -0.1096 -0.0112 -0.0271
  139CHL1    H316474   7.414   5.634   3.465 -0.2098 -0.6660 -0.8175
  139CHL1    O316475   7.242   5.603   3.361  0.3674 -0.1718  0.3122
  139CHL1   H3'16476   7.299   5.543   3.313  0.4086  0.5007 -0.4968
  139CHL1    C416477   7.271   5.515   3.574  0.0730 -0.0511  1.4952
  139CHL1   H4A16478   7.160   5.511   3.571  0.0917  0.2704  0.1881
  139CHL1   H4B16479   7.304   5.424   3.520 -1.8481  0.4343 -0.6613
  139CHL1    C516480   7.330   5.522   3.712 -0.3165 -0.5811 -0.2472
  139CHL1    C616481   7.406   5.423   3.764  0.0849 -0.5442  0.7611
  139CHL1    H616482   7.422   5.331   3.705 -0.6652  0.7729 -1.6011
  139CHL1    C716483   7.461   5.423   3.904 -0.6735 -0.2024  0.1141
  139CHL1   H7A16484   7.427   5.333   3.959  0.8348 -0.0468  1.3674
  139CHL1   H7B16485   7.572   5.421   3.895 -0.7670  1.0671 -2.0108
  139CHL1    C816486   7.420   5.551   3.980  0.1563  0.0951 -0.2500
  139CHL1    H816487   7.323   5.529   4.031  0.3919 -0.5404 -0.0591
  139CHL1   C1416488   7.509   5.574   4.101 -0.0721  0.5931 -0.0339
  139CHL1   H1416489   7.608   5.604   4.060 -0.4235 -0.0404 -1.4061
  139CHL1   C1516490   7.540   5.452   4.198 -0.2771 -0.2996  0.4512
  139CHL1  H15A16491   7.450   5.392   4.222  0.2209 -1.6888 -1.0312
  139CHL1  H15B16492   7.613   5.378   4.159  1.6319  1.4169  0.5631
  139CHL1   C1616493   7.592   5.518   4.328  0.0062 -0.3681  0.1978
  139CHL1  H16A16494   7.526   5.480   4.409 -1.5419  0.8425 -0.4398
  139CHL1  H16B16495   7.697   5.487   4.343 -0.3867 -1.6671  0.4078
  139CHL1   C1716496   7.582   5.672   4.300 -0.0056 -0.1822 -0.3194
  139CHL1   H1716497   7.677   5.714   4.260  0.6045 -1.7208 -0.5360
  139CHL1   C1316498   7.468   5.687   4.194  0.0282 -0.5360  0.3122
  139CHL1   C1816499   7.330   5.658   4.258  0.2362 -0.2509 -0.1077
  139CHL1  H18A16500   7.321   5.729   4.344  4.4079 -2.4539  2.4306
  139CHL1  H18B16501   7.245   5.667   4.187  0.4961  1.7711 -0.2460
  139CHL1  H18C16502   7.332   5.558   4.306 -3.1321 -0.2728  0.2720
  139CHL1   C1216503   7.477   5.818   4.111  0.2046 -0.3089 -0.6275
  139CHL1  H12A16504   7.435   5.905   4.165 -1.0699  0.1073 -2.2078
  139CHL1  H12B16505   7.582   5.846   4.085  0.5259 -0.9168 -0.0308
  139CHL1   C1116506   7.398   5.808   3.983  0.3277 -0.1282  0.7781
  139CHL1  H11A16507   7.292   5.818   4.015 -1.1429 -0.3984 -3.4733
  139CHL1  H11B16508   7.422   5.899   3.925  2.5063 -0.3951  1.1806
  139CHL1    C916509   7.413   5.676   3.895 -0.4234 -0.6975 -0.1559
  139CHL1    H916510   7.509   5.682   3.839  0.5628  1.1483  1.5820
  139CHL1   C1016511   7.306   5.660   3.778  0.2122 -0.5013 -0.5529
  139CHL1   C1916512   7.160   5.667   3.838 -0.0458  0.8512  0.5878
  139CHL1  H19A16513   7.133   5.578   3.899 -2.6232  1.3861  0.3356
  139CHL1  H19B16514   7.153   5.766   3.888 -0.2445  1.6124 -0.9002
  139CHL1  H19C16515   7.092   5.676   3.751 -1.8383 -1.6809  1.6119
  139CHL1    C116516   7.319   5.786   3.679  0.3822 -0.5974 -0.2015
  139CHL1   H1A16517   7.288   5.882   3.727 -1.0066 -0.7089 -0.8295
  139CHL1   H1B16518   7.424   5.822   3.674 -0.3708  2.1204  1.1097
  139CHL1    C216519   7.245   5.761   3.544 -0.3991 -0.3678  0.1693
  139CHL1   H2A16520   7.256   5.848   3.476 -0.5280 -2.0955 -2.2207
  139CHL1   H2B16521   7.137   5.741   3.558 -0.2286 -1.7384 -0.2993
  139CHL1   C2016522   7.563   5.742   4.432 -0.2868 -0.6822 -0.5019
  139CHL1   H2016523   7.478   5.700   4.489  1.9426 -2.1113  1.9990
  139CHL1   C2116524   7.546   5.899   4.420 -0.3003  0.1437 -0.6245
  139CHL1  H21A16525   7.443   5.921   4.386  0.2074  0.4809 -2.0199
  139CHL1  H21B16526   7.627   5.937   4.354 -2.0970  0.1409 -2.9653
  139CHL1  H21C16527   7.540   5.944   4.521  0.4119 -2.0951  0.4902
  139CHL1   C2216528   7.682   5.718   4.528 -0.2391  0.9275  0.2758
  139CHL1  H22A16529   7.698   5.610   4.547 -0.0876  0.7611 -0.7389
  139CHL1  H22B16530   7.776   5.745   4.475  0.8907 -0.7310  1.3777
  139CHL1   C2316531   7.665   5.777   4.669  0.5170  0.2308 -0.5648
  139CHL1  H23A16532   7.686   5.886   4.663 -0.5548  0.6751  2.2721
  139CHL1  H23B16533   7.558   5.764   4.696  0.8550 -1.3998  0.0900
  139CHL1   C2416534   7.744   5.718   4.786  0.6244  0.1130 -0.0203
  139CHL1  H24A16535   7.731   5.608   4.778  1.8372  0.0625 -2.0962
  139CHL1  H24B16536   7.852   5.731   4.765  0.5891 -0.8478 -0.8919
  139CHL1   C2516537   7.713   5.762   4.927  0.1651 -0.3199 -0.1678
  139CHL1   H2516538   7.725   5.871   4.943  0.4779 -0.1481 -1.4237
  139CHL1   C2616539   7.562   5.729   4.963 -0.4235 -0.0318 -0.0885
  139CHL1  H26A16540   7.491   5.792   4.905 -1.3848 -0.3126  0.7501
  139CHL1  H26B16541   7.540   5.625   4.932  0.6723 -0.3446  0.1641
  139CHL1  H26C16542   7.528   5.760   5.064 -2.7110 -1.9585 -0.1705
  139CHL1   C2716543   7.806   5.686   5.029  0.1786 -0.9978 -0.4034
  139CHL1  H27A16544   7.799   5.575   5.020 -1.1770 -1.1231  1.6650
  139CHL1  H27B16545   7.911   5.718   5.010 -0.4896  2.1835  0.6473
  139CHL1  H27C16546   7.781   5.710   5.134 -0.2467 -2.4531 -0.1496
  140CHL1    C316547   7.666   0.307   3.587 -0.7294  0.1773  0.6917
  140CHL1    H316548   7.752   0.255   3.539 -0.6855  1.9523 -1.2839
  140CHL1    O316549   7.599   0.363   3.476 -0.3386  0.1401 -0.3842
  140CHL1   H3'16550   7.511   0.367   3.514 -0.4022 -0.1209 -0.5003
  140CHL1    C416551   7.568   0.216   3.653 -0.0316  0.1001  0.0467
  140CHL1   H4A16552   7.481   0.271   3.693  1.1151  1.4832  0.7196
  140CHL1   H4B16553   7.532   0.135   3.586  0.4706 -0.3686  0.3358
  140CHL1    C516554   7.634   0.161   3.779 -0.6657 -0.3320  0.1895
  140CHL1    C616555   7.652   0.031   3.811 -0.2821  0.0013  0.5357
  140CHL1    H616556   7.614  -0.045   3.741 -0.5250 -1.7295  2.4382
  140CHL1    C716557   7.703  -0.017   3.942 -0.0086  0.1124 -0.0146
  140CHL1   H7A16558   7.641  -0.098   3.986  0.5454 -0.1636  0.2674
  140CHL1   H7B16559   7.809  -0.048   3.929  0.2431  0.9330  0.0163
  140CHL1    C816560   7.701   0.092   4.057 -0.3385  0.1048 -0.3823
  140CHL1    H816561   7.598   0.086   4.099  0.0089 -3.1034  0.3326
  140CHL1   C1416562   7.796   0.045   4.172 -0.2047 -0.0376 -0.4852
  140CHL1   H1416563   7.890   0.022   4.118 -0.5516 -4.1717  0.3046
  140CHL1   C1516564   7.773  -0.099   4.232 -0.5251 -0.6042 -0.5158
  140CHL1  H15A16565   7.668  -0.113   4.265 -0.3239 -1.1720 -0.1003
  140CHL1  H15B16566   7.816  -0.178   4.167  1.3594 -0.3231  0.3106
  140CHL1   C1616567   7.850  -0.098   4.370  0.1433 -0.7889 -0.2793
  140CHL1  H16A16568   7.793  -0.137   4.457  1.2818 -2.4439 -0.2398
  140CHL1  H16B16569   7.946  -0.153   4.365  0.1469 -0.9251  0.9420
  140CHL1   C1716570   7.895   0.055   4.393 -0.1907 -0.0650 -0.2754
  140CHL1   H1716571   8.003   0.059   4.370 -0.3563 -0.1727 -1.1179
  140CHL1   C1316572   7.814   0.137   4.284 -0.0830  0.1082 -0.0184
  140CHL1   C1816573   7.674   0.162   4.354  0.7525  0.8382  0.3610
  140CHL1  H18A16574   7.595   0.176   4.277  1.0579 -0.5415 -0.2275
  140CHL1  H18B16575   7.643   0.075   4.416  0.4818 -0.1692 -1.1394
  140CHL1  H18C16576   7.674   0.253   4.417 -1.2359  0.1062  1.5168
  140CHL1   C1216577   7.878   0.270   4.235  0.6111  1.0410 -0.4555
  140CHL1  H12A16578   7.877   0.351   4.311 -1.6741  0.6475  0.0128
  140CHL1  H12B16579   7.977   0.233   4.199 -0.2075 -0.6280 -1.1328
  140CHL1   C1116580   7.787   0.327   4.122 -0.0376 -0.5716  0.3722
  140CHL1  H11A16581   7.692   0.363   4.167 -0.7157  1.0204 -2.1321
  140CHL1  H11B16582   7.842   0.416   4.086 -1.5828  1.1727  2.1362
  140CHL1    C916583   7.754   0.225   4.009  0.7626  0.0437  0.3777
  140CHL1    H916584   7.854   0.199   3.969  1.0567  1.1459  0.3691
  140CHL1   C1016585   7.673   0.279   3.884  0.6835 -0.2413  0.1661
  140CHL1   C1916586   7.547   0.354   3.936 -0.3881  0.2856 -0.2363
  140CHL1  H19A16587   7.486   0.395   3.853  0.0506  0.1445 -0.6311
  140CHL1  H19B16588   7.475   0.290   3.991  0.2828 -1.0957 -0.9235
  140CHL1  H19C16589   7.581   0.447   3.988  1.7057  1.0520 -2.7495
  140CHL1    C116590   7.767   0.371   3.805  0.6824  0.3100 -0.0843
  140CHL1   H1A16591   7.792   0.458   3.868 -2.2637 -0.0135  1.7070
  140CHL1   H1B16592   7.857   0.311   3.778 -0.0726 -0.5192 -0.8572
  140CHL1    C216593   7.707   0.421   3.671 -0.2439 -0.6886 -0.0969
  140CHL1   H2A16594   7.784   0.486   3.625 -0.4949  1.5998  2.4669
  140CHL1   H2B16595   7.622   0.490   3.691  0.3367 -0.0474  0.1966
  140CHL1   C2016596   7.885   0.094   4.537  0.9903 -0.3430 -0.3086
  140CHL1   H2016597   7.787   0.076   4.586  0.0932 -1.3351 -2.3440
  140CHL1   C2116598   7.943   0.240   4.546  0.2562 -0.5063 -0.2554
  140CHL1  H21A16599   7.977   0.267   4.648  3.1887  2.5620 -1.8688
  140CHL1  H21B16600   7.862   0.306   4.507 -0.1205 -1.2223 -0.7123
  140CHL1  H21C16601   8.035   0.250   4.485  0.5991  1.3100  0.5127
  140CHL1   C2216602   7.977   0.008   4.629  0.1064  0.3503  0.6813
  140CHL1  H22A16603   7.960  -0.099   4.606  0.2466  0.7319 -1.3889
  140CHL1  H22B16604   8.082   0.030   4.601  1.0133 -1.3714  2.4549
  140CHL1   C2316605   7.955   0.026   4.785 -0.4107 -0.7800 -0.1721
  140CHL1  H23A16606   7.967   0.135   4.807 -1.5323 -0.6656 -0.0696
  140CHL1  H23B16607   7.847   0.006   4.800 -0.7504  0.7994 -0.2684
  140CHL1   C2416608   8.045  -0.046   4.888 -0.2961  0.5859 -0.3641
  140CHL1  H24A16609   8.074  -0.148   4.857  0.3897  1.0447 -1.2602
  140CHL1  H24B16610   8.142   0.008   4.891 -1.8504  3.6056  0.4686
  140CHL1   C2516611   7.992  -0.055   5.036 -0.0749  0.6226 -0.1590
  140CHL1   H2516612   7.886  -0.081   5.019  0.5658 -2.0405 -0.4913
  140CHL1   C2616613   7.993   0.080   5.110 -0.4064 -0.0432  0.0088
  140CHL1  H26A16614   7.974   0.063   5.218  1.6766  0.3148  0.4608
  140CHL1  H26B16615   8.089   0.135   5.112 -0.7589  0.5694  1.5944
  140CHL1  H26C16616   7.917   0.151   5.070 -1.2571 -1.2019 -0.4640
  140CHL1   C2716617   8.059  -0.170   5.111  0.0141 -0.2330  0.0051
  140CHL1  H27A16618   8.037  -0.262   5.053  0.2398 -0.5798  0.4658
  140CHL1  H27B16619   8.167  -0.147   5.115  0.3009 -0.8646 -2.3748
  140CHL1  H27C16620   8.011  -0.189   5.209 -0.2314 -2.0920 -0.4427
  141DOPC     N16621   4.776   2.115   7.625 -0.2713 -0.2688  0.1362
  141DOPC   C1216622   4.806   2.252   7.569 -0.6823 -0.4899  0.5213
  141DOPC  H12A16623   4.886   2.295   7.627  0.0889  0.8223 -1.4203
  141DOPC  H12B16624   4.721   2.314   7.596 -0.0994  0.1274  0.9710
  141DOPC   C1316625   4.751   2.115   7.773  0.1015  0.8173  0.6299
  141DOPC  H13A16626   4.734   2.012   7.799  2.8680  0.8688  3.3223
  141DOPC  H13B16627   4.843   2.132   7.827  1.1361 -0.6238 -0.5982
  141DOPC  H13C16628   4.670   2.180   7.802 -0.4959  0.3929 -0.0566
  141DOPC   C1416629   4.897   2.024   7.598 -0.0392  0.2483 -0.6083
  141DOPC  H14A16630   4.876   1.922   7.628  0.4930  0.6173  1.0911
  141DOPC  H14B16631   4.917   2.016   7.492 -0.1686 -1.8763 -0.5186
  141DOPC  H14C16632   4.988   2.047   7.651  1.7295 -2.4329 -2.2132
  141DOPC   C1516633   4.652   2.061   7.563 -0.1515 -0.4432  0.0857
  141DOPC  H15A16634   4.570   2.125   7.591 -0.2243  0.4687 -2.0893
  141DOPC  H15B16635   4.629   1.961   7.596 -1.2238 -0.1265  0.3335
  141DOPC  H15C16636   4.664   2.046   7.457 -1.6377  1.0156 -0.3199
  141DOPC   C1116637   4.840   2.252   7.424  0.8447 -0.3259  0.7656
  141DOPC  H11A16638   4.877   2.354   7.398  0.0718 -0.4167 -0.8077
  141DOPC  H11B16639   4.929   2.189   7.403 -0.0444 -1.6410  0.8682
  141DOPC     P16640   4.623   2.326   7.301 -0.1618  0.8285  0.0755
  141DOPC   O1316641   4.662   2.456   7.357  0.2577  0.0562 -0.8481
  141DOPC   O1416642   4.491   2.270   7.341  0.6925 -0.1754  0.4089
  141DOPC   O1216643   4.728   2.213   7.338 -0.3138  0.5486  0.0427
  141DOPC   O1116644   4.633   2.327   7.140  0.3329 -0.0737  0.3267
  141DOPC    C116645   4.758   2.281   7.082 -0.7058  0.1993 -0.2672
  141DOPC    HA16646   4.788   2.180   7.114  0.1337  0.9533  1.4330
  141DOPC    HB16647   4.842   2.344   7.117 -0.0775 -1.2644  0.9332
  141DOPC    C216648   4.752   2.290   6.924  0.0866  0.2589  0.4459
  141DOPC    HS16649   4.850   2.255   6.885  1.0784  2.3275  0.9755
  141DOPC   O2116650   4.714   2.429   6.883 -0.7020  0.1051 -0.4244
  141DOPC   C2116651   4.819   2.508   6.892 -0.2665  0.1024 -0.5061
  141DOPC   O2216652   4.932   2.471   6.918  0.7104  0.4700  0.3775
  141DOPC   C2216653   4.779   2.641   6.840  0.1983  0.8405  0.2092
  141DOPC   H2R16654   4.669   2.645   6.822  0.2449  1.3552  0.0017
  141DOPC   H2S16655   4.832   2.638   6.743  1.1365 -2.4335  0.7287
  141DOPC    C316656   4.652   2.199   6.849  0.5437 -0.0873  0.0581
  141DOPC    HX16657   4.548   2.213   6.886  0.5040  0.1968 -0.1599
  141DOPC    HY16658   4.670   2.091   6.869  0.0146 -0.0284  0.8899
  141DOPC   O3116659   4.648   2.213   6.700 -0.0403 -0.3366 -0.4225
  141DOPC   C3116660   4.738   2.168   6.620 -0.9692  0.0938  0.5402
  141DOPC   O3216661   4.834   2.097   6.655 -0.5037 -0.0688 -0.2200
  141DOPC   C3216662   4.717   2.228   6.483 -0.1327 -0.5362 -0.2744
  141DOPC   H2X16663   4.611   2.223   6.453  0.0748  0.4146 -1.2144
  141DOPC   H2Y16664   4.733   2.338   6.483  1.6053 -0.7479  0.5523
  141DOPC   C2316665   4.836   2.765   6.916 -0.1487 -0.6479  0.3386
  141DOPC   H3R16666   4.941   2.736   6.937 -0.6796 -2.1548  1.0595
  141DOPC   H3S16667   4.790   2.789   7.014  1.5182  1.4879  0.6747
  141DOPC   C2416668   4.840   2.895   6.838  0.6425 -0.1036  1.1583
  141DOPC   H4R16669   4.734   2.926   6.826  1.0060  0.6756 -0.3275
  141DOPC   H4S16670   4.891   2.881   6.740  1.2904 -0.0348  1.4803
  141DOPC   C2516671   4.907   3.011   6.912  0.2552  0.0949 -0.1418
  141DOPC   H5R16672   5.006   2.972   6.945  0.2580 -0.0444 -0.3084
  141DOPC   H5S16673   4.851   3.027   7.006 -0.7354  0.9498 -0.8563
  141DOPC   C2616674   4.927   3.124   6.823  0.6425 -1.2023  0.9376
  141DOPC   H6R16675   4.829   3.176   6.812 -0.6773 -3.8684 -1.5110
  141DOPC   H6S16676   4.944   3.085   6.720  1.3001  2.6319 -0.5412
  141DOPC   C2716677   5.030   3.228   6.870  0.4432  0.4057  0.1025
  141DOPC   H7R16678   5.125   3.179   6.901  0.1140  0.0884  0.6181
  141DOPC   H7S16679   5.008   3.278   6.967 -1.6661 -1.0964  0.4789
  141DOPC   C2816680   5.061   3.345   6.774 -0.1251  0.4446 -1.1902
  141DOPC   H8R16681   5.114   3.300   6.687  0.2804  0.5455 -0.9962
  141DOPC   H8S16682   5.127   3.411   6.833  0.6149 -1.7853  0.6340
  141DOPC   C2916683   4.928   3.410   6.733  0.3442 -0.3662  0.3163
  141DOPC   H9R16684   4.861   3.428   6.818 -1.4334 -2.0691 -0.6617
  141DOPC  C21016685   4.873   3.413   6.609 -0.1075  0.7554 -0.3354
  141DOPC  H10R16686   4.773   3.455   6.591 -0.6154  0.2539  1.1353
  141DOPC  C21116687   4.944   3.368   6.488  0.3532 -0.7675 -0.1765
  141DOPC  H11R16688   4.993   3.270   6.502 -0.0118 -0.8586  0.4620
  141DOPC  H11S16689   5.024   3.444   6.480  1.1891 -1.7525 -1.6760
  141DOPC  C21216690   4.858   3.370   6.363 -0.1825 -0.2690  0.4972
  141DOPC  H12R16691   4.864   3.473   6.322 -1.4147  0.2778  1.6513
  141DOPC  H12S16692   4.753   3.336   6.371  0.1173 -1.3309  0.1422
  141DOPC  C21316693   4.915   3.282   6.248 -0.3390  0.1449  1.0326
  141DOPC  H13R16694   4.858   3.314   6.158  0.9313 -0.4457 -0.0084
  141DOPC  H13S16695   4.903   3.172   6.248  1.2672 -0.2159 -3.2621
  141DOPC  C21416696   5.061   3.319   6.224 -0.6406  0.2030 -0.5527
  141DOPC  H14R16697   5.118   3.267   6.305  0.6745  0.3126 -1.3806
  141DOPC  H14S16698   5.094   3.425   6.233 -0.4557 -0.0019  1.7212
  141DOPC  C21516699   5.108   3.264   6.089  0.8429 -0.4289  0.3270
  141DOPC  H15R16700   5.073   3.319   5.999  1.5320  0.4939  0.6013
  141DOPC  H15S16701   5.072   3.160   6.084  1.9690 -1.0665  3.3164
  141DOPC  C21616702   5.261   3.251   6.071  0.4191  0.4413  0.2872
  141DOPC  H16R16703   5.292   3.191   6.160  0.2811 -1.2310 -0.7550
  141DOPC  H16S16704   5.313   3.347   6.089 -0.3991  0.9359  0.0698
  141DOPC  C21716705   5.301   3.182   5.940  0.3894  0.2689  0.3563
  141DOPC  H17R16706   5.410   3.205   5.931  0.1425  1.5636  0.4545
  141DOPC  H17S16707   5.241   3.233   5.862  1.7653 -0.6576 -1.3813
  141DOPC  C21816708   5.291   3.034   5.938  0.3970  0.5904 -0.1763
  141DOPC  H18R16709   5.185   3.002   5.926  0.9208 -0.4343 -2.7750
  141DOPC  H18S16710   5.327   2.982   6.029 -1.1203 -0.7633 -0.3064
  141DOPC  H18T16711   5.349   3.010   5.846  0.9550  2.4130 -0.3375
  141DOPC   C3316712   4.805   2.156   6.372 -0.3818  0.1681 -0.1439
  141DOPC   H3X16713   4.785   2.047   6.364 -0.3761  0.2030 -0.6491
  141DOPC   H3Y16714   4.912   2.167   6.400 -0.3224  1.6364 -0.8266
  141DOPC   C3416715   4.780   2.216   6.232  0.3890 -0.0034  0.0162
  141DOPC   H4X16716   4.681   2.267   6.235  0.6734  0.6369 -1.0907
  141DOPC   H4Y16717   4.791   2.140   6.151  2.9551  1.3253 -1.0009
  141DOPC   C3516718   4.867   2.340   6.196 -0.4650  0.1895 -0.0799
  141DOPC   H5X16719   4.970   2.299   6.193 -0.2417  0.6822  0.5635
  141DOPC   H5Y16720   4.853   2.402   6.287  0.8112  1.4538 -0.7119
  141DOPC   C3616721   4.822   2.406   6.069  0.0956  0.6509 -0.5769
  141DOPC   H6X16722   4.712   2.425   6.064 -0.2189 -1.0215 -0.6137
  141DOPC   H6Y16723   4.863   2.508   6.086  0.7821  0.6378 -2.0322
  141DOPC   C3716724   4.880   2.343   5.939 -0.3051  1.0263  0.3054
  141DOPC   H7X16725   4.991   2.352   5.948 -0.0695  2.5629 -2.8376
  141DOPC   H7Y16726   4.858   2.234   5.936 -2.9555  1.4902  0.9256
  141DOPC   C3816727   4.846   2.413   5.805 -0.1063  0.2739 -0.5774
  141DOPC   H8X16728   4.836   2.521   5.828 -0.1986  0.6703 -2.3227
  141DOPC   H8Y16729   4.741   2.393   5.776 -0.0804 -1.2956  0.2866
  141DOPC   C3916730   4.943   2.384   5.693 -0.2146  0.3872 -0.7605
  141DOPC   H9X16731   5.047   2.403   5.722 -1.1340  0.4891  3.0036
  141DOPC  C31016732   4.906   2.348   5.568 -0.2270  0.0973 -0.2973
  141DOPC  H10X16733   4.989   2.320   5.502  0.6180 -0.8822  1.1129
  141DOPC  C31116734   4.766   2.333   5.515  0.0330  0.9399  0.1802
  141DOPC  H11X16735   4.764   2.371   5.411  0.2578  0.5688  0.0399
  141DOPC  H11Y16736   4.694   2.392   5.577  0.1639  0.6316  0.6352
  141DOPC  C31216737   4.724   2.184   5.505  0.2261 -0.6179  1.2275
  141DOPC  H12X16738   4.707   2.153   5.610 -1.5920 -0.1846  1.0993
  141DOPC  H12Y16739   4.812   2.127   5.468  0.4983  0.9348 -0.6688
  141DOPC  C31316740   4.613   2.150   5.404  0.7533  0.0086  0.1538
  141DOPC  H13X16741   4.596   2.040   5.403 -1.1342  0.2743  0.1784
  141DOPC  H13Y16742   4.522   2.195   5.449 -1.0411 -2.2623 -1.0329
  141DOPC  C31416743   4.639   2.212   5.266  0.2311  0.7595  0.0049
  141DOPC  H14X16744   4.634   2.323   5.261 -2.2736  0.6900 -0.3021
  141DOPC  H14Y16745   4.741   2.184   5.233 -0.2915  0.4467 -1.4025
  141DOPC  C31516746   4.536   2.159   5.172  0.6195  0.8495  0.3621
  141DOPC  H15X16747   4.538   2.048   5.171 -2.4161  0.6705  1.9868
  141DOPC  H15Y16748   4.555   2.193   5.068 -1.7254  0.6305 -0.1991
  141DOPC  C31616749   4.390   2.192   5.197  0.3802 -0.7875 -0.7687
  141DOPC  H16X16750   4.362   2.148   5.294 -0.8708 -0.6565 -1.0463
  141DOPC  H16Y16751   4.365   2.301   5.198 -2.1130 -1.2667 -1.8831
  141DOPC  C31716752   4.289   2.130   5.086 -0.9013  0.3390 -0.4750
  141DOPC  H17X16753   4.334   2.146   4.986  1.9629 -1.7145  0.3398
  141DOPC  H17Y16754   4.279   2.020   5.090  1.3994 -0.2994 -5.0912
  141DOPC  C31816755   4.154   2.195   5.084  0.3137  0.0454 -0.3264
  141DOPC  H18X16756   4.097   2.144   5.003  0.9584 -1.0204 -0.1401
  141DOPC  H18Y16757   4.090   2.163   5.170  1.2348 -0.9792 -0.0053
  141DOPC  H18Z16758   4.163   2.305   5.078 -1.8141  0.3366  0.5466
  142DOPC     N16759   5.554   4.774   6.974  0.3836 -0.0828  0.4120
  142DOPC   C1216760   5.452   4.654   6.957  0.3491 -0.0745 -0.6480
  142DOPC  H12A16761   5.376   4.675   6.884 -2.1458  2.5562  2.3475
  142DOPC  H12B16762   5.388   4.655   7.044  0.1631 -1.1189 -0.7615
  142DOPC   C1316763   5.487   4.908   6.976  0.3990  0.4846  0.1571
  142DOPC  H13A16764   5.434   4.932   7.067  2.3623 -0.1668  1.5582
  142DOPC  H13B16765   5.556   4.991   6.975  0.5773  0.3377  0.0505
  142DOPC  H13C16766   5.419   4.930   6.895  0.4024 -2.0733 -0.6217
  142DOPC   C1416767   5.651   4.769   6.857  0.4122  0.1375  0.5658
  142DOPC  H14A16768   5.708   4.678   6.863 -0.2126 -0.1545  2.7929
  142DOPC  H14B16769   5.596   4.769   6.763 -0.8200  1.9098  1.2235
  142DOPC  H14C16770   5.710   4.859   6.861  0.5375  0.2154 -1.6520
  142DOPC   C1516771   5.627   4.759   7.101 -0.1392 -0.2023 -0.5324
  142DOPC  H15A16772   5.673   4.662   7.109 -0.2588 -0.1924  0.3788
  142DOPC  H15B16773   5.560   4.783   7.183 -0.0039 -0.3396 -0.3796
  142DOPC  H15C16774   5.710   4.827   7.113 -0.7306  0.3972  0.2628
  142DOPC   C1116775   5.505   4.508   6.946 -0.4263 -0.4881 -0.3820
  142DOPC  H11A16776   5.421   4.438   6.922 -0.3045  0.1659 -2.9575
  142DOPC  H11B16777   5.564   4.504   6.852  0.9402  2.2647  0.2582
  142DOPC     P16778   5.541   4.369   7.166  0.4305 -0.2510  0.2044
  142DOPC   O1316779   5.420   4.429   7.236 -0.4613 -0.6806 -0.3002
  142DOPC   O1416780   5.653   4.348   7.262 -0.1993 -0.3084  0.0669
  142DOPC   O1216781   5.584   4.467   7.056  0.7587 -0.5344 -0.1382
  142DOPC   O1116782   5.502   4.236   7.093 -0.1697 -0.4693  0.0705
  142DOPC    C116783   5.601   4.155   7.033  0.2059  0.2119  0.0767
  142DOPC    HA16784   5.573   4.049   7.051 -0.1781  0.6453  2.4283
  142DOPC    HB16785   5.704   4.171   7.072 -0.1670  1.8333  0.4801
  142DOPC    C216786   5.612   4.196   6.884 -0.1380  0.4571  0.2979
  142DOPC    HS16787   5.670   4.290   6.878  0.5944  0.2300  2.7687
  142DOPC   O2116788   5.481   4.205   6.824  0.1088  0.3315  0.5127
  142DOPC   C2116789   5.475   4.249   6.700  0.7758 -0.5466 -0.9066
  142DOPC   O2216790   5.564   4.300   6.633  0.3295 -0.0333  1.0696
  142DOPC   C2216791   5.331   4.214   6.650 -0.6646 -0.2874  0.5557
  142DOPC   H2R16792   5.252   4.242   6.723 -0.3169 -1.4329  1.3954
  142DOPC   H2S16793   5.337   4.107   6.621  2.3849 -0.2046  0.6272
  142DOPC    C316794   5.711   4.088   6.809 -0.1959 -0.4206 -0.2381
  142DOPC    HX16795   5.820   4.102   6.829  0.3624 -0.1519 -3.0145
  142DOPC    HY16796   5.703   4.123   6.704  1.3460  0.6182 -0.0577
  142DOPC   O3116797   5.668   3.951   6.812  0.3172 -0.1398 -0.5428
  142DOPC   C3116798   5.744   3.864   6.870  1.2287 -0.0633 -0.4593
  142DOPC   O3216799   5.831   3.893   6.948 -0.6147 -0.6348 -0.4200
  142DOPC   C3216800   5.734   3.725   6.811  0.1865  0.3418 -0.2451
  142DOPC   H2X16801   5.814   3.666   6.859  0.7913  0.8261 -0.6383
  142DOPC   H2Y16802   5.631   3.689   6.830  1.1081 -1.7710  1.0428
  142DOPC   C2316803   5.293   4.299   6.521 -0.3369  0.8702 -0.1773
  142DOPC   H3R16804   5.366   4.296   6.438  1.6143  1.1528  1.4529
  142DOPC   H3S16805   5.263   4.405   6.533  0.2473  1.0603 -0.3956
  142DOPC   C2416806   5.167   4.229   6.458  0.8410 -0.0583 -0.0018
  142DOPC   H4R16807   5.092   4.217   6.539 -0.7369 -0.6122 -1.5026
  142DOPC   H4S16808   5.200   4.128   6.424  0.4978  0.4905 -2.1215
  142DOPC   C2516809   5.115   4.308   6.346  0.1374  0.6547  0.2395
  142DOPC   H5R16810   5.200   4.309   6.274 -0.1119 -0.6740 -0.1016
  142DOPC   H5S16811   5.078   4.407   6.379 -0.7063  0.0455  1.1826
  142DOPC   C2616812   4.985   4.245   6.275 -0.0981 -0.3794  0.3663
  142DOPC   H6R16813   4.901   4.232   6.347  0.0752 -0.3666  0.5700
  142DOPC   H6S16814   5.019   4.143   6.249 -1.3706 -1.7310  3.4529
  142DOPC   C2716815   4.940   4.330   6.163  0.8382 -0.0098  0.1223
  142DOPC   H7R16816   5.024   4.342   6.092  2.1321 -0.7323  1.4909
  142DOPC   H7S16817   4.917   4.433   6.201  0.1262  0.3735 -1.2821
  142DOPC   C2816818   4.823   4.279   6.078  0.0870  0.0133  0.1019
  142DOPC   H8R16819   4.738   4.284   6.150  1.8203  0.1022  2.2242
  142DOPC   H8S16820   4.843   4.175   6.046 -0.9946 -0.6226  1.4070
  142DOPC   C2916821   4.797   4.363   5.957  0.3670  0.1587  0.3758
  142DOPC   H9R16822   4.840   4.464   5.971  0.3911  0.4641 -1.6015
  142DOPC  C21016823   4.730   4.330   5.842 -0.1124  0.5549  0.0514
  142DOPC  H10R16824   4.717   4.404   5.761  0.0035  1.0273  0.4571
  142DOPC  C21116825   4.674   4.194   5.806 -0.0965  0.1717 -0.0101
  142DOPC  H11R16826   4.567   4.215   5.784  0.4538  1.4426 -1.6107
  142DOPC  H11S16827   4.697   4.122   5.887  0.3107  1.0232  0.6570
  142DOPC  C21216828   4.744   4.145   5.671 -0.1855  1.0066  0.4889
  142DOPC  H12R16829   4.697   4.049   5.639  2.3070 -0.5190  1.1175
  142DOPC  H12S16830   4.850   4.120   5.693  0.5407  2.6728 -0.9403
  142DOPC  C21316831   4.761   4.238   5.554 -0.1737  0.7036  0.3923
  142DOPC  H13R16832   4.833   4.316   5.585 -0.1284  0.6552  0.4094
  142DOPC  H13S16833   4.662   4.281   5.528 -0.0108  0.2085 -1.1425
  142DOPC  C21416834   4.802   4.158   5.429 -0.0158 -0.1546 -1.0269
  142DOPC  H14R16835   4.741   4.066   5.425  0.9131 -0.7589 -2.0417
  142DOPC  H14S16836   4.909   4.128   5.435  0.8092  2.3169 -1.9738
  142DOPC  C21516837   4.786   4.237   5.296  0.7848  0.1447  0.2284
  142DOPC  H15R16838   4.882   4.283   5.262  1.0457 -0.7981 -0.3319
  142DOPC  H15S16839   4.723   4.328   5.312 -1.0041 -1.4072  2.7252
  142DOPC  C21616840   4.742   4.160   5.171  0.6904  0.5664  0.7337
  142DOPC  H16R16841   4.817   4.079   5.158 -0.7821 -0.7516  0.1384
  142DOPC  H16S16842   4.749   4.225   5.081 -2.4211 -0.8022 -0.6221
  142DOPC  C21716843   4.595   4.107   5.169  0.0221 -0.1581 -0.0111
  142DOPC  H17R16844   4.533   4.195   5.193  0.5622  0.3447 -0.4380
  142DOPC  H17S16845   4.586   4.027   5.245  0.5400 -1.2068 -1.0108
  142DOPC  C21816846   4.534   4.063   5.028  0.1975 -0.0266  0.3856
  142DOPC  H18R16847   4.601   3.995   4.972  0.2367  1.9681 -2.1762
  142DOPC  H18S16848   4.521   4.152   4.962 -0.9101 -0.3811  0.1015
  142DOPC  H18T16849   4.433   4.017   5.031 -0.0009  0.4194  0.8557
  142DOPC   C3316850   5.747   3.721   6.656  0.3992  0.0234 -0.4073
  142DOPC   H3X16851   5.712   3.809   6.597 -1.2117 -0.5327 -0.3501
  142DOPC   H3Y16852   5.678   3.648   6.609 -2.6218  2.4281 -0.0735
  142DOPC   C3416853   5.889   3.671   6.611  0.0585  0.0535  0.1551
  142DOPC   H4X16854   5.917   3.579   6.666  1.0523  0.6770  0.7232
  142DOPC   H4Y16855   5.963   3.752   6.630  0.6486 -0.3924 -0.2457
  142DOPC   C3516856   5.899   3.645   6.462 -0.4639  0.4174  0.0814
  142DOPC   H5X16857   5.812   3.584   6.428 -1.3435  1.3243  0.6380
  142DOPC   H5Y16858   5.986   3.577   6.450 -1.1147 -0.7603  1.6568
  142DOPC   C3616859   5.904   3.770   6.373 -0.8135 -0.3002 -1.1736
  142DOPC   H6X16860   5.809   3.819   6.402 -0.5053 -1.3463  1.9927
  142DOPC   H6Y16861   5.994   3.830   6.398 -1.3245 -0.4120  1.1708
  142DOPC   C3716862   5.923   3.738   6.223  0.6687  0.7958 -0.2317
  142DOPC   H7X16863   5.948   3.832   6.168  1.2659 -1.0887 -3.4295
  142DOPC   H7Y16864   6.015   3.676   6.221 -0.7504 -1.4365 -3.1373
  142DOPC   C3816865   5.793   3.678   6.163  0.1157  0.4080  0.8368
  142DOPC   H8X16866   5.719   3.761   6.165 -0.1544  0.2892 -1.5731
  142DOPC   H8Y16867   5.754   3.590   6.218 -0.3874  0.4480  0.5496
  142DOPC   C3916868   5.815   3.635   6.018 -0.2464 -0.6278  0.6138
  142DOPC   H9X16869   5.921   3.626   5.991  0.9798  1.9284  3.9471
  142DOPC  C31016870   5.719   3.630   5.923 -1.2264 -0.7757 -0.2036
  142DOPC  H10X16871   5.757   3.598   5.825  1.4912  0.3367  0.3888
  142DOPC  C31116872   5.572   3.656   5.942 -0.1963 -0.5461  0.0985
  142DOPC  H11X16873   5.559   3.765   5.925  0.1189 -0.7848 -1.8803
  142DOPC  H11Y16874   5.542   3.640   6.048 -1.1507 -3.1556 -0.4973
  142DOPC  C31216875   5.472   3.570   5.862 -0.0034 -0.1859 -0.5857
  142DOPC  H12X16876   5.369   3.596   5.897 -0.3226 -2.4383  0.2927
  142DOPC  H12Y16877   5.477   3.464   5.894  1.0609  0.2248  0.7224
  142DOPC  C31316878   5.471   3.602   5.713  0.1093  0.0604  0.6868
  142DOPC  H13X16879   5.570   3.598   5.662 -0.3211 -0.9427 -0.1122
  142DOPC  H13Y16880   5.424   3.520   5.655  1.7815  0.2796 -1.1000
  142DOPC  C31416881   5.401   3.745   5.675  0.1430  0.2453  0.5496
  142DOPC  H14X16882   5.302   3.736   5.725 -0.5995  3.3269 -0.1711
  142DOPC  H14Y16883   5.460   3.829   5.718  2.9711 -1.5216  0.3816
  142DOPC  C31516884   5.383   3.769   5.523  0.6704  1.0339 -0.7999
  142DOPC  H15X16885   5.308   3.696   5.486  0.1867 -0.8660  3.3011
  142DOPC  H15Y16886   5.480   3.759   5.470 -0.9814 -3.1138 -3.5590
  142DOPC  C31616887   5.322   3.902   5.488 -0.2781 -0.8270  1.0318
  142DOPC  H16X16888   5.223   3.912   5.539 -1.7931 -1.9012 -1.5443
  142DOPC  H16Y16889   5.385   3.986   5.525  1.6803 -1.5443 -0.5142
  142DOPC  C31716890   5.297   3.917   5.335  0.3296  0.1992  0.1887
  142DOPC  H17X16891   5.263   4.019   5.306 -0.7070 -0.5832 -1.4857
  142DOPC  H17Y16892   5.401   3.920   5.296  0.6457  1.1872  1.0606
  142DOPC  C31816893   5.197   3.821   5.277  0.6757  0.4567  0.2553
  142DOPC  H18X16894   5.239   3.721   5.296 -0.5420  0.3858  2.9992
  142DOPC  H18Y16895   5.092   3.828   5.313  1.2792 -1.0071  2.4816
  142DOPC  H18Z16896   5.182   3.835   5.167 -1.4577 -0.8135  0.3286
  143DOPC     N16897   2.443   3.141   6.946  0.5530  0.0655 -0.2270
  143DOPC   C1216898   2.476   3.280   6.898  0.3690  0.8820 -0.7866
  143DOPC  H12A16899   2.534   3.276   6.807  2.1043  0.5192  0.2946
  143DOPC  H12B16900   2.547   3.317   6.970 -0.6501  0.2090  0.6129
  143DOPC   C1316901   2.557   3.056   6.969  0.2133  0.4780  0.1358
  143DOPC  H13A16902   2.533   2.958   7.006 -0.2537  0.1163 -1.0989
  143DOPC  H13B16903   2.611   3.040   6.877 -2.3968 -0.2606 -1.3563
  143DOPC  H13C16904   2.629   3.098   7.038 -0.1352 -0.2378  0.9623
  143DOPC   C1416905   2.348   3.075   6.846  0.6024 -0.0939 -0.4059
  143DOPC  H14A16906   2.399   3.049   6.754  1.8945 -1.6826  0.7073
  143DOPC  H14B16907   2.305   2.987   6.891  2.3005 -0.3737  0.7408
  143DOPC  H14C16908   2.266   3.144   6.832  0.5384  0.5495  2.5591
  143DOPC   C1516909   2.358   3.142   7.078  0.1924  0.3474  0.2103
  143DOPC  H15A16910   2.416   3.171   7.165 -0.5116  0.2074  0.7346
  143DOPC  H15B16911   2.307   3.049   7.099 -1.3000  0.9782 -0.4529
  143DOPC  H15C16912   2.280   3.216   7.085 -1.8657 -1.6240 -0.6039
  143DOPC   C1116913   2.360   3.381   6.886 -0.2965 -0.4790 -0.3504
  143DOPC  H11A16914   2.296   3.384   6.977 -0.4357  1.4352 -0.4588
  143DOPC  H11B16915   2.403   3.483   6.870 -0.7075 -0.0025  1.3610
  143DOPC     P16916   2.322   3.355   6.624  0.0792  0.0338  0.2733
  143DOPC   O1316917   2.245   3.469   6.562 -0.3805  0.3995 -0.1087
  143DOPC   O1416918   2.306   3.219   6.560 -0.6133 -0.1884  0.1065
  143DOPC   O1216919   2.271   3.347   6.771  0.0362  0.4051 -0.2411
  143DOPC   O1116920   2.482   3.390   6.630 -0.1450 -0.3288 -0.0484
  143DOPC    C116921   2.546   3.477   6.533  0.1558 -0.6500 -0.0699
  143DOPC    HA16922   2.589   3.563   6.588 -0.2159  0.5030 -1.5066
  143DOPC    HB16923   2.478   3.518   6.455  0.0433 -0.1587  0.2839
  143DOPC    C216924   2.658   3.393   6.452  0.1280 -0.1399 -0.8460
  143DOPC    HS16925   2.690   3.461   6.371 -0.6702  0.1887 -0.8959
  143DOPC   O2116926   2.619   3.269   6.381  0.1467 -0.1345  0.5150
  143DOPC   C2116927   2.525   3.283   6.284 -0.7516  0.7589  0.1903
  143DOPC   O2216928   2.480   3.390   6.254 -0.5404 -0.1330  0.1014
  143DOPC   C2216929   2.510   3.154   6.199 -0.1491 -0.1345  0.1652
  143DOPC   H2R16930   2.451   3.074   6.248 -0.7718  0.3659  0.2538
  143DOPC   H2S16931   2.607   3.099   6.193 -0.9383 -1.7448  1.5385
  143DOPC    C316932   2.768   3.355   6.553  0.3421  0.4597  0.3642
  143DOPC    HX16933   2.721   3.299   6.636 -2.4682 -0.0641 -1.4320
  143DOPC    HY16934   2.793   3.452   6.602 -3.3881  2.1937 -0.7743
  143DOPC   O3116935   2.877   3.276   6.498  0.7307  0.4301 -0.3339
  143DOPC   C3116936   2.953   3.339   6.409  0.3081  0.0821 -0.1259
  143DOPC   O3216937   2.937   3.452   6.372 -0.1187  0.0063  0.7505
  143DOPC   C3216938   3.068   3.248   6.363 -0.1979 -0.3124  0.7890
  143DOPC   H2X16939   3.160   3.302   6.331 -0.7707 -0.1254 -0.6185
  143DOPC   H2Y16940   3.093   3.186   6.452 -2.8409 -0.6298  1.3876
  143DOPC   C2316941   2.457   3.196   6.060 -0.5149  0.0854  0.6600
  143DOPC   H3R16942   2.374   3.269   6.073 -0.6659  0.1331 -0.4699
  143DOPC   H3S16943   2.415   3.109   6.006  1.2295  0.0316 -0.7095
  143DOPC   C2416944   2.565   3.260   5.969 -0.4231 -0.4024  0.0982
  143DOPC   H4R16945   2.632   3.177   5.938  0.9544  0.8547 -0.4166
  143DOPC   H4S16946   2.617   3.333   6.035 -0.0329  1.4114 -2.0860
  143DOPC   C2516947   2.499   3.331   5.847  0.1063  0.5932 -0.0200
  143DOPC   H5R16948   2.580   3.381   5.789  0.0135 -1.6701 -2.3039
  143DOPC   H5S16949   2.416   3.396   5.880 -0.4061 -0.9250  1.8487
  143DOPC   C2616950   2.439   3.227   5.745  0.6424  0.1447 -0.5330
  143DOPC   H6R16951   2.355   3.169   5.789  0.2692  2.5341  2.2412
  143DOPC   H6S16952   2.526   3.164   5.716  0.6255  0.5184 -1.4478
  143DOPC   C2716953   2.401   3.286   5.606  0.1959 -0.0584  0.1835
  143DOPC   H7R16954   2.362   3.203   5.544 -0.0816  0.4266 -0.2890
  143DOPC   H7S16955   2.498   3.319   5.562 -0.6959  1.7593 -0.4629
  143DOPC   C2816956   2.313   3.412   5.599  0.1093 -0.2865  0.1217
  143DOPC   H8R16957   2.351   3.486   5.674 -0.3845 -1.8290  1.9719
  143DOPC   H8S16958   2.214   3.385   5.640 -0.0764  1.2581  0.7949
  143DOPC   C2916959   2.306   3.478   5.462  0.4386  0.0533  0.3914
  143DOPC   H9R16960   2.407   3.487   5.421  0.1489  2.0000  0.0091
  143DOPC  C21016961   2.201   3.515   5.388  0.2821  0.4778 -0.1144
  143DOPC  H10R16962   2.219   3.548   5.285 -0.2142  0.1881 -0.2933
  143DOPC  C21116963   2.059   3.508   5.435 -0.1567  0.0387  0.1138
  143DOPC  H11R16964   2.043   3.594   5.503  2.8453  0.7111  0.1221
  143DOPC  H11S16965   2.043   3.418   5.498  0.1430  0.2579  0.5069
  143DOPC  C21216966   1.948   3.495   5.333  0.4816  0.5195 -0.0350
  143DOPC  H12R16967   1.973   3.408   5.267  0.0348 -1.0766  1.8050
  143DOPC  H12S16968   1.930   3.588   5.276  0.2356  0.4723 -0.0371
  143DOPC  C21316969   1.814   3.464   5.401  0.7753 -0.0707  0.3236
  143DOPC  H13R16970   1.811   3.531   5.490 -2.1479 -0.6572  0.7907
  143DOPC  H13S16971   1.796   3.362   5.442 -3.5120 -0.7397 -2.5036
  143DOPC  C21416972   1.692   3.515   5.331  0.0504 -0.3414  0.7835
  143DOPC  H14R16973   1.678   3.472   5.230  2.1345 -1.2602  0.8547
  143DOPC  H14S16974   1.700   3.625   5.316  0.7050 -0.6159 -1.0582
  143DOPC  C21516975   1.567   3.491   5.415 -0.0706  0.3385 -0.0669
  143DOPC  H15R16976   1.586   3.522   5.520  2.4573 -0.6105 -0.1626
  143DOPC  H15S16977   1.549   3.381   5.420  1.5197  0.1099  2.7859
  143DOPC  C21616978   1.444   3.573   5.354  0.1204 -0.4894  0.0932
  143DOPC  H16R16979   1.469   3.679   5.376 -0.0794 -0.2787 -0.6862
  143DOPC  H16S16980   1.361   3.545   5.424 -1.4389 -1.2765 -1.9677
  143DOPC  C21716981   1.401   3.550   5.213 -0.6996 -0.2578 -1.2046
  143DOPC  H17R16982   1.479   3.586   5.142 -0.1115 -0.5047 -0.6983
  143DOPC  H17S16983   1.317   3.621   5.198 -0.2931  0.3430 -0.6857
  143DOPC  C21816984   1.366   3.398   5.181 -0.0050 -0.2911 -0.3310
  143DOPC  H18R16985   1.457   3.335   5.179  0.2262 -0.0401  1.2035
  143DOPC  H18S16986   1.316   3.394   5.082  0.0297  1.9409 -0.4867
  143DOPC  H18T16987   1.293   3.369   5.260 -2.6674  0.2127 -2.4506
  143DOPC   C3316988   3.027   3.151   6.249  0.3501 -0.2518 -0.0220
  143DOPC   H3X16989   2.936   3.094   6.276  1.7056 -1.5302  2.1264
  143DOPC   H3Y16990   3.113   3.081   6.242  1.1321  0.6923 -0.0756
  143DOPC   C3416991   3.009   3.213   6.100 -0.6449 -0.4318  0.0559
  143DOPC   H4X16992   3.097   3.281   6.088  0.8113 -2.4225 -1.0525
  143DOPC   H4Y16993   2.910   3.263   6.112 -0.8395 -0.5230 -1.0271
  143DOPC   C3516994   2.993   3.109   5.988 -0.0334 -0.9081  0.3739
  143DOPC   H5X16995   2.908   3.048   6.023  0.2292 -1.1243  0.6333
  143DOPC   H5Y16996   3.079   3.041   5.973 -0.1132 -0.8165 -0.5980
  143DOPC   C3616997   2.949   3.168   5.853  0.5704 -0.4417 -0.5450
  143DOPC   H6X16998   2.857   3.231   5.861  0.8230 -0.1891  0.6557
  143DOPC   H6Y16999   3.028   3.236   5.816 -0.3865  0.9531 -0.1432
  143DOPC   C3717000   2.939   3.056   5.746  0.2416  0.4653 -0.1682
  143DOPC   H7X17001   3.029   2.993   5.767 -0.9819 -0.7841  1.6644
  143DOPC   H7Y17002   2.851   2.989   5.752  0.6753 -0.1473 -0.5156
  143DOPC   C3817003   2.933   3.115   5.607  0.1562  0.3382 -0.9591
  143DOPC   H8X17004   2.969   3.052   5.522 -0.6788  1.2070 -1.9764
  143DOPC   H8Y17005   3.011   3.194   5.606 -0.0037  0.5585  0.9012
  143DOPC   C3917006   2.803   3.163   5.558  0.5700 -0.0602 -0.2602
  143DOPC   H9X17007   2.745   3.223   5.630 -0.9041 -1.4471 -0.2368
  143DOPC  C31017008   2.741   3.160   5.436 -0.1781  0.8832 -0.6053
  143DOPC  H10X17009   2.635   3.186   5.432  0.3747  3.3005 -1.2359
  143DOPC  C31117010   2.801   3.106   5.307 -0.3431  0.0125  0.3045
  143DOPC  H11X17011   2.741   3.021   5.269 -0.3740 -0.1799  0.7713
  143DOPC  H11Y17012   2.905   3.072   5.323  0.0152 -0.7091 -2.9513
  143DOPC  C31217013   2.789   3.206   5.189 -0.1882  0.1372 -0.4250
  143DOPC  H12X17014   2.832   3.160   5.097  2.3583  1.1915  0.1394
  143DOPC  H12Y17015   2.849   3.297   5.210  0.5942 -0.2281 -1.0214
  143DOPC  C31317016   2.650   3.261   5.160  0.4056 -0.2840  0.1236
  143DOPC  H13X17017   2.591   3.168   5.138  1.0630 -0.7331  0.2335
  143DOPC  H13Y17018   2.603   3.311   5.247 -0.0708 -0.3476 -0.0891
  143DOPC  C31417019   2.639   3.364   5.044 -0.4492  0.4509 -0.1164
  143DOPC  H14X17020   2.720   3.436   5.068  0.8415 -1.2224  0.8596
  143DOPC  H14Y17021   2.655   3.305   4.951 -1.4369 -2.3783  1.3727
  143DOPC  C31517022   2.499   3.437   5.039 -0.2237  0.7002 -0.5119
  143DOPC  H15X17023   2.492   3.487   4.940 -3.0143 -0.7142 -1.1342
  143DOPC  H15Y17024   2.507   3.515   5.117  0.9381 -1.6013  1.8299
  143DOPC  C31617025   2.375   3.349   5.069  0.3899 -0.0816  1.2654
  143DOPC  H16X17026   2.387   3.257   5.008 -0.9726  1.1617 -1.0261
  143DOPC  H16Y17027   2.352   3.318   5.173 -1.5586 -0.3935  0.7881
  143DOPC  C31717028   2.252   3.415   5.000 -0.4513  0.0714  0.1861
  143DOPC  H17X17029   2.233   3.509   5.057 -0.0551 -0.7013  1.6421
  143DOPC  H17Y17030   2.276   3.446   4.896  0.7511  0.0884  0.4586
  143DOPC  C31817031   2.128   3.326   4.993 -0.5967 -0.1480 -0.5116
  143DOPC  H18X17032   2.031   3.379   4.981  0.1952  1.3629 -0.4378
  143DOPC  H18Y17033   2.128   3.255   4.907  1.6868 -1.6178  0.6011
  143DOPC  H18Z17034   2.116   3.275   5.091 -0.4280 -0.8038 -0.8258
  144DOPC     N17035   2.968   2.649   6.759 -0.1408  0.2823  0.0625
  144DOPC   C1217036   3.012   2.766   6.840 -0.6845  0.0549 -0.3426
  144DOPC  H12A17037   2.930   2.836   6.839 -0.3932  0.3899 -0.7751
  144DOPC  H12B17038   3.092   2.813   6.786 -1.8875 -0.3640 -2.6124
  144DOPC   C1317039   3.081   2.547   6.729 -0.3557  0.5811  0.1697
  144DOPC  H13A17040   3.106   2.493   6.819  0.3833 -0.2942 -0.5420
  144DOPC  H13B17041   3.047   2.477   6.653 -0.3339  1.4675 -0.6743
  144DOPC  H13C17042   3.170   2.597   6.693 -1.4595  1.3240 -1.6984
  144DOPC   C1417043   2.919   2.691   6.621  0.2551 -0.2142  0.0708
  144DOPC  H14A17044   2.874   2.605   6.573  0.7240 -0.4264  0.0036
  144DOPC  H14B17045   2.845   2.769   6.618 -0.6929 -1.1006 -0.2675
  144DOPC  H14C17046   2.999   2.741   6.570  0.5274 -0.1390  0.5659
  144DOPC   C1517047   2.847   2.590   6.829 -0.5431  0.1409  0.2664
  144DOPC  H15A17048   2.769   2.662   6.850 -2.1490 -0.7806 -2.1333
  144DOPC  H15B17049   2.885   2.553   6.923 -0.1551  0.2174  0.1400
  144DOPC  H15C17050   2.805   2.508   6.772 -1.1964  0.3385  0.4548
  144DOPC   C1117051   3.062   2.736   6.979  1.3416 -1.0431 -0.6411
  144DOPC  H11A17052   2.971   2.703   7.034  1.3297  1.5815  1.1403
  144DOPC  H11B17053   3.133   2.651   6.987  0.6703 -1.4444  2.9665
  144DOPC     P17054   3.252   2.916   7.038  0.4825  0.4321 -0.7455
  144DOPC   O1317055   3.355   2.834   7.115 -0.2223  0.1478  0.1063
  144DOPC   O1417056   3.246   3.060   7.059 -0.2202 -0.3697  0.2108
  144DOPC   O1217057   3.104   2.858   7.042 -0.4474 -0.2881 -0.6546
  144DOPC   O1117058   3.263   2.898   6.882  0.4501  0.4734  0.2838
  144DOPC    C117059   3.396   2.874   6.832 -0.6978 -0.8646 -0.4595
  144DOPC    HA17060   3.464   2.807   6.889 -0.0625  1.2141  1.3922
  144DOPC    HB17061   3.446   2.973   6.837 -2.0583 -0.1182 -0.9929
  144DOPC    C217062   3.405   2.823   6.686  1.3582  0.1971  0.7572
  144DOPC    HS17063   3.372   2.717   6.684 -0.2263  0.6651 -0.2519
  144DOPC   O2117064   3.547   2.836   6.654 -0.6542 -0.2105 -0.1780
  144DOPC   C2117065   3.591   2.748   6.562 -0.3510  0.5454 -0.0293
  144DOPC   O2217066   3.530   2.648   6.519 -0.2889 -0.0276 -0.0470
  144DOPC   C2217067   3.732   2.782   6.505  1.3691  0.4087  0.2369
  144DOPC   H2R17068   3.812   2.746   6.573  2.2281  1.1556 -0.3390
  144DOPC   H2S17069   3.738   2.892   6.520 -0.5445  0.3840  1.3944
  144DOPC    C317070   3.316   2.909   6.590 -0.4218 -0.4765  0.5516
  144DOPC    HX17071   3.338   3.016   6.611  0.4831 -0.5164 -0.1262
  144DOPC    HY17072   3.211   2.887   6.621 -0.7448 -1.7156 -1.2654
  144DOPC   O3117073   3.336   2.883   6.449 -0.0821 -0.1077  0.0117
  144DOPC   C3117074   3.268   2.777   6.400 -0.4763  0.6367 -0.3051
  144DOPC   O3217075   3.189   2.713   6.466  0.4395  0.4453  0.5175
  144DOPC   C3217076   3.294   2.754   6.253 -1.0221 -0.2301  0.3291
  144DOPC   H2X17077   3.365   2.827   6.211 -1.4227 -0.1825 -0.2657
  144DOPC   H2Y17078   3.349   2.659   6.234  0.5264  1.1638 -2.6300
  144DOPC   C2317079   3.764   2.712   6.372  0.3398 -0.2656 -0.2934
  144DOPC   H3R17080   3.720   2.610   6.372  0.4494 -0.3267  1.1997
  144DOPC   H3S17081   3.872   2.711   6.349  1.0103  2.3081  2.2121
  144DOPC   C2417082   3.679   2.779   6.257  0.5839 -0.4701 -0.5314
  144DOPC   H4R17083   3.694   2.889   6.250  0.6588 -0.3784  0.8667
  144DOPC   H4S17084   3.571   2.767   6.281  0.3982 -1.4135 -1.7417
  144DOPC   C2517085   3.707   2.719   6.123  0.3328  0.1220 -0.2379
  144DOPC   H5R17086   3.668   2.615   6.123 -1.5968  0.7152  3.0409
  144DOPC   H5S17087   3.817   2.720   6.106  0.0785 -0.6476 -2.0842
  144DOPC   C2617088   3.635   2.801   6.009 -0.0965  0.2625  0.5254
  144DOPC   H6R17089   3.710   2.871   5.966 -0.2415 -0.0383 -0.2277
  144DOPC   H6S17090   3.549   2.856   6.051 -1.4121  0.0915 -1.8201
  144DOPC   C2717091   3.588   2.712   5.891  0.6576  0.1756 -0.2973
  144DOPC   H7R17092   3.517   2.640   5.937  0.7242  0.7714  0.7587
  144DOPC   H7S17093   3.666   2.645   5.849 -1.6683 -1.9465 -1.4719
  144DOPC   C2817094   3.517   2.778   5.776 -0.2373 -0.3127  0.5182
  144DOPC   H8R17095   3.440   2.849   5.813  1.4155  1.6517  0.3333
  144DOPC   H8S17096   3.467   2.701   5.713  0.9029 -0.3726 -0.3375
  144DOPC   C2917097   3.616   2.853   5.696 -0.0593 -0.1726  0.1966
  144DOPC   H9R17098   3.661   2.943   5.740 -2.5265  0.3859  1.8253
  144DOPC  C21017099   3.631   2.845   5.565 -0.7726 -0.2235 -0.0037
  144DOPC  H10R17100   3.712   2.906   5.522  0.1651 -0.6888  1.0513
  144DOPC  C21117101   3.564   2.751   5.462  0.2389  0.4235  0.4250
  144DOPC  H11R17102   3.502   2.672   5.511 -0.1418 -0.1450 -0.9259
  144DOPC  H11S17103   3.645   2.698   5.407  1.0174  2.6421 -0.6898
  144DOPC  C21217104   3.461   2.831   5.383  0.4568 -0.4806 -0.0627
  144DOPC  H12R17105   3.419   2.781   5.293  0.6972 -1.2636  0.2475
  144DOPC  H12S17106   3.516   2.915   5.336  0.6724 -0.9791 -0.7214
  144DOPC  C21317107   3.346   2.882   5.466  0.0260  0.2560 -0.4449
  144DOPC  H13R17108   3.374   2.962   5.537 -0.5405 -0.4539  0.6113
  144DOPC  H13S17109   3.303   2.800   5.527  1.4627 -1.0422 -1.1208
  144DOPC  C21417110   3.234   2.949   5.379 -0.1934  0.0740 -0.1027
  144DOPC  H14R17111   3.149   2.982   5.443  0.6007 -0.0612  1.0508
  144DOPC  H14S17112   3.205   2.876   5.300 -1.5460 -0.7584  1.1032
  144DOPC  C21517113   3.285   3.076   5.298  0.1312 -0.5870  0.1989
  144DOPC  H15R17114   3.368   3.046   5.230 -1.2429 -1.2348 -1.2386
  144DOPC  H15S17115   3.331   3.152   5.366  1.6510 -2.2829  1.1766
  144DOPC  C21617116   3.175   3.141   5.213 -0.0124  0.3030  0.0318
  144DOPC  H16R17117   3.106   3.188   5.286  2.1763  0.9508  1.7845
  144DOPC  H16S17118   3.117   3.058   5.168  1.6839 -1.5548  1.1085
  144DOPC  C21717119   3.234   3.246   5.118  0.0838  0.0591  0.1090
  144DOPC  H17R17120   3.310   3.193   5.056 -0.0325 -2.0582  1.6663
  144DOPC  H17S17121   3.291   3.324   5.173  2.3220 -0.1587 -1.7406
  144DOPC  C21817122   3.132   3.310   5.021  0.4778 -0.4137  0.0858
  144DOPC  H18R17123   3.038   3.332   5.076  1.0003  2.0695  0.1187
  144DOPC  H18S17124   3.126   3.253   4.927  0.4613 -0.9560  0.4127
  144DOPC  H18T17125   3.177   3.408   4.994 -0.5411  0.0023 -0.1273
  144DOPC   C3317126   3.173   2.748   6.162  0.4882 -0.4719 -0.0237
  144DOPC   H3X17127   3.113   2.841   6.168  0.0326 -0.8343  1.5012
  144DOPC   H3Y17128   3.112   2.658   6.185  0.2777 -0.5552 -0.8738
  144DOPC   C3417129   3.216   2.729   6.017  0.5464 -0.2367  0.0115
  144DOPC   H4X17130   3.292   2.649   6.015  0.8990  0.1071 -1.0244
  144DOPC   H4Y17131   3.269   2.825   5.996 -0.0953  0.8825  3.0143
  144DOPC   C3517132   3.097   2.714   5.923 -0.0025 -0.5531 -0.3466
  144DOPC   H5X17133   3.012   2.780   5.950  0.0820 -1.4896  2.4494
  144DOPC   H5Y17134   3.063   2.609   5.933 -1.1459 -0.1192  0.5115
  144DOPC   C3617135   3.133   2.726   5.780 -0.4124  0.0051  0.1932
  144DOPC   H6X17136   3.169   2.826   5.748  0.9275 -0.7335 -0.7203
  144DOPC   H6Y17137   3.213   2.651   5.761 -0.1360  0.5059 -0.6979
  144DOPC   C3717138   3.011   2.684   5.700  0.5011 -0.2607  0.1042
  144DOPC   H7X17139   2.997   2.576   5.724  2.9560 -0.3827  1.3400
  144DOPC   H7Y17140   2.920   2.736   5.736 -2.2324 -2.6828 -2.6872
  144DOPC   C3817141   3.017   2.707   5.543 -0.4034 -0.4356 -0.3075
  144DOPC   H8X17142   3.086   2.627   5.508  0.5239  0.3650 -0.3464
  144DOPC   H8Y17143   3.058   2.810   5.534  1.3379 -1.0769 -0.0016
  144DOPC   C3917144   2.885   2.691   5.473 -0.4128 -0.7787 -0.2183
  144DOPC   H9X17145   2.819   2.779   5.467  0.5626 -0.0763 -1.0817
  144DOPC  C31017146   2.842   2.587   5.401  0.1136  1.0166  0.4848
  144DOPC  H10X17147   2.736   2.587   5.372  0.3660 -2.2355 -0.7755
  144DOPC  C31117148   2.909   2.449   5.394 -0.2961 -1.2418 -0.6201
  144DOPC  H11X17149   2.861   2.385   5.470 -1.2781  4.2591  4.1466
  144DOPC  H11Y17150   3.009   2.457   5.442  0.1072 -1.2665 -1.4203
  144DOPC  C31217151   2.911   2.409   5.246 -0.0494  0.7317  0.1908
  144DOPC  H12X17152   2.974   2.318   5.243 -0.2358  0.6142 -0.3741
  144DOPC  H12Y17153   2.964   2.491   5.193 -0.1814  0.7427  0.0729
  144DOPC  C31317154   2.768   2.377   5.186 -0.1979 -0.7482  0.1242
  144DOPC  H13X17155   2.710   2.313   5.256 -0.6022  0.1150  0.5796
  144DOPC  H13Y17156   2.709   2.470   5.174  2.3473  0.9036 -0.2910
  144DOPC  C31417157   2.778   2.301   5.058  0.4161  0.1091 -0.4516
  144DOPC  H14X17158   2.773   2.193   5.083 -0.2163  0.5655  1.5833
  144DOPC  H14Y17159   2.692   2.328   4.993 -0.1271  0.4916  0.4153
  144DOPC  C31517160   2.904   2.324   4.975 -0.5336 -0.1082 -0.2993
  144DOPC  H15X17161   2.995   2.298   5.033 -2.4587 -1.1076  2.4865
  144DOPC  H15Y17162   2.907   2.431   4.947  2.5442 -0.3062 -1.0477
  144DOPC  C31617163   2.914   2.251   4.843  0.5978  0.5744  0.3390
  144DOPC  H16X17164   2.915   2.141   4.859 -0.5628  0.5515  0.3068
  144DOPC  H16Y17165   2.827   2.265   4.777  1.3665  1.1268 -0.5774
  144DOPC  C31717166   3.044   2.286   4.765  0.6272 -0.1991 -0.5821
  144DOPC  H17X17167   3.019   2.317   4.661 -1.3716 -2.0488 -0.7326
  144DOPC  H17Y17168   3.090   2.370   4.820 -0.7899  1.3790 -1.7049
  144DOPC  C31817169   3.133   2.164   4.750  0.1470  0.0135  0.4428
  144DOPC  H18X17170   3.230   2.179   4.697  1.6099  1.3189  3.2089
  144DOPC  H18Y17171   3.171   2.127   4.848  1.3503  0.9033  0.3460
  144DOPC  H18Z17172   3.072   2.087   4.700  0.0584  1.0856 -1.1811
  145DOPC     N17173   3.526   5.259   6.944 -0.0579  0.2909  0.0344
  145DOPC   C1217174   3.646   5.198   6.866 -0.1524 -0.0888 -0.6769
  145DOPC  H12A17175   3.696   5.130   6.935  1.8855 -0.0572 -2.0185
  145DOPC  H12B17176   3.716   5.278   6.849 -0.6899  0.2959 -1.0811
  145DOPC   C1317177   3.441   5.140   6.992 -0.1750 -0.3146  0.1581
  145DOPC  H13A17178   3.387   5.103   6.906 -0.0432 -0.2712  0.0549
  145DOPC  H13B17179   3.498   5.059   7.037  0.7125 -0.7836 -1.6922
  145DOPC  H13C17180   3.375   5.183   7.064  0.8577 -0.6866  1.3691
  145DOPC   C1417181   3.441   5.341   6.855 -0.4423 -0.0204 -0.4243
  145DOPC  H14A17182   3.505   5.405   6.796  0.9249  0.9970  1.9817
  145DOPC  H14B17183   3.392   5.275   6.785 -0.5542 -0.3119 -0.0750
  145DOPC  H14C17184   3.372   5.397   6.916  0.1721 -0.4453  0.6913
  145DOPC   C1517185   3.587   5.344   7.056 -0.1918  0.1929  0.1372
  145DOPC  H15A17186   3.649   5.426   7.024  1.7375 -0.6917  1.4695
  145DOPC  H15B17187   3.658   5.288   7.114 -0.5871 -0.1951  0.2516
  145DOPC  H15C17188   3.517   5.393   7.122  1.7755  3.2944  0.0863
  145DOPC   C1117189   3.625   5.139   6.723  0.8512 -0.0992  0.5508
  145DOPC  H11A17190   3.604   5.224   6.656  1.2984 -0.2785  0.1770
  145DOPC  H11B17191   3.724   5.108   6.683 -0.2652 -3.1658 -0.1221
  145DOPC     P17192   3.546   4.892   6.767  0.6646 -0.6533 -0.6957
  145DOPC   O1317193   3.416   4.833   6.800  0.5144  0.0900 -0.4032
  145DOPC   O1417194   3.632   4.897   6.885 -0.6323 -0.4071  0.0045
  145DOPC   O1217195   3.525   5.040   6.698 -0.1513 -0.1945  0.1342
  145DOPC   O1117196   3.614   4.808   6.659 -0.3454  0.2789  0.4229
  145DOPC    C117197   3.532   4.756   6.546  0.6049 -0.2887 -0.4370
  145DOPC    HA17198   3.590   4.756   6.451  2.2000 -0.0814  0.5095
  145DOPC    HB17199   3.449   4.823   6.515  0.3172  0.8612  2.5185
  145DOPC    C217200   3.479   4.612   6.570  0.4480  0.7498  0.6947
  145DOPC    HS17201   3.424   4.613   6.667 -0.5523  2.4416  0.1398
  145DOPC   O2117202   3.598   4.531   6.581  0.6474  0.1724  0.1081
  145DOPC   C2117203   3.584   4.422   6.650 -0.1715 -0.0156  0.5953
  145DOPC   O2217204   3.489   4.398   6.722 -0.4138 -0.1226 -0.4498
  145DOPC   C2217205   3.701   4.332   6.630 -0.0182  0.2721  0.1372
  145DOPC   H2R17206   3.690   4.253   6.708  0.2229 -1.3704 -1.4148
  145DOPC   H2S17207   3.795   4.383   6.658 -0.8796  1.0256  1.7916
  145DOPC    C317208   3.385   4.555   6.457  0.4030  0.6993  0.4243
  145DOPC    HX17209   3.357   4.449   6.477  1.8403  0.4513  1.2202
  145DOPC    HY17210   3.446   4.548   6.365  1.2561  2.7146  0.7970
  145DOPC   O3117211   3.272   4.639   6.436  0.6630  0.2287 -0.5794
  145DOPC   C3117212   3.174   4.628   6.518  0.0744  0.0400  0.2263
  145DOPC   O3217213   3.167   4.554   6.616  0.1946  0.6383 -0.3962
  145DOPC   C3217214   3.064   4.727   6.471 -0.4478  0.1769  0.1564
  145DOPC   H2X17215   3.009   4.681   6.387  2.5201 -1.8888 -0.8359
  145DOPC   H2Y17216   2.999   4.740   6.560  1.8415  1.4607  1.7646
  145DOPC   C2317217   3.694   4.248   6.500  0.6673 -0.2055 -0.0116
  145DOPC   H3R17218   3.587   4.222   6.483  1.2453 -1.1811 -2.4709
  145DOPC   H3S17219   3.746   4.152   6.518 -0.7078 -0.8075  0.9677
  145DOPC   C2417220   3.749   4.319   6.378  0.0963  0.4843  0.3369
  145DOPC   H4R17221   3.852   4.356   6.399  0.1999  0.2451  0.2636
  145DOPC   H4S17222   3.686   4.407   6.355 -1.0991 -0.6129 -0.7744
  145DOPC   C2517223   3.748   4.226   6.253 -0.3650  0.1916 -0.4290
  145DOPC   H5R17224   3.645   4.186   6.238 -0.5895  1.3469 -2.2313
  145DOPC   H5S17225   3.823   4.144   6.259 -0.0190  0.5520  0.3044
  145DOPC   C2617226   3.761   4.316   6.128  1.0433  0.1232 -0.7366
  145DOPC   H6R17227   3.674   4.385   6.135  1.5299  0.6044  1.0403
  145DOPC   H6S17228   3.749   4.251   6.039 -2.2618 -0.9716  0.3394
  145DOPC   C2717229   3.894   4.396   6.121  0.2660  0.5899 -0.4303
  145DOPC   H7R17230   3.981   4.330   6.142  3.2849  4.0998 -0.8697
  145DOPC   H7S17231   3.895   4.470   6.204  0.1770 -1.6866  1.7143
  145DOPC   C2817232   3.923   4.466   5.990  0.3041  1.1329 -0.0764
  145DOPC   H8R17233   3.928   4.373   5.929  0.4697  0.6665  0.6333
  145DOPC   H8S17234   4.026   4.506   5.990  0.2627  1.2661 -0.8854
  145DOPC   C2917235   3.810   4.567   5.956  0.4400  0.4372  0.6128
  145DOPC   H9R17236   3.814   4.664   6.009  3.2984 -0.0928  1.5610
  145DOPC  C21017237   3.721   4.547   5.857  0.1507 -0.0137  0.8282
  145DOPC  H10R17238   3.644   4.619   5.825 -0.3793 -1.6810 -1.9438
  145DOPC  C21117239   3.704   4.419   5.780 -0.4406 -0.3170  0.6958
  145DOPC  H11R17240   3.620   4.367   5.832 -0.1735  0.3104  1.7970
  145DOPC  H11S17241   3.796   4.356   5.785 -0.3825 -0.2866  0.0882
  145DOPC  C21217242   3.679   4.459   5.627  0.3790  0.0902  0.9006
  145DOPC  H12R17243   3.594   4.529   5.615  1.6566  1.5992  0.3657
  145DOPC  H12S17244   3.655   4.366   5.572 -0.5694  0.8464  0.0106
  145DOPC  C21317245   3.806   4.534   5.566  0.0395 -0.1078 -0.2917
  145DOPC  H13R17246   3.896   4.492   5.615  1.8218  1.6239 -1.9130
  145DOPC  H13S17247   3.788   4.640   5.593 -0.5140 -0.3225  0.2095
  145DOPC  C21417248   3.836   4.518   5.416  0.5644 -0.2495  0.4593
  145DOPC  H14R17249   3.819   4.412   5.387  0.1062  0.4251 -2.0422
  145DOPC  H14S17250   3.942   4.545   5.395  0.1800 -0.3701 -1.9793
  145DOPC  C21517251   3.749   4.605   5.323  0.1130  0.3803 -0.2424
  145DOPC  H15R17252   3.747   4.709   5.361  0.0196  0.0693  0.6310
  145DOPC  H15S17253   3.643   4.572   5.320  0.2624 -0.1130 -0.1931
  145DOPC  C21617254   3.809   4.620   5.182 -0.0667 -0.4648 -0.0852
  145DOPC  H16R17255   3.851   4.522   5.149 -0.6131 -0.1688 -1.7629
  145DOPC  H16S17256   3.897   4.687   5.189 -0.5722  0.5827 -2.6524
  145DOPC  C21717257   3.708   4.670   5.074  0.5236  0.2772  0.4116
  145DOPC  H17R17258   3.698   4.781   5.085 -0.0224  0.0533  2.6138
  145DOPC  H17S17259   3.611   4.620   5.095  0.5016 -0.2099 -0.7861
  145DOPC  C21817260   3.751   4.621   4.937 -0.4407 -0.4071  0.6009
  145DOPC  H18R17261   3.693   4.671   4.857  1.4052  4.2833  1.8843
  145DOPC  H18S17262   3.746   4.510   4.938 -1.0735 -0.4920 -2.4524
  145DOPC  H18T17263   3.860   4.640   4.925 -0.6784 -0.0533 -1.2920
  145DOPC   C3317264   3.109   4.867   6.421  0.8261 -0.0421  0.1509
  145DOPC   H3X17265   3.203   4.895   6.473 -1.2715  3.1163  2.6149
  145DOPC   H3Y17266   3.023   4.931   6.448  1.1956  1.4983 -2.0197
  145DOPC   C3417267   3.126   4.881   6.267  0.1411  0.8327 -0.3355
  145DOPC   H4X17268   3.028   4.871   6.217 -0.0205 -0.6238  0.2241
  145DOPC   H4Y17269   3.183   4.792   6.232 -0.4580 -0.0781  0.9241
  145DOPC   C3517270   3.185   5.019   6.222  0.1171 -1.0512 -0.0787
  145DOPC   H5X17271   3.126   5.096   6.277  0.9628 -0.2574 -0.2477
  145DOPC   H5Y17272   3.166   5.024   6.113  0.6757 -0.0353 -0.1415
  145DOPC   C3617273   3.338   5.054   6.253 -0.1420  0.1800  0.3734
  145DOPC   H6X17274   3.356   5.070   6.361  0.7107 -3.7659  0.9862
  145DOPC   H6Y17275   3.394   4.962   6.225  0.0206 -0.2563  2.0000
  145DOPC   C3717276   3.380   5.184   6.187  0.4959 -0.1752 -0.4650
  145DOPC   H7X17277   3.352   5.183   6.080 -2.7760  1.5226  0.2575
  145DOPC   H7Y17278   3.325   5.267   6.237 -0.9188 -1.0933 -0.4558
  145DOPC   C3817279   3.527   5.218   6.195 -0.2733 -0.0842  0.5458
  145DOPC   H8X17280   3.545   5.208   6.305  2.7176 -0.8383  0.0810
  145DOPC   H8Y17281   3.543   5.321   6.158 -0.9689 -0.6810 -1.5335
  145DOPC   C3917282   3.613   5.120   6.117 -0.0913  0.3747  0.0384
  145DOPC   H9X17283   3.598   5.018   6.155 -2.8650  0.9936  0.7869
  145DOPC  C31017284   3.679   5.143   5.997 -0.2320 -1.3415  0.5027
  145DOPC  H10X17285   3.722   5.059   5.940  0.6952 -0.9180  0.5695
  145DOPC  C31117286   3.684   5.282   5.940 -0.1677 -0.0196  1.1095
  145DOPC  H11X17287   3.698   5.363   6.016 -1.9552 -0.2180  1.6987
  145DOPC  H11Y17288   3.590   5.303   5.884  0.0539  0.8187  1.0393
  145DOPC  C31217289   3.800   5.290   5.840 -0.1885 -0.3461 -0.0524
  145DOPC  H12X17290   3.775   5.218   5.759 -1.8427  1.4943 -1.2683
  145DOPC  H12Y17291   3.899   5.266   5.883  0.7788  1.6445 -1.0133
  145DOPC  C31317292   3.817   5.427   5.774  0.5300  0.0542  0.0751
  145DOPC  H13X17293   3.738   5.430   5.696 -1.2195 -0.5961  1.7460
  145DOPC  H13Y17294   3.786   5.506   5.846 -0.3578  0.1328 -0.3725
  145DOPC  C31417295   3.961   5.464   5.738  0.3149  0.1563  0.3016
  145DOPC  H14X17296   4.028   5.479   5.826  0.2821 -0.7455  0.4884
  145DOPC  H14Y17297   4.008   5.374   5.692 -1.4134 -0.1190 -1.0247
  145DOPC  C31517298   3.965   5.578   5.631  0.0539 -0.2209 -0.8305
  145DOPC  H15X17299   3.910   5.658   5.687  0.0547 -0.4401 -0.5105
  145DOPC  H15Y17300   3.893   5.546   5.553  0.1680 -0.5127 -0.8185
  145DOPC  C31617301   4.102   5.623   5.591 -0.6037 -0.0653  0.2721
  145DOPC  H16X17302   4.143   5.677   5.679 -3.9678 -0.5449  2.3108
  145DOPC  H16Y17303   4.169   5.543   5.552  0.9846  0.0674  2.5084
  145DOPC  C31717304   4.091   5.731   5.479  0.0020 -0.3545  0.8260
  145DOPC  H17X17305   4.035   5.817   5.521 -2.7844 -1.4585 -0.3717
  145DOPC  H17Y17306   4.192   5.763   5.445  0.3024 -1.2507  0.8373
  145DOPC  C31817307   4.019   5.696   5.354  0.4003  0.3480 -1.0253
  145DOPC  H18X17308   4.054   5.603   5.306 -3.0035 -0.0028 -3.1341
  145DOPC  H18Y17309   3.909   5.688   5.369  0.7452 -2.4514  0.6542
  145DOPC  H18Z17310   4.025   5.781   5.282 -0.1211  1.0651 -0.2563
  146DOPC     N17311   4.805   3.014   7.488 -0.2980 -0.0651 -0.4738
  146DOPC   C1217312   4.898   2.890   7.472  1.0594  0.0990 -0.0838
  146DOPC  H12A17313   4.838   2.805   7.441  0.4031  0.5487 -0.0694
  146DOPC  H12B17314   4.934   2.872   7.572 -2.2881 -1.2765  1.0353
  146DOPC   C1317315   4.881   3.126   7.556  1.3436  0.5239  0.6472
  146DOPC  H13A17316   4.939   3.103   7.645  0.9998  1.5307  1.1505
  146DOPC  H13B17317   4.953   3.168   7.487  0.5343 -1.0370 -1.2569
  146DOPC  H13C17318   4.822   3.213   7.582  1.9494  0.8732  0.8829
  146DOPC   C1417319   4.690   2.980   7.583  0.6161  0.3155 -0.1250
  146DOPC  H14A17320   4.654   2.884   7.552  0.6231  0.0806  0.5757
  146DOPC  H14B17321   4.733   2.971   7.682 -0.7147  0.2075  0.4700
  146DOPC  H14C17322   4.608   3.051   7.585  1.1606  1.0025 -1.0939
  146DOPC   C1517323   4.749   3.053   7.348  0.3609  0.5448  0.3435
  146DOPC  H15A17324   4.676   3.130   7.367  0.1356  0.8202 -1.4750
  146DOPC  H15B17325   4.693   2.971   7.305 -1.2504  1.9130 -0.2609
  146DOPC  H15C17326   4.828   3.088   7.284  1.1635 -1.5073  0.1461
  146DOPC   C1117327   5.027   2.893   7.384 -0.7749 -0.6216 -0.0441
  146DOPC  H11A17328   5.081   2.796   7.384 -0.5729 -0.5150  0.6781
  146DOPC  H11B17329   4.998   2.921   7.281 -0.4809  2.3434  0.5937
  146DOPC     P17330   5.197   2.966   7.563  0.3150  0.2004 -0.2216
  146DOPC   O1317331   5.114   2.892   7.661 -0.2579  0.3506 -0.0258
  146DOPC   O1417332   5.254   3.092   7.610 -0.1650  0.6337 -0.4419
  146DOPC   O1217333   5.112   2.997   7.438 -0.0420 -0.5216  1.4811
  146DOPC   O1117334   5.307   2.872   7.506  0.3370  0.7155 -1.1416
  146DOPC    C117335   5.418   2.903   7.424 -0.3421 -0.2752 -0.2161
  146DOPC    HA17336   5.476   2.809   7.415 -1.1566 -0.9170  0.9524
  146DOPC    HB17337   5.490   2.971   7.474 -1.2814  0.7518 -0.2146
  146DOPC    C217338   5.393   2.946   7.279  0.2812  0.6510  0.2075
  146DOPC    HS17339   5.301   3.009   7.277 -0.3566 -0.2065  1.4168
  146DOPC   O2117340   5.370   2.824   7.193  0.2917  0.3430 -0.6652
  146DOPC   C2117341   5.276   2.832   7.097  0.1627  0.2462 -0.0010
  146DOPC   O2217342   5.202   2.931   7.083 -0.0276  0.2525 -0.0505
  146DOPC   C2217343   5.264   2.712   7.011 -0.0339 -0.2084 -0.2757
  146DOPC   H2R17344   5.160   2.674   7.008  0.5370 -1.8487 -0.7175
  146DOPC   H2S17345   5.315   2.633   7.071  0.1743  2.2673  3.0412
  146DOPC    C317346   5.517   3.029   7.228  0.6307 -0.1080 -0.2644
  146DOPC    HX17347   5.598   2.953   7.226  0.0313 -0.7581 -1.8625
  146DOPC    HY17348   5.554   3.108   7.297 -0.0445 -0.2794  0.3001
  146DOPC   O3117349   5.502   3.080   7.098  0.0597  0.4753 -0.1864
  146DOPC   C3117350   5.444   3.205   7.091  0.5405  0.1503 -0.6812
  146DOPC   O3217351   5.424   3.278   7.192 -0.2224  0.3221  0.2464
  146DOPC   C3217352   5.424   3.237   6.949 -0.4564  0.0864 -0.3280
  146DOPC   H2X17353   5.374   3.145   6.912 -2.4951  0.7687  0.5683
  146DOPC   H2Y17354   5.356   3.325   6.940  1.7033  1.8982  0.0481
  146DOPC   C2317355   5.333   2.731   6.873  0.7402 -0.5837 -0.1117
  146DOPC   H3R17356   5.318   2.637   6.817 -0.3012 -0.0788 -0.7143
  146DOPC   H3S17357   5.441   2.753   6.883  0.0447  2.7905  1.3873
  146DOPC   C2417358   5.259   2.837   6.780  0.2579 -0.1964  0.4293
  146DOPC   H4R17359   5.252   2.930   6.841 -0.2651 -1.0022  1.6330
  146DOPC   H4S17360   5.154   2.807   6.762 -0.2715  1.4965  0.4766
  146DOPC   C2517361   5.342   2.867   6.647 -0.7658 -0.0779 -0.0571
  146DOPC   H5R17362   5.375   2.779   6.588  0.9135  1.6477 -1.8432
  146DOPC   H5S17363   5.436   2.926   6.662  0.2829 -1.0047 -2.4977
  146DOPC   C2617364   5.259   2.961   6.551 -0.4772  0.4805 -0.2113
  146DOPC   H6R17365   5.315   3.042   6.500  1.1439  0.2444  1.0873
  146DOPC   H6S17366   5.183   3.011   6.615 -0.2071  1.1637 -0.4166
  146DOPC   C2717367   5.199   2.867   6.440 -0.7418 -0.0183 -0.5780
  146DOPC   H7R17368   5.154   2.774   6.481 -3.7445  0.7101 -1.8967
  146DOPC   H7S17369   5.277   2.834   6.368 -0.9154  1.7499 -1.6237
  146DOPC   C2817370   5.097   2.944   6.357 -0.3497 -0.4700 -0.0169
  146DOPC   H8R17371   5.080   2.892   6.260  1.8934  1.8663 -1.7773
  146DOPC   H8S17372   5.137   3.037   6.313  0.0252 -0.5121  0.2328
  146DOPC   C2917373   4.971   2.973   6.432  0.4419 -0.0146  0.0341
  146DOPC   H9R17374   4.980   3.047   6.514  0.6181 -1.0690  0.9828
  146DOPC  C21017375   4.849   2.918   6.410  0.5582 -0.5862  0.1810
  146DOPC  H10R17376   4.757   2.938   6.467 -1.7228  0.3034 -3.5388
  146DOPC  C21117377   4.803   2.830   6.297 -0.0003 -0.5065 -0.3188
  146DOPC  H11R17378   4.876   2.820   6.214 -0.5541  0.3292 -0.9332
  146DOPC  H11S17379   4.709   2.859   6.244  0.3872 -0.6101 -1.0842
  146DOPC  C21217380   4.768   2.693   6.347  0.7296 -0.3905 -0.9239
  146DOPC  H12R17381   4.850   2.644   6.404 -0.3644 -0.2040  0.9274
  146DOPC  H12S17382   4.731   2.626   6.266 -1.6949  0.5679 -0.6856
  146DOPC  C21317383   4.654   2.699   6.459  0.3442  0.4433 -0.4638
  146DOPC  H13R17384   4.583   2.774   6.418  1.0714  1.7113  0.5288
  146DOPC  H13S17385   4.689   2.749   6.552  0.7603  1.7490 -1.2895
  146DOPC  C21417386   4.592   2.566   6.498  0.4871  0.1552 -0.4523
  146DOPC  H14R17387   4.672   2.527   6.565  2.0626  0.5527 -2.0256
  146DOPC  H14S17388   4.576   2.504   6.407 -2.1890  0.7833 -0.5057
  146DOPC  C21517389   4.457   2.572   6.565 -0.6427 -0.5171 -0.3818
  146DOPC  H15R17390   4.381   2.616   6.496 -0.4526 -3.0036 -2.3489
  146DOPC  H15S17391   4.467   2.641   6.651  1.7004  1.7470 -2.3080
  146DOPC  C21617392   4.395   2.437   6.613 -0.3742  0.2744 -0.2158
  146DOPC  H16R17393   4.459   2.397   6.694  0.5689 -0.4519 -1.2844
  146DOPC  H16S17394   4.417   2.371   6.526 -0.6563  1.2578 -1.0560
  146DOPC  C21717395   4.244   2.444   6.619 -0.5261 -0.2774  0.4500
  146DOPC  H17R17396   4.203   2.494   6.529  3.0822 -0.2474 -1.3595
  146DOPC  H17S17397   4.212   2.505   6.706 -0.7343  2.6804 -1.5640
  146DOPC  C21817398   4.180   2.304   6.643  0.0830  0.3999  0.0883
  146DOPC  H18R17399   4.069   2.310   6.648  0.0333 -0.7242  0.5484
  146DOPC  H18S17400   4.215   2.257   6.737 -1.6735  1.1475  1.1621
  146DOPC  H18T17401   4.207   2.236   6.559  0.8340  0.0239  0.6221
  146DOPC   C3317402   5.556   3.276   6.868  0.6152  0.2326  0.2032
  146DOPC   H3X17403   5.611   3.180   6.851 -0.1086  0.0029 -0.9663
  146DOPC   H3Y17404   5.619   3.341   6.931 -1.1974  1.1188  1.1930
  146DOPC   C3417405   5.515   3.337   6.740 -0.7502  0.4387 -0.2391
  146DOPC   H4X17406   5.604   3.382   6.690 -0.2258 -0.3239 -0.0179
  146DOPC   H4Y17407   5.440   3.419   6.744  1.4624  2.7004 -1.9933
  146DOPC   C3517408   5.450   3.238   6.642  0.0566 -0.3109 -0.0393
  146DOPC   H5X17409   5.379   3.169   6.693 -1.5026  0.5748 -0.9653
  146DOPC   H5Y17410   5.533   3.182   6.593 -1.3692 -0.5780 -2.2781
  146DOPC   C3617411   5.384   3.301   6.520 -0.2085  0.2890 -0.2345
  146DOPC   H6X17412   5.376   3.235   6.431  2.2260 -1.8536  1.0094
  146DOPC   H6Y17413   5.285   3.342   6.550 -0.9775 -0.6400 -1.4262
  146DOPC   C3717414   5.454   3.427   6.455 -0.4129  0.4434 -0.1270
  146DOPC   H7X17415   5.484   3.492   6.539  1.3917 -0.0817 -0.3180
  146DOPC   H7Y17416   5.547   3.400   6.399  0.6249  0.4694  1.5344
  146DOPC   C3817417   5.376   3.501   6.349  0.7882 -0.5003  0.5432
  146DOPC   H8X17418   5.318   3.423   6.297 -1.2386  1.2464  0.0473
  146DOPC   H8Y17419   5.437   3.545   6.267  0.2968  0.1748  0.5271
  146DOPC   C3917420   5.281   3.604   6.409  0.1631 -0.7010  0.9847
  146DOPC   H9X17421   5.180   3.567   6.429  0.0757 -0.8931  0.2128
  146DOPC  C31017422   5.309   3.736   6.419 -0.8174  0.1082 -0.5046
  146DOPC  H10X17423   5.235   3.809   6.456  0.8850  0.8106  1.7847
  146DOPC  C31117424   5.446   3.801   6.394  0.4838  0.8512  0.1824
  146DOPC  H11X17425   5.532   3.731   6.392 -0.7947 -0.9670  2.4033
  146DOPC  H11Y17426   5.462   3.877   6.473  0.5783  0.4918  0.5134
  146DOPC  C31217427   5.458   3.860   6.250 -0.1659  0.2266  0.1101
  146DOPC  H12X17428   5.471   3.774   6.180  2.1091  2.0478 -1.8761
  146DOPC  H12Y17429   5.555   3.913   6.245  0.9344 -1.7093  0.1560
  146DOPC  C31317430   5.338   3.950   6.213 -0.1487 -0.0684  0.2087
  146DOPC  H13X17431   5.239   3.902   6.227  0.5362 -1.2259  1.1827
  146DOPC  H13Y17432   5.342   4.045   6.270  0.4166  0.0554 -0.0261
  146DOPC  C31417433   5.334   3.976   6.061 -0.6186 -0.7099 -0.1736
  146DOPC  H14X17434   5.435   4.013   6.033 -0.5820  0.6811  1.5981
  146DOPC  H14Y17435   5.315   3.877   6.015 -0.7893 -0.5574 -0.4344
  146DOPC  C31517436   5.219   4.070   6.016 -0.5794  0.1104  0.2488
  146DOPC  H15X17437   5.252   4.173   6.042 -1.0670  0.5350 -0.7202
  146DOPC  H15Y17438   5.124   4.048   6.070 -0.6505 -1.7612 -0.5654
  146DOPC  C31617439   5.194   4.076   5.862 -0.3848  0.1408  0.7891
  146DOPC  H16X17440   5.290   4.064   5.808 -0.0460  1.3999  1.0867
  146DOPC  H16Y17441   5.134   3.990   5.825  2.6737 -1.5158 -0.7106
  146DOPC  C31717442   5.132   4.211   5.824 -0.7486  0.2186  0.4475
  146DOPC  H17X17443   5.026   4.214   5.860 -1.2568 -1.3243 -0.7954
  146DOPC  H17Y17444   5.192   4.299   5.855  0.3725 -0.3442 -0.0757
  146DOPC  C31817445   5.113   4.218   5.670 -0.5885 -0.7255 -0.6058
  146DOPC  H18X17446   5.215   4.230   5.628 -0.4353 -1.1315 -0.3514
  146DOPC  H18Y17447   5.065   4.124   5.635 -1.0323 -1.1287  1.0328
  146DOPC  H18Z17448   5.058   4.313   5.650 -0.8948 -0.0583  2.8807
  147DOPC     N17449   1.569   1.759   6.997  0.0924  0.3502 -0.2268
  147DOPC   C1217450   1.571   1.863   6.887  0.1681  0.0410 -0.5694
  147DOPC  H12A17451   1.469   1.897   6.873 -1.7395 -4.0754  1.6621
  147DOPC  H12B17452   1.592   1.807   6.798 -0.3184 -1.3422  0.1577
  147DOPC   C1317453   1.503   1.638   6.944 -0.1542  0.1366 -0.6126
  147DOPC  H13A17454   1.397   1.656   6.933 -0.5519  0.0005  2.1242
  147DOPC  H13B17455   1.543   1.606   6.849 -1.9732  1.3620 -1.8615
  147DOPC  H13C17456   1.502   1.559   7.018  0.1145  1.3024  0.6943
  147DOPC   C1417457   1.512   1.826   7.120 -0.4039  0.2149 -0.1785
  147DOPC  H14A17458   1.510   1.760   7.206 -2.1199  0.1036 -0.2741
  147DOPC  H14B17459   1.581   1.903   7.152  1.8041 -1.2035 -1.3371
  147DOPC  H14C17460   1.419   1.877   7.097 -0.0861 -0.1776 -2.5040
  147DOPC   C1517461   1.705   1.720   7.029  0.3251 -0.7051  0.2301
  147DOPC  H15A17462   1.710   1.685   7.131 -1.3036  1.7993  1.2667
  147DOPC  H15B17463   1.775   1.802   7.024 -0.0804 -0.0628  3.1648
  147DOPC  H15C17464   1.741   1.643   6.963 -0.8097 -1.2910  0.2674
  147DOPC   C1117465   1.666   1.991   6.893 -0.1094 -0.2388 -0.3200
  147DOPC  H11A17466   1.628   2.059   6.814 -1.9656 -0.0752  0.6646
  147DOPC  H11B17467   1.647   2.034   6.994  1.2077 -1.8272  0.6683
  147DOPC     P17468   1.867   1.912   6.745 -0.4634  0.3391  0.0336
  147DOPC   O1317469   1.991   1.846   6.783  0.0119  0.0725  0.0424
  147DOPC   O1417470   1.884   2.019   6.640  0.1747 -0.3949 -0.5425
  147DOPC   O1217471   1.799   1.966   6.879 -0.4167  0.4374  0.7333
  147DOPC   O1117472   1.768   1.807   6.689  0.0151  0.3346 -0.1041
  147DOPC    C117473   1.812   1.680   6.636  0.1263 -0.8011  0.1610
  147DOPC    HA17474   1.733   1.603   6.639 -1.0784  0.2495 -2.4371
  147DOPC    HB17475   1.909   1.645   6.679  0.0710 -1.1935 -0.0245
  147DOPC    C217476   1.826   1.701   6.481 -0.0354  0.0812 -0.5248
  147DOPC    HS17477   1.838   1.600   6.437 -0.4164 -0.4415  0.5395
  147DOPC   O2117478   1.936   1.786   6.445 -0.7083 -0.1174  0.2054
  147DOPC   C2117479   2.056   1.735   6.467  0.6084  0.9798  0.1558
  147DOPC   O2217480   2.079   1.617   6.497 -0.0605 -0.0965 -0.2583
  147DOPC   C2217481   2.160   1.841   6.432 -0.4773  0.4731 -0.9975
  147DOPC   H2R17482   2.263   1.800   6.446  0.9371  3.5635 -1.4462
  147DOPC   H2S17483   2.145   1.917   6.512  1.7050 -1.4486  1.4206
  147DOPC    C317484   1.709   1.759   6.411  0.4587  0.4510 -0.1591
  147DOPC    HX17485   1.701   1.861   6.456  1.9096  0.3180  0.4286
  147DOPC    HY17486   1.621   1.701   6.446  0.4402  0.1982 -0.6167
  147DOPC   O3117487   1.698   1.757   6.262 -0.1279 -0.1800  0.5656
  147DOPC   C3117488   1.739   1.868   6.195  0.8950 -0.1576  0.0092
  147DOPC   O3217489   1.748   1.980   6.245 -0.5189  0.2839 -0.4359
  147DOPC   C3217490   1.750   1.843   6.043 -0.0745 -0.7080  0.1910
  147DOPC   H2X17491   1.648   1.871   6.009  0.2765 -1.1928 -1.3142
  147DOPC   H2Y17492   1.818   1.923   6.008 -0.7113 -0.1884  0.1182
  147DOPC   C2317493   2.137   1.896   6.297 -0.3117 -0.6672  0.1889
  147DOPC   H3R17494   2.180   1.999   6.293  0.6062 -0.9407  2.0219
  147DOPC   H3S17495   2.029   1.913   6.277 -0.0112  1.1942 -0.0652
  147DOPC   C2417496   2.196   1.808   6.186 -0.4011  0.8244 -0.1709
  147DOPC   H4R17497   2.149   1.708   6.190  0.2557  0.4902 -0.7250
  147DOPC   H4S17498   2.306   1.792   6.194 -0.2165  0.1541 -3.1264
  147DOPC   C2517499   2.170   1.882   6.055  0.3541 -0.2171 -0.2570
  147DOPC   H5R17500   2.242   1.966   6.042  0.4294 -0.2453 -0.0231
  147DOPC   H5S17501   2.068   1.924   6.065  0.3894  0.6741 -2.7489
  147DOPC   C2617502   2.166   1.798   5.926 -0.5231 -0.2146  0.1318
  147DOPC   H6R17503   2.086   1.721   5.924 -0.0233 -0.8089  1.9202
  147DOPC   H6S17504   2.265   1.751   5.914  0.3145  1.5488 -0.2681
  147DOPC   C2717505   2.158   1.878   5.795 -0.0946  1.0028 -0.0288
  147DOPC   H7R17506   2.222   1.969   5.791 -1.0669  1.6660 -1.3775
  147DOPC   H7S17507   2.048   1.891   5.788 -0.3049 -0.6526 -0.2101
  147DOPC   C2817508   2.196   1.795   5.673  0.2961 -0.6976 -0.1863
  147DOPC   H8R17509   2.121   1.713   5.665 -0.6675  0.2693 -1.5499
  147DOPC   H8S17510   2.297   1.748   5.668 -0.0010 -1.3981  0.2566
  147DOPC   C2917511   2.173   1.880   5.546  0.9247  0.7018  0.2836
  147DOPC   H9R17512   2.199   1.986   5.553 -1.3577  1.2476  1.4950
  147DOPC  C21017513   2.124   1.838   5.425 -0.2436  0.4068 -1.1724
  147DOPC  H10R17514   2.119   1.908   5.341 -0.6955  0.2208 -1.2980
  147DOPC  C21117515   2.077   1.693   5.406 -0.0264 -0.2637 -0.3875
  147DOPC  H11R17516   2.034   1.654   5.500 -1.1517 -0.3494 -0.9211
  147DOPC  H11S17517   2.165   1.634   5.373  0.8583  1.2611 -0.8841
  147DOPC  C21217518   1.970   1.695   5.300  0.0828 -0.3731  0.5603
  147DOPC  H12R17519   2.024   1.734   5.211 -0.5334  4.3351  1.9400
  147DOPC  H12S17520   1.891   1.764   5.338  0.2644 -0.4539  1.0958
  147DOPC  C21317521   1.901   1.557   5.282 -0.5615 -0.2959 -0.5387
  147DOPC  H13R17522   1.874   1.515   5.381 -3.0656 -1.6984 -1.7317
  147DOPC  H13S17523   1.982   1.493   5.241  0.7665  0.9642 -0.0038
  147DOPC  C21417524   1.790   1.569   5.173 -0.4817  0.2835 -0.0359
  147DOPC  H14R17525   1.824   1.621   5.081 -0.1093 -0.4423 -0.3112
  147DOPC  H14S17526   1.713   1.633   5.222 -0.3245  0.7821 -0.4405
  147DOPC  C21517527   1.727   1.438   5.114 -0.0121  0.1841  0.1575
  147DOPC  H15R17528   1.666   1.388   5.192  0.0606 -0.5739 -0.2580
  147DOPC  H15S17529   1.814   1.382   5.072 -0.4090  0.2947 -0.8427
  147DOPC  C21617530   1.621   1.455   5.001  0.0992 -0.4119  0.2716
  147DOPC  H16R17531   1.653   1.510   4.910  0.9520 -0.9982  0.1993
  147DOPC  H16S17532   1.530   1.512   5.030  1.3812  2.9984 -1.7662
  147DOPC  C21717533   1.578   1.321   4.962  0.1719  0.2849 -0.2365
  147DOPC  H17R17534   1.563   1.257   5.051 -0.8754  0.2860 -0.3961
  147DOPC  H17S17535   1.657   1.268   4.906  1.1095 -1.6729  2.6925
  147DOPC  C21817536   1.452   1.310   4.878  0.1820  0.0238 -0.2988
  147DOPC  H18R17537   1.473   1.362   4.782  1.0911  0.6048  0.2063
  147DOPC  H18S17538   1.365   1.351   4.933 -0.0867 -1.4063  0.3974
  147DOPC  H18T17539   1.429   1.205   4.850  1.4091 -0.2415 -0.3600
  147DOPC   C3317540   1.796   1.708   6.006 -0.2524  0.1116 -0.1531
  147DOPC   H3X17541   1.726   1.639   6.059  0.9465  0.7172  2.3548
  147DOPC   H3Y17542   1.897   1.686   6.047 -0.6339 -2.2350 -0.3556
  147DOPC   C3417543   1.795   1.672   5.856  0.1128  0.5915  0.7293
  147DOPC   H4X17544   1.814   1.566   5.831 -1.5680 -0.0461  1.9726
  147DOPC   H4Y17545   1.873   1.728   5.800  1.9540 -0.5825  2.0489
  147DOPC   C3517546   1.647   1.705   5.800 -0.4197 -0.3364 -0.6190
  147DOPC   H5X17547   1.645   1.816   5.810 -1.3553 -0.5300  2.1489
  147DOPC   H5Y17548   1.567   1.653   5.857 -1.2931  0.6891 -0.8620
  147DOPC   C3617549   1.629   1.664   5.650  0.2249 -0.5495 -0.2491
  147DOPC   H6X17550   1.697   1.721   5.582  1.2114  0.1651  1.2665
  147DOPC   H6Y17551   1.679   1.567   5.629 -0.0776 -0.4340 -1.6285
  147DOPC   C3717552   1.486   1.652   5.596 -0.2308 -0.5769  0.0816
  147DOPC   H7X17553   1.417   1.717   5.653 -0.7678 -1.4848  0.4798
  147DOPC   H7Y17554   1.481   1.677   5.488 -1.2765 -0.1585  0.2206
  147DOPC   C3817555   1.436   1.518   5.629 -0.2257  0.4492 -0.1959
  147DOPC   H8X17556   1.405   1.510   5.736 -0.7021  1.8811 -0.2070
  147DOPC   H8Y17557   1.516   1.442   5.614  2.6575  2.6929  2.4212
  147DOPC   C3917558   1.316   1.481   5.555  0.1973 -0.3111  0.1877
  147DOPC   H9X17559   1.238   1.557   5.538  0.8085  0.1220 -0.7002
  147DOPC  C31017560   1.272   1.359   5.505  0.0471 -0.3212  0.4353
  147DOPC  H10X17561   1.177   1.359   5.450  1.6499 -0.5044 -2.5434
  147DOPC  C31117562   1.347   1.228   5.517 -0.8576  0.1507 -0.1029
  147DOPC  H11X17563   1.392   1.219   5.618 -0.5925  0.5265 -0.1834
  147DOPC  H11Y17564   1.430   1.219   5.443  0.3213 -0.8171  1.2886
  147DOPC  C31217565   1.251   1.112   5.493 -0.9425  0.0283 -0.4568
  147DOPC  H12X17566   1.312   1.019   5.497 -1.9025 -0.5917  0.4706
  147DOPC  H12Y17567   1.198   1.117   5.396 -1.0035  2.0488 -0.3708
  147DOPC  C31317568   1.143   1.107   5.604  0.0100 -0.1278  0.4593
  147DOPC  H13X17569   1.176   1.109   5.710  1.7148  0.4354 -0.0527
  147DOPC  H13Y17570   1.075   1.196   5.604  0.3198  0.4049 -4.9208
  147DOPC  C31417571   1.065   0.974   5.598  0.2295  0.3097 -0.1102
  147DOPC  H14X17572   1.127   0.883   5.614 -0.6166 -0.0343  1.4626
  147DOPC  H14Y17573   0.986   0.977   5.677 -1.3750 -1.3253 -1.5555
  147DOPC  C31517574   0.996   0.949   5.468  0.4353  0.2918  0.1637
  147DOPC  H15X17575   0.929   0.861   5.471 -0.9908  1.2105 -2.1200
  147DOPC  H15Y17576   1.061   0.913   5.385 -2.1034  0.9710 -2.2693
  147DOPC  C31617577   0.919   1.069   5.418  0.2627  0.6692  0.1713
  147DOPC  H16X17578   0.864   1.117   5.502  1.4924  0.0714  1.3763
  147DOPC  H16Y17579   0.981   1.145   5.366 -1.6092  2.7313  0.8213
  147DOPC  C31717580   0.818   1.035   5.312  0.1047 -0.0537  0.2242
  147DOPC  H17X17581   0.874   1.003   5.221 -0.0856  1.1515 -0.3258
  147DOPC  H17Y17582   0.758   0.952   5.357  1.8708 -1.0231  0.8870
  147DOPC  C31817583   0.749   1.160   5.263 -0.2602  0.0389 -0.0928
  147DOPC  H18X17584   0.734   1.134   5.156  1.9157 -0.0810 -0.4279
  147DOPC  H18Y17585   0.658   1.172   5.326  1.0666 -3.0686  2.7290
  147DOPC  H18Z17586   0.820   1.245   5.272  0.8889 -1.0087  1.2824
  148DOPC     N17587   1.811   3.825   6.707 -0.2775 -0.9353 -0.3206
  148DOPC   C1217588   1.928   3.923   6.693  0.8640 -0.4727  0.3812
  148DOPC  H12A17589   2.022   3.871   6.705  0.1739 -1.7240  0.4805
  148DOPC  H12B17590   1.925   3.989   6.779  0.7586  1.7927 -1.2713
  148DOPC   C1317591   1.684   3.901   6.698  0.2177 -0.0073 -0.4746
  148DOPC  H13A17592   1.603   3.840   6.735  0.0765 -0.1322 -0.9941
  148DOPC  H13B17593   1.692   3.998   6.746  1.4593 -1.5958  2.7970
  148DOPC  H13C17594   1.664   3.914   6.593  0.5494 -0.8676 -0.6517
  148DOPC   C1417595   1.816   3.760   6.842 -0.1600 -0.3350  0.4420
  148DOPC  H14A17596   1.915   3.717   6.851  0.4469  0.6066 -1.2085
  148DOPC  H14B17597   1.810   3.829   6.926  0.7743  0.7788 -0.3639
  148DOPC  H14C17598   1.739   3.685   6.852 -0.2199 -0.2722  0.4560
  148DOPC   C1517599   1.798   3.725   6.597 -0.1404 -0.4589  0.0399
  148DOPC  H15A17600   1.881   3.655   6.601 -1.5710 -2.2028  2.4532
  148DOPC  H15B17601   1.799   3.780   6.505  1.7599  0.3971  0.5152
  148DOPC  H15C17602   1.704   3.674   6.610 -0.4027  0.3187  1.4719
  148DOPC   C1117603   1.941   4.016   6.562 -0.2530 -0.1241 -0.6887
  148DOPC  H11A17604   2.050   4.035   6.549  0.0869 -2.0739 -1.0242
  148DOPC  H11B17605   1.912   3.955   6.474  0.2801 -1.0943 -0.2166
  148DOPC     P17606   1.913   4.255   6.665 -0.4927 -0.3353 -0.0403
  148DOPC   O1317607   1.938   4.212   6.804 -0.7114  0.5269 -0.0099
  148DOPC   O1417608   1.816   4.366   6.661 -0.2969  0.0829  0.0971
  148DOPC   O1217609   1.860   4.129   6.584 -0.1944  0.7673 -0.1663
  148DOPC   O1117610   2.053   4.290   6.590  0.8438 -0.2468 -0.1993
  148DOPC    C117611   2.059   4.375   6.475  0.5501 -0.1543  0.5525
  148DOPC    HA17612   2.013   4.473   6.496 -2.8041 -1.7435  1.2612
  148DOPC    HB17613   2.004   4.328   6.391 -2.1862  0.1515  2.0658
  148DOPC    C217614   2.202   4.414   6.432  0.3966 -0.1765  0.7070
  148DOPC    HS17615   2.197   4.470   6.337  1.3789 -1.5320 -0.1857
  148DOPC   O2117616   2.267   4.280   6.415  0.1035 -0.5495 -0.1098
  148DOPC   C2117617   2.253   4.233   6.292 -0.3607 -1.0203  0.7286
  148DOPC   O2217618   2.186   4.285   6.203  0.3176 -0.3221  0.0515
  148DOPC   C2217619   2.351   4.110   6.268 -0.1972 -0.0152  0.2701
  148DOPC   H2R17620   2.381   4.066   6.366  0.4301  1.6994  0.8952
  148DOPC   H2S17621   2.446   4.154   6.229  0.4461 -1.8948 -0.3619
  148DOPC    C317622   2.276   4.492   6.543 -0.1714 -0.6513  0.0968
  148DOPC    HX17623   2.278   4.423   6.631  0.7107  0.8203  1.2718
  148DOPC    HY17624   2.215   4.582   6.566 -0.9288 -1.2816  0.6113
  148DOPC   O3117625   2.410   4.532   6.503 -0.7332  0.4584 -0.3863
  148DOPC   C3117626   2.421   4.616   6.408 -1.1084  0.3467 -0.4614
  148DOPC   O3217627   2.329   4.685   6.366  0.4700  0.0510  0.2884
  148DOPC   C3217628   2.566   4.607   6.346  0.3834  0.0305  0.5560
  148DOPC   H2X17629   2.604   4.711   6.333 -0.0313  0.3131  1.5355
  148DOPC   H2Y17630   2.633   4.563   6.423  0.1841  0.0888  0.7626
  148DOPC   C2317631   2.318   4.006   6.168 -0.2945 -0.2904 -0.6342
  148DOPC   H3R17632   2.211   3.981   6.184 -0.8764  2.6001  0.7552
  148DOPC   H3S17633   2.398   3.929   6.171 -1.1039 -1.2498 -2.2675
  148DOPC   C2417634   2.311   4.055   6.019 -0.1737 -0.1395 -0.0320
  148DOPC   H4R17635   2.252   4.149   6.022  0.8317  0.5473  3.6389
  148DOPC   H4S17636   2.267   3.977   5.954  0.4895 -0.5168 -0.0354
  148DOPC   C2517637   2.454   4.081   5.968 -0.1471  0.1607  0.8229
  148DOPC   H5R17638   2.527   4.001   5.994 -0.6351 -0.4128  0.4305
  148DOPC   H5S17639   2.485   4.169   6.029  1.1307 -0.7186  1.4903
  148DOPC   C2617640   2.441   4.123   5.820  0.0019  0.2063 -0.3436
  148DOPC   H6R17641   2.364   4.201   5.807 -0.9812 -0.5156  0.8910
  148DOPC   H6S17642   2.422   4.033   5.757  1.0479 -0.3193  0.0687
  148DOPC   C2717643   2.582   4.166   5.775 -0.1436 -0.4298 -0.2129
  148DOPC   H7R17644   2.647   4.077   5.787  1.5098  0.7023 -0.3555
  148DOPC   H7S17645   2.613   4.247   5.844  0.1033 -0.5185 -0.2193
  148DOPC   C2817646   2.599   4.218   5.632 -0.5198 -0.1200  0.4852
  148DOPC   H8R17647   2.697   4.269   5.616 -2.5439  3.5054 -1.5968
  148DOPC   H8S17648   2.531   4.305   5.623 -0.8862 -0.3693  0.8265
  148DOPC   C2917649   2.594   4.109   5.528  0.3543 -0.4629  0.4978
  148DOPC   H9R17650   2.495   4.060   5.531  0.1651 -0.0959  0.3792
  148DOPC  C21017651   2.669   4.088   5.417  0.3243  0.1593 -0.0656
  148DOPC  H10R17652   2.638   3.998   5.361 -0.7253 -1.5523  2.9821
  148DOPC  C21117653   2.793   4.159   5.381 -0.5589  0.1726  0.1797
  148DOPC  H11R17654   2.863   4.086   5.336 -0.9141 -0.7429  1.0589
  148DOPC  H11S17655   2.839   4.204   5.472 -2.2048  2.2645  0.0331
  148DOPC  C21217656   2.772   4.271   5.272  0.8767 -0.0342 -0.2888
  148DOPC  H12R17657   2.698   4.344   5.311  0.1199  1.0224 -3.4167
  148DOPC  H12S17658   2.728   4.217   5.186  1.3997  0.0076 -0.5842
  148DOPC  C21317659   2.904   4.344   5.240  0.1890  0.4520  0.0515
  148DOPC  H13R17660   2.985   4.273   5.210 -1.2569 -1.2961  0.1012
  148DOPC  H13S17661   2.940   4.397   5.330 -0.4497  1.6433 -0.3706
  148DOPC  C21417662   2.884   4.451   5.139 -0.0030  0.2915 -0.0381
  148DOPC  H14R17663   2.812   4.522   5.185  1.4003  1.4068  0.4787
  148DOPC  H14S17664   2.838   4.408   5.047 -0.0520 -0.1910  0.2098
  148DOPC  C21517665   3.012   4.514   5.097 -0.4792 -0.1234  0.2924
  148DOPC  H15R17666   3.088   4.433   5.092  0.2478  0.2285  3.5541
  148DOPC  H15S17667   3.039   4.583   5.180  1.5873  0.2183 -0.5947
  148DOPC  C21617668   3.027   4.593   4.957  0.3525  0.0858  0.1441
  148DOPC  H16R17669   2.948   4.670   4.965  0.1049 -0.1429 -0.0614
  148DOPC  H16S17670   3.005   4.511   4.884  0.2406 -0.1841  0.4768
  148DOPC  C21717671   3.161   4.664   4.938 -0.5484 -0.2661  0.2995
  148DOPC  H17R17672   3.185   4.719   5.031 -0.0223  0.1588 -0.0737
  148DOPC  H17S17673   3.160   4.743   4.859  2.0520  0.4328  0.8703
  148DOPC  C21817674   3.275   4.570   4.918 -0.1097  0.4108 -0.1714
  148DOPC  H18R17675   3.246   4.488   4.849 -1.4184  2.0371 -1.6484
  148DOPC  H18S17676   3.305   4.542   5.021  0.8094  0.2333 -0.4826
  148DOPC  H18T17677   3.359   4.631   4.880 -0.6520  2.2386  1.4142
  148DOPC   C3317678   2.573   4.515   6.216 -0.3928 -0.2160 -0.0567
  148DOPC   H3X17679   2.527   4.566   6.128 -1.6187  0.6258  1.0348
  148DOPC   H3Y17680   2.526   4.416   6.236  0.6013 -0.5257  0.8162
  148DOPC   C3417681   2.717   4.477   6.181 -0.6332  0.1030  0.0903
  148DOPC   H4X17682   2.753   4.415   6.265  2.0771 -1.4017 -2.0034
  148DOPC   H4Y17683   2.769   4.575   6.172 -0.3197 -0.0845 -0.1889
  148DOPC   C3517684   2.744   4.403   6.047 -0.0179  0.5798  0.7420
  148DOPC   H5X17685   2.680   4.443   5.966  0.4324 -1.0381 -0.4668
  148DOPC   H5Y17686   2.707   4.298   6.054 -0.6614  0.6331 -1.3317
  148DOPC   C3617687   2.892   4.403   6.008 -0.0708  0.0936 -0.5198
  148DOPC   H6X17688   2.915   4.511   6.019 -0.0832 -0.0536  1.3157
  148DOPC   H6Y17689   2.965   4.365   6.083  0.5827  2.4787  0.1265
  148DOPC   C3717690   2.907   4.326   5.877  0.1234  0.6048  0.3966
  148DOPC   H7X17691   2.813   4.330   5.817 -0.7846 -0.8291  1.6593
  148DOPC   H7Y17692   2.983   4.375   5.813  0.0607  0.1149 -0.0594
  148DOPC   C3817693   2.929   4.173   5.892  0.3024 -0.2485 -0.0781
  148DOPC   H8X17694   2.852   4.131   5.960 -0.5689  0.9437 -0.3124
  148DOPC   H8Y17695   3.022   4.164   5.953  0.1322  0.0949  0.2292
  148DOPC   C3917696   2.923   4.077   5.773  0.9640 -0.3526 -0.1426
  148DOPC   H9X17697   2.846   3.999   5.778  1.0350 -0.4897 -1.1027
  148DOPC  C31017698   3.026   4.071   5.685 -0.1758 -0.1902  0.5133
  148DOPC  H10X17699   3.009   4.010   5.596  1.8373  1.6316 -1.2299
  148DOPC  C31117700   3.152   4.158   5.675  0.3732  1.4622  0.1410
  148DOPC  H11X17701   3.238   4.104   5.719  0.6798  2.0335  0.2543
  148DOPC  H11Y17702   3.148   4.252   5.733  0.3023  0.7891  1.2467
  148DOPC  C31217703   3.191   4.189   5.531 -0.3574 -0.0447  0.4810
  148DOPC  H12X17704   3.276   4.260   5.530  0.7449 -1.3102  1.2185
  148DOPC  H12Y17705   3.111   4.222   5.462  0.7831 -2.9154 -2.4388
  148DOPC  C31317706   3.249   4.073   5.458 -0.1291  0.0876  0.2706
  148DOPC  H13X17707   3.306   4.005   5.526 -0.0248 -0.1336 -0.0384
  148DOPC  H13Y17708   3.172   4.016   5.403  1.7096 -1.0765 -1.2426
  148DOPC  C31417709   3.348   4.111   5.353 -0.3276  0.0096 -0.1468
  148DOPC  H14X17710   3.445   4.139   5.400 -0.2248  0.2390 -0.4911
  148DOPC  H14Y17711   3.374   4.024   5.289 -0.9165 -0.4584  0.2403
  148DOPC  C31517712   3.294   4.223   5.272 -0.9152 -0.0350  0.1974
  148DOPC  H15X17713   3.284   4.324   5.318 -0.1334  0.6405 -1.0660
  148DOPC  H15Y17714   3.197   4.200   5.224 -0.5701 -1.5263  0.1921
  148DOPC  C31617715   3.376   4.251   5.137  0.0732 -0.8828 -0.9983
  148DOPC  H16X17716   3.412   4.156   5.092  1.1754 -1.5316  1.1028
  148DOPC  H16Y17717   3.307   4.312   5.076 -2.0323  1.1808  3.0022
  148DOPC  C31717718   3.498   4.344   5.170 -0.1505 -0.6156  0.0652
  148DOPC  H17X17719   3.528   4.412   5.087  0.4460  0.1671  0.9012
  148DOPC  H17Y17720   3.479   4.406   5.260 -1.9045  1.8691 -1.8625
  148DOPC  C31817721   3.625   4.262   5.198 -0.6067 -0.0827 -0.3858
  148DOPC  H18X17722   3.622   4.212   5.297 -0.0954 -1.6450 -1.1247
  148DOPC  H18Y17723   3.641   4.192   5.113 -0.9405  0.9920 -1.3671
  148DOPC  H18Z17724   3.716   4.326   5.199 -1.7959  1.6985 -1.4159
  149DOPC     N17725   2.543   2.145   7.336 -0.0417 -0.2230  0.8646
  149DOPC   C1217726   2.528   2.164   7.184 -0.2113 -0.4387  1.0410
  149DOPC  H12A17727   2.513   2.269   7.163 -0.1386 -0.3821  1.2775
  149DOPC  H12B17728   2.428   2.130   7.161 -0.2880 -0.3556  1.2510
  149DOPC   C1317729   2.676   2.190   7.386 -0.7043 -0.2718 -0.1935
  149DOPC  H13A17730   2.684   2.173   7.492  0.3761 -1.3724 -0.4213
  149DOPC  H13B17731   2.754   2.149   7.323 -0.8607  0.3638 -0.8119
  149DOPC  H13C17732   2.683   2.294   7.358 -0.7415 -1.2589 -4.5380
  149DOPC   C1417733   2.539   2.000   7.354 -0.7186  0.1419  0.4691
  149DOPC  H14A17734   2.446   1.955   7.325  0.6762 -1.5335 -1.7958
  149DOPC  H14B17735   2.620   1.950   7.302  2.4600  1.9582  3.2117
  149DOPC  H14C17736   2.551   1.976   7.458  0.8009  0.6650  0.4440
  149DOPC   C1517737   2.435   2.235   7.401  0.3121  0.2834 -0.5577
  149DOPC  H15A17738   2.333   2.216   7.370 -0.3329  1.4005  0.7693
  149DOPC  H15B17739   2.445   2.339   7.372  2.2011  0.2246 -0.2260
  149DOPC  H15C17740   2.438   2.228   7.508  1.9558 -0.1727 -0.6077
  149DOPC   C1117741   2.637   2.108   7.088 -0.4158 -0.7609 -0.1667
  149DOPC  H11A17742   2.643   1.997   7.093  0.7450 -0.9667 -3.4376
  149DOPC  H11B17743   2.602   2.127   6.985  0.9715  0.6323 -0.4197
  149DOPC     P17744   2.789   2.322   7.062 -0.2123  0.1928  0.2220
  149DOPC   O1317745   2.942   2.340   7.070 -0.1891  0.2166  0.4218
  149DOPC   O1417746   2.707   2.420   7.135  0.9712 -0.3037 -0.5674
  149DOPC   O1217747   2.762   2.172   7.109 -0.1435 -0.3939 -0.0761
  149DOPC   O1117748   2.749   2.326   6.910  0.2591  0.3894 -0.0462
  149DOPC    C117749   2.815   2.232   6.818 -0.2187 -0.2671  0.0414
  149DOPC    HA17750   2.816   2.129   6.860  3.6890 -0.2991  0.2438
  149DOPC    HB17751   2.921   2.262   6.802  0.3961 -2.9460 -1.6403
  149DOPC    C217752   2.755   2.225   6.683 -0.2007 -0.3478  0.5115
  149DOPC    HS17753   2.755   2.330   6.645 -0.6020 -0.4046  0.3491
  149DOPC   O2117754   2.625   2.171   6.688  0.9910  0.1019 -0.1546
  149DOPC   C2117755   2.553   2.184   6.577  0.1661  0.1887 -0.4730
  149DOPC   O2217756   2.557   2.278   6.499 -0.4322  0.7029  0.1434
  149DOPC   C2217757   2.456   2.069   6.562  0.5435  0.1396 -0.1897
  149DOPC   H2R17758   2.365   2.100   6.505 -0.5712 -0.7215  1.0503
  149DOPC   H2S17759   2.428   2.032   6.662  0.1927  0.3895 -0.1916
  149DOPC    C317760   2.853   2.138   6.596 -0.4188  0.2084  0.5089
  149DOPC    HX17761   2.823   2.033   6.620 -0.5049  0.6788  2.6910
  149DOPC    HY17762   2.960   2.147   6.624 -0.4630 -1.0496  1.2008
  149DOPC   O3117763   2.838   2.162   6.450  0.1329  0.7624 -0.0971
  149DOPC   C3117764   2.888   2.284   6.411 -0.1559  0.3996  0.0523
  149DOPC   O3217765   2.947   2.361   6.481 -0.0090 -1.0047  0.2373
  149DOPC   C3217766   2.847   2.316   6.267  0.5401  0.1356  0.4255
  149DOPC   H2X17767   2.736   2.324   6.258  0.4703  1.6832  2.0023
  149DOPC   H2Y17768   2.878   2.416   6.231 -0.3614 -0.5642 -2.6682
  149DOPC   C2317769   2.523   1.944   6.479  0.0695 -0.1846  0.2737
  149DOPC   H3R17770   2.456   1.855   6.467  1.0042 -0.9950  0.9357
  149DOPC   H3S17771   2.615   1.901   6.523 -0.0356  0.3782  1.0588
  149DOPC   C2417772   2.546   1.998   6.341  0.4754  0.2252 -0.1780
  149DOPC   H4R17773   2.626   2.075   6.335 -0.7040  1.3808 -1.8949
  149DOPC   H4S17774   2.457   2.055   6.308 -1.5400 -1.1447  2.5437
  149DOPC   C2517775   2.593   1.879   6.254 -0.0887 -0.1165  0.4029
  149DOPC   H5R17776   2.516   1.799   6.253 -0.6437  0.3361 -2.3749
  149DOPC   H5S17777   2.689   1.834   6.288  0.7004  0.9745 -0.2907
  149DOPC   C2617778   2.595   1.925   6.105 -0.0269 -0.5477  0.3658
  149DOPC   H6R17779   2.679   1.995   6.091  0.8086 -1.6718 -0.3430
  149DOPC   H6S17780   2.501   1.969   6.067  0.6595 -0.2793 -1.0634
  149DOPC   C2717781   2.622   1.812   6.007  1.1807  0.9989  0.2690
  149DOPC   H7R17782   2.549   1.730   6.023  0.8595  1.1373 -0.4571
  149DOPC   H7S17783   2.723   1.780   6.040  0.5945 -0.5848  0.5844
  149DOPC   C2817784   2.601   1.853   5.863  0.6119  0.0520  1.4486
  149DOPC   H8R17785   2.648   1.948   5.831 -1.2324  1.3080  2.3151
  149DOPC   H8S17786   2.492   1.865   5.841  0.6518 -1.0636  0.5140
  149DOPC   C2917787   2.645   1.738   5.775 -0.0388  0.1546 -0.0142
  149DOPC   H9R17788   2.666   1.640   5.821  1.0271 -0.7936 -2.3384
  149DOPC  C21017789   2.667   1.751   5.638  0.5979  0.0602 -0.3872
  149DOPC  H10R17790   2.687   1.663   5.575 -0.1222  0.4886 -1.2336
  149DOPC  C21117791   2.639   1.871   5.556 -0.2417  0.2235  0.1645
  149DOPC  H11R17792   2.577   1.948   5.608  0.8019  1.6018 -0.5531
  149DOPC  H11S17793   2.592   1.839   5.460 -1.1240 -0.3920  0.7936
  149DOPC  C21217794   2.776   1.942   5.526 -0.0830 -0.2075 -0.2298
  149DOPC  H12R17795   2.836   1.954   5.619 -3.2364 -0.8694  2.0776
  149DOPC  H12S17796   2.745   2.046   5.502  2.1689  0.2898 -1.1531
  149DOPC  C21317797   2.865   1.886   5.407  0.0114 -0.4500 -0.6053
  149DOPC  H13R17798   2.791   1.844   5.335  2.1551 -3.2931 -1.3235
  149DOPC  H13S17799   2.909   1.797   5.458  0.0603  1.2415  2.5758
  149DOPC  C21417800   2.958   1.988   5.345 -0.0145 -0.0404 -0.1568
  149DOPC  H14R17801   3.025   2.029   5.424 -0.6014  0.2128  0.2190
  149DOPC  H14S17802   2.907   2.073   5.296  0.2176  0.8700  1.1481
  149DOPC  C21517803   3.058   1.930   5.234  0.5477 -0.0972 -0.0542
  149DOPC  H15R17804   3.112   1.847   5.285  0.0680 -0.5674 -0.3066
  149DOPC  H15S17805   3.124   2.015   5.203  1.9897 -0.2086  2.4269
  149DOPC  C21617806   2.991   1.860   5.107 -0.2157 -0.2615  0.1217
  149DOPC  H16R17807   2.923   1.939   5.068  1.2983  1.0305 -0.0228
  149DOPC  H16S17808   2.931   1.774   5.143 -0.3822  0.6835  2.2762
  149DOPC  C21717809   3.086   1.814   4.998 -0.1102  0.1098  0.0531
  149DOPC  H17R17810   3.136   1.901   4.951  0.1164 -0.4436 -0.7439
  149DOPC  H17S17811   3.027   1.785   4.909 -3.2259  0.3786  1.9016
  149DOPC  C21817812   3.181   1.709   5.035 -0.5857 -0.5944  0.0298
  149DOPC  H18R17813   3.130   1.618   5.073  0.6583 -0.9268  0.9833
  149DOPC  H18S17814   3.258   1.745   5.107 -2.0572  1.7801  0.5242
  149DOPC  H18T17815   3.237   1.685   4.942 -1.8545 -1.0564 -0.6323
  149DOPC   C3317816   2.907   2.217   6.168  0.2892 -0.1644 -0.6248
  149DOPC   H3X17817   2.845   2.125   6.165  1.7876 -1.3538  1.3822
  149DOPC   H3Y17818   3.009   2.182   6.198  1.1716 -0.2098 -3.3768
  149DOPC   C3417819   2.921   2.287   6.026 -0.3221 -0.8309 -0.2321
  149DOPC   H4X17820   3.017   2.343   6.038 -1.7186  2.3161 -2.4743
  149DOPC   H4Y17821   2.841   2.364   6.026  0.8646  0.4772  0.6406
  149DOPC   C3517822   2.925   2.190   5.913  0.0246  0.2150  0.4120
  149DOPC   H5X17823   2.822   2.164   5.880 -0.1559 -0.8923  1.7694
  149DOPC   H5Y17824   2.969   2.094   5.948  0.8964  0.6153  0.4278
  149DOPC   C3617825   2.976   2.244   5.777 -0.1587  0.4651  0.1428
  149DOPC   H6X17826   2.962   2.168   5.697  0.1705  0.7053 -0.1464
  149DOPC   H6Y17827   2.921   2.336   5.750 -0.6476  1.3444  3.5799
  149DOPC   C3717828   3.125   2.276   5.782 -0.5754 -0.7581 -0.2640
  149DOPC   H7X17829   3.144   2.349   5.864 -0.7609 -1.2667  0.2361
  149DOPC   H7Y17830   3.172   2.179   5.809 -0.0501 -0.4875 -0.1920
  149DOPC   C3817831   3.195   2.324   5.654 -1.3039  0.9345 -0.3374
  149DOPC   H8X17832   3.301   2.343   5.680 -0.8438  0.0679 -1.5034
  149DOPC   H8Y17833   3.153   2.417   5.610  0.8740  2.1591  0.0027
  149DOPC   C3917834   3.200   2.227   5.541 -0.2274 -0.0311  0.3785
  149DOPC   H9X17835   3.132   2.140   5.549 -0.0425 -0.0699  1.9159
  149DOPC  C31017836   3.284   2.238   5.436 -1.2181 -0.2410  0.4995
  149DOPC  H10X17837   3.288   2.157   5.361  2.0523  0.3632 -0.1419
  149DOPC  C31117838   3.382   2.345   5.407 -0.2674  0.0274  0.5923
  149DOPC  H11X17839   3.457   2.308   5.334 -0.6415  1.0855 -0.3450
  149DOPC  H11Y17840   3.448   2.373   5.493  1.8778 -0.0128 -0.9637
  149DOPC  C31217841   3.329   2.481   5.352 -0.0425 -0.0489  0.1414
  149DOPC  H12X17842   3.416   2.550   5.343 -0.0816 -0.1975 -2.1065
  149DOPC  H12Y17843   3.252   2.517   5.423  0.1768  1.1114 -0.1900
  149DOPC  C31317844   3.286   2.474   5.208 -0.1514 -0.0153  0.2298
  149DOPC  H13X17845   3.370   2.441   5.144 -0.4485 -2.1452  0.8748
  149DOPC  H13Y17846   3.210   2.395   5.192  1.3297 -1.1077 -1.7843
  149DOPC  C31417847   3.236   2.609   5.159  0.0961 -0.2703  0.4329
  149DOPC  H14X17848   3.173   2.656   5.238  0.3983  0.2265  0.3884
  149DOPC  H14Y17849   3.327   2.674   5.157  1.0637 -1.5005  2.1022
  149DOPC  C31517850   3.174   2.607   5.022  0.2026  0.1821 -0.7749
  149DOPC  H15X17851   3.065   2.590   5.034  0.3480 -0.3419 -0.1234
  149DOPC  H15Y17852   3.205   2.516   4.966  0.9874  0.3773 -0.6702
  149DOPC  C31617853   3.193   2.732   4.945 -0.7390 -0.2192 -1.2089
  149DOPC  H16X17854   3.135   2.733   4.851 -0.0873 -2.2088 -1.6616
  149DOPC  H16Y17855   3.151   2.813   5.009 -2.2267 -1.1512 -0.9705
  149DOPC  C31717856   3.338   2.779   4.927  0.5440  0.7538  0.0769
  149DOPC  H17X17857   3.327   2.862   4.854 -0.3001  1.6418  1.1710
  149DOPC  H17Y17858   3.383   2.819   5.021 -2.0661  0.0309  1.7501
  149DOPC  C31817859   3.443   2.681   4.885 -0.2462  0.0937 -0.0138
  149DOPC  H18X17860   3.526   2.742   4.842 -2.0173  1.3279 -1.8592
  149DOPC  H18Y17861   3.478   2.616   4.969  2.3546  0.5207 -0.6825
  149DOPC  H18Z17862   3.414   2.608   4.806  1.5728  0.2841 -0.9156
  150DOPC     N17863   5.231   5.700   6.868  0.3294  0.5900  0.0006
  150DOPC   C1217864   5.109   5.710   6.774 -0.4549  0.4734 -0.5480
  150DOPC  H12A17865   5.024   5.736   6.835 -0.5760  1.3174 -1.0541
  150DOPC  H12B17866   5.091   5.609   6.740  1.3149 -0.4216  1.0273
  150DOPC   C1317867   5.198   5.592   6.968 -0.3634 -0.2313  0.1948
  150DOPC  H13A17868   5.217   5.496   6.923  0.6279 -0.2004  0.5328
  150DOPC  H13B17869   5.266   5.604   7.051 -1.3245 -0.2192  0.9926
  150DOPC  H13C17870   5.105   5.604   7.022 -0.4208 -1.4220  0.3897
  150DOPC   C1417871   5.240   5.828   6.944 -0.6601  0.4837 -0.7212
  150DOPC  H14A17872   5.162   5.837   7.019 -1.0610 -1.3119 -0.8818
  150DOPC  H14B17873   5.331   5.837   7.002 -1.2451 -1.7702  0.6424
  150DOPC  H14C17874   5.216   5.909   6.877 -1.5588  0.4002 -0.5121
  150DOPC   C1517875   5.364   5.677   6.796 -0.2062  0.4977 -0.1925
  150DOPC  H15A17876   5.455   5.680   6.855  0.0855 -1.8868 -0.4197
  150DOPC  H15B17877   5.368   5.749   6.716  0.3659  1.0208  0.2974
  150DOPC  H15C17878   5.374   5.574   6.764  2.1971 -0.4880  3.1027
  150DOPC   C1117879   5.120   5.813   6.665  0.3764  0.5005 -0.1460
  150DOPC  H11A17880   5.173   5.905   6.696  1.3811 -0.3880  0.8257
  150DOPC  H11B17881   5.176   5.770   6.579 -0.3648  1.4386 -1.1278
  150DOPC     P17882   4.902   5.949   6.683  0.1829 -0.5726  0.0393
  150DOPC   O1317883   4.909   5.937   6.831 -0.3840 -0.0868  0.5518
  150DOPC   O1417884   4.767   5.951   6.616  0.0721  0.1573  0.0422
  150DOPC   O1217885   4.985   5.833   6.621 -0.5161 -0.0292  0.0752
  150DOPC   O1117886   4.986   6.076   6.652 -0.4310 -0.3301  0.3245
  150DOPC    C117887   4.940   6.175   6.564 -0.4672 -0.7378 -0.0112
  150DOPC    HA17888   4.989   6.268   6.601  0.7787 -0.6749 -1.6965
  150DOPC    HB17889   4.830   6.194   6.571 -0.5457 -1.2124  0.0294
  150DOPC    C217890   4.986   6.143   6.423 -0.6810 -0.7275 -0.1403
  150DOPC    HS17891   4.984   6.233   6.358 -1.4796 -2.0268 -2.0281
  150DOPC   O2117892   4.909   6.037   6.363 -0.3517  0.1584  0.0259
  150DOPC   C2117893   4.786   6.070   6.327  0.0930  0.2039 -0.1686
  150DOPC   O2217894   4.729   6.180   6.341  0.0596  0.8994  0.2070
  150DOPC   C2217895   4.716   5.961   6.263 -0.1369  0.4347  0.6073
  150DOPC   H2R17896   4.608   5.984   6.244  0.5650  4.4995  0.5637
  150DOPC   H2S17897   4.708   5.874   6.331 -1.7225  0.0244 -0.0453
  150DOPC    C317898   5.137   6.105   6.429 -0.3214  0.1399  0.2629
  150DOPC    HX17899   5.146   6.009   6.483  0.5602  0.6102  0.9817
  150DOPC    HY17900   5.179   6.187   6.491  1.7410 -0.1582 -0.6742
  150DOPC   O3117901   5.201   6.103   6.295 -0.4472 -0.5906  0.4832
  150DOPC   C3117902   5.323   6.059   6.296 -0.9463  0.0433 -0.2012
  150DOPC   O3217903   5.386   6.019   6.395 -0.0547  0.1805  0.3448
  150DOPC   C3217904   5.387   6.057   6.159  0.0666  0.0671  0.1834
  150DOPC   H2X17905   5.309   6.037   6.083 -0.6757 -1.2272  1.2271
  150DOPC   H2Y17906   5.436   6.152   6.129  0.9153 -0.3721  0.1428
  150DOPC   C2317907   4.784   5.918   6.132 -0.2606  0.3160  0.7964
  150DOPC   H3R17908   4.726   5.839   6.080  2.9849 -1.3818 -0.5442
  150DOPC   H3S17909   4.890   5.889   6.152 -1.4025 -2.3205  4.0494
  150DOPC   C2417910   4.781   6.037   6.038  0.0203 -0.0439  0.2168
  150DOPC   H4R17911   4.877   6.094   6.050  0.0272  0.2120 -0.8973
  150DOPC   H4S17912   4.691   6.101   6.051 -0.7194 -1.4097  2.1985
  150DOPC   C2517913   4.770   5.981   5.894 -0.7533  0.0268  0.1768
  150DOPC   H5R17914   4.673   5.929   5.881 -1.3786  0.6803  1.9406
  150DOPC   H5S17915   4.850   5.903   5.885  0.4224  1.1177  0.7928
  150DOPC   C2617916   4.780   6.082   5.778 -0.1897 -0.2248 -0.8524
  150DOPC   H6R17917   4.876   6.138   5.790 -1.0070  1.0320  0.0155
  150DOPC   H6S17918   4.695   6.153   5.791 -0.0099 -0.2023  0.3146
  150DOPC   C2717919   4.763   6.015   5.648 -0.6217 -0.0602  0.2143
  150DOPC   H7R17920   4.664   5.964   5.640  0.2753 -1.6305 -2.0206
  150DOPC   H7S17921   4.843   5.938   5.651  0.5262  1.1275  3.1474
  150DOPC   C2817922   4.784   6.121   5.534 -0.3424  0.3019  0.2417
  150DOPC   H8R17923   4.811   6.062   5.444 -3.1220 -1.1841  0.2508
  150DOPC   H8S17924   4.875   6.178   5.561  0.4124 -1.0958  0.7367
  150DOPC   C2917925   4.672   6.210   5.498  0.4757 -1.0639 -0.1081
  150DOPC   H9R17926   4.579   6.155   5.477  0.0724 -0.2245 -0.5584
  150DOPC  C21017927   4.654   6.344   5.492 -0.0962  0.2536  0.3593
  150DOPC  H10R17928   4.560   6.381   5.448 -0.8034 -1.8697  0.0147
  150DOPC  C21117929   4.753   6.447   5.523  0.1819  0.8825  0.4361
  150DOPC  H11R17930   4.854   6.400   5.530 -0.9059 -1.8331 -0.7123
  150DOPC  H11S17931   4.736   6.503   5.618  2.1089  1.8122  0.2749
  150DOPC  C21217932   4.776   6.553   5.412 -0.5628  0.3980  0.1267
  150DOPC  H12R17933   4.680   6.597   5.379 -1.0003  0.1418  1.0304
  150DOPC  H12S17934   4.838   6.510   5.331  0.5818 -0.0999  1.2310
  150DOPC  C21317935   4.863   6.667   5.473 -0.0023  0.0268 -0.3760
  150DOPC  H13R17936   4.811   6.707   5.562  1.0488 -2.2188  1.3507
  150DOPC  H13S17937   4.874   6.752   5.402  1.4466  2.4885  2.5694
  150DOPC  C21417938   5.002   6.636   5.534 -0.3298  0.5914  0.0340
  150DOPC  H14R17939   5.072   6.607   5.453  0.3620  0.4399  0.6673
  150DOPC  H14S17940   4.989   6.554   5.608  0.0937  0.9843  0.5580
  150DOPC  C21517941   5.047   6.756   5.620  0.1899  0.0948  0.1456
  150DOPC  H15R17942   4.962   6.771   5.689 -0.6251 -2.2369 -0.2479
  150DOPC  H15S17943   5.054   6.840   5.549 -1.7064  0.6961  0.6218
  150DOPC  C21617944   5.169   6.729   5.704  0.1301 -0.1939 -0.0461
  150DOPC  H16R17945   5.242   6.687   5.632  2.7791 -1.4374  3.0913
  150DOPC  H16S17946   5.135   6.654   5.779  0.0239  0.0456  0.1500
  150DOPC  C21717947   5.206   6.862   5.774 -0.1603  0.1639  0.0788
  150DOPC  H17R17948   5.111   6.906   5.811 -0.4694 -0.3034 -0.1447
  150DOPC  H17S17949   5.251   6.932   5.700  0.0193 -0.4563 -0.4107
  150DOPC  C21817950   5.292   6.849   5.894 -0.5159 -0.1473 -0.4599
  150DOPC  H18R17951   5.399   6.833   5.869  0.2534 -1.4230  3.1473
  150DOPC  H18S17952   5.246   6.776   5.964  0.3820  0.2970  0.6177
  150DOPC  H18T17953   5.288   6.946   5.948 -0.0794 -0.2437 -0.2560
  150DOPC   C3317954   5.506   5.956   6.150 -0.3056 -0.0546  0.1561
  150DOPC   H3X17955   5.477   5.855   6.184  0.6293 -0.6337 -0.7037
  150DOPC   H3Y17956   5.586   5.988   6.220  0.2915 -0.7264 -0.2043
  150DOPC   C3417957   5.570   5.955   6.007 -0.0643  0.5343 -0.1825
  150DOPC   H4X17958   5.501   5.907   5.934  0.5269  0.8235 -0.9392
  150DOPC   H4Y17959   5.657   5.887   6.013 -0.7432 -0.4550 -1.1144
  150DOPC   C3517960   5.617   6.094   5.956  0.5834  0.1035 -0.3105
  150DOPC   H5X17961   5.665   6.143   6.043 -1.3046 -0.9395  1.4132
  150DOPC   H5Y17962   5.530   6.155   5.925 -0.0644 -0.5696  0.1379
  150DOPC   C3617963   5.713   6.071   5.833  0.4986 -0.1314 -0.1011
  150DOPC   H6X17964   5.769   6.163   5.804  0.1839 -0.1099 -0.6586
  150DOPC   H6Y17965   5.787   5.998   5.873  0.5922  0.5739  1.0429
  150DOPC   C3717966   5.643   6.020   5.706  0.0452 -0.3934 -0.3781
  150DOPC   H7X17967   5.567   5.941   5.723  0.1083 -0.7998 -1.8393
  150DOPC   H7Y17968   5.590   6.112   5.671  1.2026 -0.5308 -2.7170
  150DOPC   C3817969   5.734   5.977   5.594  0.5138  0.3170 -0.4707
  150DOPC   H8X17970   5.658   5.944   5.520  0.1117 -3.2244  1.2695
  150DOPC   H8Y17971   5.787   5.885   5.628  0.2736  0.5090  0.4628
  150DOPC   C3917972   5.832   6.080   5.537  0.2989 -0.4570 -0.0120
  150DOPC   H9X17973   5.852   6.172   5.594  1.5115 -0.1348 -0.9143
  150DOPC  C31017974   5.887   6.082   5.413 -0.2691  0.5256  0.3326
  150DOPC  H10X17975   5.955   6.162   5.379  0.4474 -0.3994 -0.4928
  150DOPC  C31117976   5.871   5.982   5.303  0.5501  0.3727  0.1990
  150DOPC  H11X17977   5.820   6.018   5.211 -0.6672 -0.4936  0.5054
  150DOPC  H11Y17978   5.820   5.890   5.339 -0.4299  1.3369  1.3575
  150DOPC  C31217979   6.004   5.924   5.257  0.6379  0.0054  0.3213
  150DOPC  H12X17980   6.083   5.999   5.233  2.3100 -1.8891 -0.3693
  150DOPC  H12Y17981   5.980   5.872   5.162 -2.6083  0.9407  0.4910
  150DOPC  C31317982   6.059   5.809   5.349 -0.4725 -0.9031 -0.4985
  150DOPC  H13X17983   6.053   5.831   5.458  0.7017 -1.2123 -0.3635
  150DOPC  H13Y17984   5.986   5.726   5.334 -1.4670 -0.1426 -0.0124
  150DOPC  C31417985   6.206   5.772   5.304  0.8621 -0.1449 -0.3807
  150DOPC  H14X17986   6.278   5.850   5.338  1.8554 -1.4445  0.6210
  150DOPC  H14Y17987   6.230   5.685   5.369 -0.3582  1.0423  1.7994
  150DOPC  C31517988   6.210   5.735   5.161  0.0002 -0.1828 -0.6662
  150DOPC  H15X17989   6.175   5.821   5.100 -0.0530 -1.0692 -1.9031
  150DOPC  H15Y17990   6.135   5.655   5.142 -0.1997 -0.0493 -0.4533
  150DOPC  C31617991   6.344   5.688   5.110 -0.2975 -0.5127  0.0134
  150DOPC  H16X17992   6.426   5.758   5.136 -0.4706 -0.9267  1.7819
  150DOPC  H16Y17993   6.358   5.592   5.164  0.5201  0.3207  1.3222
  150DOPC  C31717994   6.349   5.669   4.956 -0.3173 -0.1130  0.4549
  150DOPC  H17X17995   6.267   5.602   4.922  0.6753 -0.5761 -1.1480
  150DOPC  H17Y17996   6.338   5.766   4.902  0.3420  0.1305  0.7537
  150DOPC  C31817997   6.487   5.620   4.915 -0.3882  0.0959  0.1282
  150DOPC  H18X17998   6.517   5.531   4.975 -1.7369 -0.3460  0.1920
  150DOPC  H18Y17999   6.506   5.585   4.811  1.4328 -1.4838  0.9178
  150DOPC  H18Z18000   6.566   5.692   4.944 -1.8751  2.3205 -1.1100
  151DOPC     N18001   1.830   2.385   6.929  0.2411 -0.6819  0.0129
  151DOPC   C1218002   1.904   2.512   6.911 -0.3928  0.6963 -0.9075
  151DOPC  H12A18003   1.913   2.565   7.004 -0.6082 -2.5365  1.1083
  151DOPC  H12B18004   1.852   2.578   6.843  0.2653  0.7097 -1.4113
  151DOPC   C1318005   1.827   2.310   6.802  0.9462  0.5300  0.1061
  151DOPC  H13A18006   1.778   2.214   6.804  1.8302  0.0298 -1.1723
  151DOPC  H13B18007   1.775   2.363   6.724  0.6995 -0.0993 -0.1577
  151DOPC  H13C18008   1.926   2.287   6.765  0.2950  0.7742 -1.8689
  151DOPC   C1418009   1.680   2.419   6.955 -1.0583 -0.2469 -0.9497
  151DOPC  H14A18010   1.615   2.333   6.963 -0.7011 -0.4452 -0.1127
  151DOPC  H14B18011   1.677   2.470   7.050  0.1610 -0.3480 -0.8369
  151DOPC  H14C18012   1.642   2.498   6.892  1.4055 -0.0086 -2.2756
  151DOPC   C1518013   1.879   2.301   7.049  0.4803 -0.6583  0.2463
  151DOPC  H15A18014   1.984   2.281   7.035  0.2663 -0.0251 -3.2527
  151DOPC  H15B18015   1.830   2.205   7.043 -0.7801 -0.1708  1.8510
  151DOPC  H15C18016   1.848   2.355   7.138 -0.3155  0.2916 -0.5771
  151DOPC   C1118017   2.047   2.503   6.854  0.2358  0.6346  0.3192
  151DOPC  H11A18018   2.108   2.427   6.909 -0.5577  0.8187  1.4970
  151DOPC  H11B18019   2.050   2.480   6.746 -0.2907  0.0377  0.4269
  151DOPC     P18020   2.079   2.751   6.781 -0.0083  0.0151 -0.2324
  151DOPC   O1318021   2.158   2.862   6.832  0.4976  0.6041 -0.1629
  151DOPC   O1418022   1.933   2.765   6.776  0.2269 -0.7971  0.2812
  151DOPC   O1218023   2.113   2.630   6.869  0.5301 -0.3332  0.7144
  151DOPC   O1118024   2.123   2.701   6.641 -0.4730  0.0249  0.0836
  151DOPC    C118025   2.258   2.684   6.611 -0.0591  0.5667  0.0753
  151DOPC    HA18026   2.308   2.612   6.679  1.7891  2.6137  1.0201
  151DOPC    HB18027   2.309   2.783   6.614 -0.4613  0.9429 -2.8338
  151DOPC    C218028   2.278   2.632   6.461 -0.0852 -0.2600 -1.1453
  151DOPC    HS18029   2.380   2.660   6.426  0.2014  0.5467  0.2333
  151DOPC   O2118030   2.170   2.689   6.385 -0.5129 -0.6381 -0.3477
  151DOPC   C2118031   2.193   2.820   6.364 -0.3055 -0.1340 -0.5938
  151DOPC   O2218032   2.296   2.886   6.393 -0.2906  0.2880  0.7793
  151DOPC   C2218033   2.076   2.873   6.273  0.3981 -0.1052 -0.1306
  151DOPC   H2R18034   1.974   2.857   6.315  0.2390  0.8828 -0.0920
  151DOPC   H2S18035   2.086   2.820   6.176 -0.1411 -0.0022 -0.2484
  151DOPC    C318036   2.261   2.474   6.450 -0.0636  0.0791 -0.8299
  151DOPC    HX18037   2.158   2.447   6.480 -0.1187 -0.0926 -1.1713
  151DOPC    HY18038   2.326   2.415   6.518 -1.3105 -0.3612  0.0170
  151DOPC   O3118039   2.289   2.429   6.317  0.4118 -0.1516  0.4275
  151DOPC   C3118040   2.238   2.313   6.262  0.7394 -0.3011  0.1660
  151DOPC   O3218041   2.170   2.237   6.323 -0.0553  0.6523 -0.0032
  151DOPC   C3218042   2.272   2.309   6.111  0.3256  0.2642 -0.2160
  151DOPC   H2X18043   2.203   2.236   6.064 -1.6722  0.3281  2.4558
  151DOPC   H2Y18044   2.246   2.410   6.073  0.5805  0.4130 -0.0013
  151DOPC   C2318045   2.109   3.026   6.255 -0.2906 -0.7672  0.1847
  151DOPC   H3R18046   2.211   3.046   6.217  0.8218 -1.0072  2.8416
  151DOPC   H3S18047   2.093   3.074   6.354 -1.8368 -0.8244 -0.0053
  151DOPC   C2418048   2.020   3.096   6.153  0.4288 -0.2731 -1.3063
  151DOPC   H4R18049   1.998   3.199   6.187  1.0249 -1.0399  1.6643
  151DOPC   H4S18050   1.929   3.032   6.155  0.0673  0.2402 -0.2028
  151DOPC   C2518051   2.067   3.085   6.006 -0.2722  0.4455 -0.5220
  151DOPC   H5R18052   2.084   2.978   5.982  0.5735 -0.0853  2.1387
  151DOPC   H5S18053   2.164   3.136   5.992  0.5746 -0.2731  2.1391
  151DOPC   C2618054   1.955   3.135   5.913 -0.2124 -0.1434 -0.0829
  151DOPC   H6R18055   1.931   3.236   5.954  1.9392  1.0004 -1.4432
  151DOPC   H6S18056   1.867   3.069   5.924  0.0405 -0.4088  0.3734
  151DOPC   C2718057   1.990   3.141   5.766  0.6935  0.1521  0.4682
  151DOPC   H7R18058   2.041   3.044   5.748  2.3786  0.4836  2.9897
  151DOPC   H7S18059   2.067   3.215   5.734 -1.8770  1.7590 -2.5123
  151DOPC   C2818060   1.861   3.154   5.680  0.2440 -0.0687 -0.2173
  151DOPC   H8R18061   1.806   3.065   5.717  0.0400  0.3990  0.6428
  151DOPC   H8S18062   1.877   3.133   5.573 -2.8798 -1.5973 -0.5067
  151DOPC   C2918063   1.781   3.280   5.698  0.0913  0.3694  0.6181
  151DOPC   H9R18064   1.845   3.369   5.693 -1.6203  1.5948 -0.7698
  151DOPC  C21018065   1.652   3.287   5.734 -0.5503  0.1869 -0.0439
  151DOPC  H10R18066   1.608   3.387   5.749 -2.0004 -0.2182 -1.2913
  151DOPC  C21118067   1.553   3.171   5.772 -0.5034 -0.0889  0.2749
  151DOPC  H11R18068   1.533   3.184   5.880  0.5720 -2.5507  0.8462
  151DOPC  H11S18069   1.600   3.072   5.753 -0.9414 -0.0332 -1.1746
  151DOPC  C21218070   1.420   3.173   5.696 -0.6627  0.1715  0.4078
  151DOPC  H12R18071   1.399   3.280   5.675  1.1597  0.5899  0.5285
  151DOPC  H12S18072   1.337   3.130   5.756  1.2007 -2.9117  1.0264
  151DOPC  C21318073   1.422   3.090   5.566 -0.0468  0.3818  0.5912
  151DOPC  H13R18074   1.450   2.987   5.594 -0.6188 -0.0069 -0.2118
  151DOPC  H13S18075   1.507   3.131   5.508 -0.0754 -0.4745 -0.0795
  151DOPC  C21418076   1.288   3.097   5.498 -0.2468  0.7717 -0.2354
  151DOPC  H14R18077   1.266   3.200   5.464  1.4381  1.3475  0.3486
  151DOPC  H14S18078   1.206   3.056   5.561 -1.4366  2.1160 -0.8522
  151DOPC  C21518079   1.289   3.009   5.376 -0.4046 -0.1634  0.6520
  151DOPC  H15R18080   1.318   2.908   5.411 -2.3172 -0.6163  1.0469
  151DOPC  H15S18081   1.378   3.044   5.319 -2.3388  0.5657 -2.1862
  151DOPC  C21618082   1.163   3.000   5.297  0.1605  0.3956  0.1324
  151DOPC  H16R18083   1.075   3.008   5.364  0.9893  0.8358  1.2028
  151DOPC  H16S18084   1.164   2.892   5.271 -3.0789 -0.1425  1.7669
  151DOPC  C21718085   1.145   3.093   5.180 -0.2715  0.3766 -0.1080
  151DOPC  H17R18086   1.243   3.100   5.126 -0.2283  1.4511  0.0772
  151DOPC  H17S18087   1.127   3.190   5.232 -0.5867  1.3731 -1.9876
  151DOPC  C21818088   1.029   3.076   5.088  0.0367  0.3575  0.0789
  151DOPC  H18R18089   0.943   3.125   5.139 -0.4244 -2.1572  1.9361
  151DOPC  H18S18090   1.009   2.969   5.066 -2.4741  0.8588 -0.3599
  151DOPC  H18T18091   1.047   3.123   4.989 -0.3863 -1.8690 -1.1166
  151DOPC   C3318092   2.420   2.294   6.085 -0.0501 -0.1020 -0.6102
  151DOPC   H3X18093   2.472   2.206   6.129 -0.8895  0.8645  2.6463
  151DOPC   H3Y18094   2.464   2.384   6.133 -0.0753 -0.8714  0.9128
  151DOPC   C3418095   2.465   2.302   5.937 -0.7830  0.0907 -0.3335
  151DOPC   H4X18096   2.575   2.288   5.938 -0.8928 -0.8847  1.1132
  151DOPC   H4Y18097   2.439   2.400   5.892 -1.1673 -0.0764 -0.4780
  151DOPC   C3518098   2.403   2.194   5.850  0.3953  0.1114  0.1289
  151DOPC   H5X18099   2.295   2.217   5.839  0.3384  0.3094  0.9843
  151DOPC   H5Y18100   2.410   2.099   5.907 -1.5322  0.5108  1.1241
  151DOPC   C3618101   2.469   2.163   5.714 -0.3769  0.4706 -0.7386
  151DOPC   H6X18102   2.571   2.122   5.728 -0.1826  0.6578 -1.5578
  151DOPC   H6Y18103   2.411   2.076   5.676  0.3654 -1.1301  1.5248
  151DOPC   C3718104   2.470   2.285   5.629  0.6491  0.1201  0.0661
  151DOPC   H7X18105   2.363   2.312   5.614  0.9654  1.6560  0.4754
  151DOPC   H7Y18106   2.527   2.365   5.680  2.4923 -0.1623 -1.4453
  151DOPC   C3818107   2.530   2.270   5.486  0.0678  0.4088  0.1207
  151DOPC   H8X18108   2.635   2.233   5.488 -0.4597 -1.1661 -0.6095
  151DOPC   H8Y18109   2.539   2.361   5.423 -1.1746 -1.6091 -3.1927
  151DOPC   C3918110   2.449   2.171   5.398 -0.2361 -0.6387 -0.3332
  151DOPC   H9X18111   2.484   2.068   5.412 -1.1841 -1.2606 -2.3591
  151DOPC  C31018112   2.345   2.197   5.316  0.1878 -0.3396 -0.4372
  151DOPC  H10X18113   2.291   2.114   5.270 -0.5843 -1.4171  2.2058
  151DOPC  C31118114   2.295   2.334   5.294 -0.2046 -1.3083 -0.0764
  151DOPC  H11X18115   2.317   2.401   5.380 -1.1428 -0.2175 -0.6642
  151DOPC  H11Y18116   2.184   2.346   5.295  0.0991  3.2119 -0.6659
  151DOPC  C31218117   2.357   2.404   5.172  0.2973  0.3115  0.5156
  151DOPC  H12X18118   2.466   2.409   5.193  0.3498 -1.7060  0.8980
  151DOPC  H12Y18119   2.318   2.508   5.169  4.4884  2.0867  0.2405
  151DOPC  C31318120   2.333   2.339   5.037  0.1239  0.3824  0.5333
  151DOPC  H13X18121   2.381   2.239   5.036 -1.3224 -0.3841  2.3946
  151DOPC  H13Y18122   2.223   2.322   5.035  0.2009 -0.0868 -0.5203
  151DOPC  C31418123   2.390   2.407   4.906  0.1299 -0.0794 -0.3926
  151DOPC  H14X18124   2.406   2.514   4.930 -0.9621  0.4872 -2.0045
  151DOPC  H14Y18125   2.485   2.355   4.878  0.9266  1.9513 -1.7049
  151DOPC  C31518126   2.303   2.389   4.781 -0.3761 -0.6390  0.9251
  151DOPC  H15X18127   2.214   2.453   4.801  0.3806  0.6464  0.3079
  151DOPC  H15Y18128   2.270   2.284   4.770 -1.8418 -0.1846  0.7320
  151DOPC  C31618129   2.357   2.447   4.646  0.3750  0.1216 -0.2812
  151DOPC  H16X18130   2.391   2.552   4.660  0.1078  0.0514  1.0730
  151DOPC  H16Y18131   2.445   2.384   4.619 -0.4519 -0.6432 -1.2577
  151DOPC  C31718132   2.259   2.427   4.529 -0.7515  0.0851 -0.1206
  151DOPC  H17X18133   2.245   2.317   4.523  2.0176 -0.2646 -3.2389
  151DOPC  H17Y18134   2.162   2.467   4.563 -1.6418 -2.6757  0.8365
  151DOPC  C31818135   2.303   2.486   4.398  0.2975 -0.2172  0.4090
  151DOPC  H18X18136   2.222   2.476   4.323  0.0000  0.0992  0.6838
  151DOPC  H18Y18137   2.338   2.591   4.406  1.9460 -0.8033  1.5819
  151DOPC  H18Z18138   2.387   2.426   4.357 -1.7382 -2.4397 -0.7256
  152DOPC     N18139   4.650   1.102   7.036  0.0092  0.5204  0.2675
  152DOPC   C1218140   4.609   1.248   7.002  0.2207  0.3308  0.1093
  152DOPC  H12A18141   4.629   1.277   6.900  1.6732 -5.7616 -1.7230
  152DOPC  H12B18142   4.666   1.312   7.068 -0.1668  0.3835  0.3946
  152DOPC   C1318143   4.562   0.995   6.972 -1.0742 -0.2364  0.0639
  152DOPC  H13A18144   4.588   0.989   6.867  0.9481 -0.0603  0.5124
  152DOPC  H13B18145   4.576   0.901   7.023 -1.1693  1.6316  3.8345
  152DOPC  H13C18146   4.457   1.019   6.982 -0.9741 -0.2513  1.1817
  152DOPC   C1418147   4.656   1.079   7.180 -0.4818 -0.2255 -0.3906
  152DOPC  H14A18148   4.727   1.154   7.211 -0.3526 -0.5033 -0.0022
  152DOPC  H14B18149   4.563   1.105   7.228  0.3895 -2.2530  2.7129
  152DOPC  H14C18150   4.690   0.982   7.215 -0.8084 -0.0610  0.4118
  152DOPC   C1518151   4.784   1.073   6.982  0.2542 -0.0504  0.1858
  152DOPC  H15A18152   4.849   1.158   6.996  0.1884  0.6344 -2.9742
  152DOPC  H15B18153   4.779   1.064   6.875 -0.6833  0.1265  0.2044
  152DOPC  H15C18154   4.829   0.979   7.010  0.7213  0.2214  0.3530
  152DOPC   C1118155   4.457   1.279   7.015  0.1897 -0.3423 -0.1146
  152DOPC  H11A18156   4.423   1.254   7.117  2.1718  0.8964  0.9086
  152DOPC  H11B18157   4.452   1.390   7.018 -1.4061 -0.4172  0.7896
  152DOPC     P18158   4.374   1.289   6.757 -0.0177  0.2174 -0.3413
  152DOPC   O1318159   4.255   1.241   6.682  0.2521 -0.1704  0.2511
  152DOPC   O1418160   4.513   1.267   6.696  0.4234 -0.0843  0.3111
  152DOPC   O1218161   4.382   1.222   6.911 -0.1181 -0.3281  0.5718
  152DOPC   O1118162   4.362   1.443   6.794  0.4315  0.5112 -0.1096
  152DOPC    C118163   4.244   1.490   6.862 -1.2528  0.4209 -0.1793
  152DOPC    HA18164   4.277   1.584   6.912  0.5307 -0.7383  0.9175
  152DOPC    HB18165   4.223   1.445   6.961  1.8481  1.2217  0.9738
  152DOPC    C218166   4.119   1.505   6.766  0.4056  0.0544 -0.2783
  152DOPC    HS18167   4.073   1.406   6.787  1.9366 -0.1856  2.3276
  152DOPC   O2118168   4.169   1.522   6.632  0.0632 -0.1184 -0.7711
  152DOPC   C2118169   4.087   1.481   6.542 -0.0628  0.5588  0.0780
  152DOPC   O2218170   3.986   1.417   6.557  0.5640 -0.1927 -0.4421
  152DOPC   C2218171   4.139   1.539   6.412  0.1475 -0.2961 -0.0310
  152DOPC   H2R18172   4.250   1.528   6.410  0.2443  0.7203 -0.7780
  152DOPC   H2S18173   4.133   1.649   6.407  1.2096 -0.2632 -1.0630
  152DOPC    C318174   4.036   1.624   6.812 -0.3890 -0.3360 -0.2542
  152DOPC    HX18175   4.103   1.712   6.819 -1.2019  0.1740  1.7747
  152DOPC    HY18176   4.003   1.606   6.917  0.0794  1.6821  0.2729
  152DOPC   O3118177   3.920   1.662   6.731 -0.4624 -0.1802 -0.0964
  152DOPC   C3118178   3.803   1.598   6.765 -0.3059  0.1302 -0.3583
  152DOPC   O3218179   3.793   1.521   6.859 -0.1128  0.2294 -0.0955
  152DOPC   C3218180   3.694   1.643   6.669 -0.8124  0.2068 -0.4953
  152DOPC   H2X18181   3.649   1.731   6.720  0.7988 -0.3376  2.0562
  152DOPC   H2Y18182   3.742   1.670   6.572 -1.0169  0.6706 -0.4723
  152DOPC   C2318183   4.087   1.472   6.286 -0.0791  0.2361 -0.0158
  152DOPC   H3R18184   4.093   1.361   6.291  0.8747  0.3241  0.8739
  152DOPC   H3S18185   4.151   1.503   6.201 -2.9110  1.0046 -2.0486
  152DOPC   C2418186   3.940   1.513   6.258 -1.2098  0.0414  0.7123
  152DOPC   H4R18187   3.931   1.615   6.214  1.0899 -0.5331 -1.2788
  152DOPC   H4S18188   3.878   1.524   6.350  0.8426  1.6479  2.0010
  152DOPC   C2518189   3.873   1.419   6.156 -0.3030 -0.0900  0.2374
  152DOPC   H5R18190   3.844   1.323   6.204 -2.4429 -0.1763 -1.0873
  152DOPC   H5S18191   3.950   1.400   6.079 -0.8039 -2.7345  0.2789
  152DOPC   C2618192   3.746   1.475   6.087  0.1397  0.4248  0.3815
  152DOPC   H6R18193   3.680   1.526   6.160  0.0663  0.2138  0.4637
  152DOPC   H6S18194   3.684   1.391   6.047 -0.2644 -0.8882  3.4482
  152DOPC   C2718195   3.773   1.562   5.961 -0.2040 -0.3025 -0.2568
  152DOPC   H7R18196   3.864   1.619   5.988 -0.6319  0.3467 -0.1677
  152DOPC   H7S18197   3.696   1.641   5.948 -1.5664 -1.4247  0.6349
  152DOPC   C2818198   3.802   1.486   5.830 -0.2705  0.3334 -0.3099
  152DOPC   H8R18199   3.714   1.424   5.801  1.0264 -1.2267 -1.1321
  152DOPC   H8S18200   3.878   1.406   5.847 -1.1407 -0.6920 -1.1137
  152DOPC   C2918201   3.838   1.575   5.719  1.0060  0.4955  0.6408
  152DOPC   H9R18202   3.798   1.677   5.727  1.7176  0.7428  1.1854
  152DOPC  C21018203   3.933   1.561   5.619 -0.0175  0.1693 -0.9010
  152DOPC  H10R18204   3.951   1.642   5.547 -0.1409 -1.4485 -2.8477
  152DOPC  C21118205   4.030   1.442   5.608 -0.5662  0.6073 -0.1756
  152DOPC  H11R18206   4.040   1.385   5.703 -0.6917 -1.6579 -1.4588
  152DOPC  H11S18207   4.129   1.482   5.577 -0.6761  1.1319  0.1325
  152DOPC  C21218208   3.991   1.338   5.499 -0.6615  0.5431 -0.2275
  152DOPC  H12R18209   3.886   1.312   5.522 -1.0979  2.4728  0.0419
  152DOPC  H12S18210   4.054   1.246   5.507 -0.9276  0.2670 -1.1511
  152DOPC  C21318211   4.009   1.395   5.359  0.6007  0.5055  0.5037
  152DOPC  H13R18212   4.114   1.431   5.351  1.4858 -1.4993  2.1645
  152DOPC  H13S18213   3.937   1.478   5.345 -1.1307 -1.0090  0.1959
  152DOPC  C21418214   3.977   1.287   5.253 -0.3673 -0.1793 -0.1187
  152DOPC  H14R18215   3.868   1.266   5.258 -0.3649  0.1543  1.7251
  152DOPC  H14S18216   4.024   1.189   5.274 -2.9159 -0.9919  2.4571
  152DOPC  C21518217   4.009   1.346   5.122  0.7230 -1.2429  0.0345
  152DOPC  H15R18218   4.097   1.413   5.110  0.2502 -0.4900  0.7134
  152DOPC  H15S18219   3.920   1.400   5.084  2.5763  0.3256 -2.3774
  152DOPC  C21618220   4.023   1.229   5.020 -1.0367 -0.5506 -0.0614
  152DOPC  H16R18221   3.931   1.169   5.008 -0.5254 -0.8732 -3.1317
  152DOPC  H16S18222   4.110   1.166   5.048  0.1570  0.4985 -1.2749
  152DOPC  C21718223   4.053   1.281   4.876  0.8559  0.1645  0.3857
  152DOPC  H17R18224   4.153   1.329   4.886  1.7903 -1.3280 -1.1609
  152DOPC  H17S18225   3.975   1.352   4.840 -0.5619 -1.3890  0.2679
  152DOPC  C21818226   4.070   1.177   4.765 -0.2017  0.1429  0.1691
  152DOPC  H18R18227   4.099   1.223   4.668 -2.1338  2.2282  0.4924
  152DOPC  H18S18228   3.977   1.117   4.758 -0.1268 -0.1676  1.5713
  152DOPC  H18T18229   4.143   1.101   4.801  0.0327  1.0955  1.8064
  152DOPC   C3318230   3.593   1.524   6.650 -0.4011 -0.5815  0.9806
  152DOPC   H3X18231   3.496   1.569   6.620 -0.2426 -1.2846 -0.6814
  152DOPC   H3Y18232   3.579   1.478   6.751  2.7522  3.7708  3.7585
  152DOPC   C3418233   3.643   1.418   6.541  0.4897 -0.4987  0.1812
  152DOPC   H4X18234   3.727   1.372   6.598 -1.0290 -2.8992  0.5903
  152DOPC   H4Y18235   3.689   1.464   6.451 -0.1770  0.6716  0.4217
  152DOPC   C3518236   3.545   1.308   6.515  0.1709  0.4223  0.4684
  152DOPC   H5X18237   3.515   1.252   6.606 -2.7788 -2.9582 -2.2617
  152DOPC   H5Y18238   3.594   1.226   6.458 -2.7853 -1.6538  0.6611
  152DOPC   C3618239   3.409   1.351   6.450  0.2374 -0.3431 -0.0483
  152DOPC   H6X18240   3.342   1.262   6.443  2.5067 -2.1146 -0.4275
  152DOPC   H6Y18241   3.373   1.422   6.528  0.5538 -0.9675  0.6783
  152DOPC   C3718242   3.436   1.394   6.308 -0.3008 -0.5883 -0.0823
  152DOPC   H7X18243   3.505   1.480   6.315  1.1589 -1.5643 -1.6115
  152DOPC   H7Y18244   3.507   1.323   6.260  1.6416  0.5965  0.9050
  152DOPC   C3818245   3.315   1.424   6.215 -0.4764 -0.8389 -0.1418
  152DOPC   H8X18246   3.238   1.471   6.281  1.1810  0.5106  0.9274
  152DOPC   H8Y18247   3.271   1.331   6.173 -1.8044 -0.2314 -0.1480
  152DOPC   C3918248   3.353   1.514   6.102 -0.0266 -0.1847 -0.7697
  152DOPC   H9X18249   3.429   1.588   6.131 -2.1681  2.4368 -1.4546
  152DOPC  C31018250   3.311   1.524   5.975 -0.4665  0.1875  0.0314
  152DOPC  H10X18251   3.360   1.597   5.909 -1.6001 -1.3464 -2.6478
  152DOPC  C31118252   3.214   1.442   5.901 -0.7120  0.5673 -0.0398
  152DOPC  H11X18253   3.254   1.339   5.887 -0.6075  0.8039 -1.6928
  152DOPC  H11Y18254   3.195   1.480   5.799 -0.0518 -4.0894 -2.1607
  152DOPC  C31218255   3.074   1.420   5.963  0.1018 -0.4367  0.1343
  152DOPC  H12X18256   3.014   1.513   5.969 -0.3693 -0.6829 -0.6047
  152DOPC  H12Y18257   3.086   1.383   6.067 -0.3191 -0.6971  0.0946
  152DOPC  C31318258   2.985   1.323   5.882  0.1234 -0.2333  0.3345
  152DOPC  H13X18259   2.992   1.339   5.772  3.3330 -2.2150  0.1025
  152DOPC  H13Y18260   3.030   1.221   5.893 -2.8349 -2.0719 -2.6742
  152DOPC  C31418261   2.841   1.332   5.926  0.4008  0.3113  0.1124
  152DOPC  H14X18262   2.835   1.280   6.024 -1.4389 -2.7552 -1.4926
  152DOPC  H14Y18263   2.808   1.438   5.936  0.4270  0.2164  1.3563
  152DOPC  C31518264   2.746   1.251   5.830 -0.0906  0.5114 -0.7200
  152DOPC  H15X18265   2.784   1.147   5.838 -0.0391  0.6193  0.6951
  152DOPC  H15Y18266   2.750   1.285   5.725 -2.2117 -0.9496 -1.3539
  152DOPC  C31618267   2.599   1.240   5.879  0.8438  0.1013  0.8887
  152DOPC  H16X18268   2.545   1.170   5.811 -0.0589 -0.4876  2.1724
  152DOPC  H16Y18269   2.582   1.202   5.982 -1.6660 -1.7185 -0.0978
  152DOPC  C31718270   2.525   1.380   5.861  0.2493  1.3455  0.3092
  152DOPC  H17X18271   2.422   1.359   5.895 -0.3554 -0.3718 -2.3580
  152DOPC  H17Y18272   2.572   1.455   5.928  1.5090  0.3073  0.6278
  152DOPC  C31818273   2.515   1.430   5.722 -0.0635 -0.0013  0.6438
  152DOPC  H18X18274   2.483   1.356   5.646 -0.7318  1.2481 -0.3207
  152DOPC  H18Y18275   2.440   1.511   5.712 -0.9071 -1.0008 -1.8003
  152DOPC  H18Z18276   2.618   1.466   5.701 -0.7331  0.9967 -1.1366
  153DOPC     N18277   4.401   6.977   6.726 -0.5914  0.0535 -0.5966
  153DOPC   C1218278   4.508   7.038   6.636  0.3314 -0.1423 -0.5500
  153DOPC  H12A18279   4.461   7.108   6.568 -1.4358  1.5228  2.2149
  153DOPC  H12B18280   4.562   6.962   6.582  0.7822  0.3777 -0.8421
  153DOPC   C1318281   4.305   6.904   6.647  0.2827 -1.5067 -0.8618
  153DOPC  H13A18282   4.356   6.812   6.619  1.6541 -1.4424  1.1662
  153DOPC  H13B18283   4.224   6.876   6.713  0.2221 -0.0689 -0.2932
  153DOPC  H13C18284   4.270   6.958   6.560  0.1823  0.8071  0.5353
  153DOPC   C1418285   4.324   7.085   6.801  0.2555 -0.4739  0.3438
  153DOPC  H14A18286   4.243   7.113   6.734  1.5628  1.0264 -0.6654
  153DOPC  H14B18287   4.295   7.041   6.895  1.5695  1.9564  1.9748
  153DOPC  H14C18288   4.373   7.175   6.833 -1.0426  0.6498 -0.6513
  153DOPC   C1518289   4.453   6.878   6.820 -0.3080 -0.3525 -0.3098
  153DOPC  H15A18290   4.516   6.802   6.776  0.9046 -0.0822  0.8889
  153DOPC  H15B18291   4.374   6.836   6.880  0.2921 -1.9633 -0.5891
  153DOPC  H15C18292   4.531   6.931   6.874  0.6608 -0.2886 -1.7279
  153DOPC   C1118293   4.628   7.106   6.711 -0.3549  0.2149  0.3239
  153DOPC  H11A18294   4.689   7.167   6.641  0.2755  0.1910  0.8396
  153DOPC  H11B18295   4.580   7.181   6.778 -0.9951  1.1538 -1.1255
  153DOPC     P18296   4.801   6.909   6.716  0.0932 -0.2893  0.6279
  153DOPC   O1318297   4.808   6.787   6.799 -0.1515 -0.3799  0.0359
  153DOPC   O1418298   4.932   6.969   6.679  0.2565 -0.5544 -0.4061
  153DOPC   O1218299   4.710   7.020   6.782  0.0214  0.5264  0.0738
  153DOPC   O1118300   4.724   6.867   6.592 -0.5935 -0.6066 -0.1199
  153DOPC    C118301   4.699   6.739   6.539 -0.2842 -0.0911  0.4644
  153DOPC    HA18302   4.598   6.709   6.574 -0.1603  0.3231  1.2029
  153DOPC    HB18303   4.762   6.663   6.590 -0.4235  0.1618  1.0254
  153DOPC    C218304   4.701   6.734   6.383 -0.2751  0.2443 -0.4434
  153DOPC    HS18305   4.692   6.624   6.366 -1.8633  0.3399 -0.4149
  153DOPC   O2118306   4.824   6.792   6.329 -0.2346  0.3556 -0.8155
  153DOPC   C2118307   4.932   6.716   6.352  0.0305  0.2172  0.5227
  153DOPC   O2218308   4.936   6.618   6.427 -0.5162 -0.1309 -0.0241
  153DOPC   C2218309   5.053   6.761   6.264 -0.5623 -0.3066  0.2911
  153DOPC   H2R18310   5.057   6.871   6.250 -1.2170 -0.5165 -1.8955
  153DOPC   H2S18311   5.040   6.726   6.160  2.1088 -2.5274  0.5930
  153DOPC    C318312   4.581   6.812   6.324  0.5644 -0.0169  0.1486
  153DOPC    HX18313   4.619   6.902   6.273 -2.5125  1.5946  0.4385
  153DOPC    HY18314   4.520   6.844   6.411 -1.1047 -0.0860 -0.9330
  153DOPC   O3118315   4.506   6.735   6.227 -0.2934  0.0220  0.1248
  153DOPC   C3118316   4.384   6.783   6.202 -0.0345 -0.1704  0.4517
  153DOPC   O3218317   4.334   6.869   6.271  0.4996 -0.7029 -0.2945
  153DOPC   C3218318   4.317   6.722   6.078 -0.2540  0.0684  0.5893
  153DOPC   H2X18319   4.384   6.635   6.063  1.2871  1.3217 -0.2100
  153DOPC   H2Y18320   4.213   6.695   6.104 -1.1093  1.6800 -0.9732
  153DOPC   C2318321   5.192   6.719   6.309 -0.0695  0.1643 -0.2344
  153DOPC   H3R18322   5.269   6.718   6.229  0.3655 -0.4287  0.1765
  153DOPC   H3S18323   5.182   6.615   6.346 -1.7881  0.2170 -0.4750
  153DOPC   C2418324   5.235   6.814   6.427  0.1899  0.5156  0.8505
  153DOPC   H4R18325   5.282   6.748   6.503 -0.5006  0.3978  1.1849
  153DOPC   H4S18326   5.143   6.862   6.466  0.7036  0.1575  2.6265
  153DOPC   C2518327   5.334   6.915   6.387 -0.3813 -0.4639 -0.1600
  153DOPC   H5R18328   5.425   6.861   6.352  0.9255  1.5447  0.0127
  153DOPC   H5S18329   5.361   6.983   6.471  2.8810 -0.5092 -1.0352
  153DOPC   C2618330   5.309   7.004   6.263  0.6416  0.9295 -0.1597
  153DOPC   H6R18331   5.209   7.052   6.276  0.3254  0.1016  0.5195
  153DOPC   H6S18332   5.305   6.942   6.171  2.1257  1.0563 -0.3323
  153DOPC   C2718333   5.426   7.110   6.260  0.3620 -0.1149  0.6102
  153DOPC   H7R18334   5.518   7.068   6.307  0.4458 -0.2874  0.2911
  153DOPC   H7S18335   5.387   7.182   6.335 -0.6930 -0.5065  0.4486
  153DOPC   C2818336   5.450   7.171   6.117 -0.0584 -0.0498  0.1297
  153DOPC   H8R18337   5.469   7.281   6.117 -1.0340  0.1280 -0.2497
  153DOPC   H8S18338   5.358   7.166   6.056 -1.0643  0.9124  1.4912
  153DOPC   C2918339   5.558   7.094   6.052 -0.2883  0.4102  0.2315
  153DOPC   H9R18340   5.576   6.992   6.088  3.1449  1.1122  0.8576
  153DOPC  C21018341   5.629   7.133   5.940 -0.1623  0.2571 -0.3439
  153DOPC  H10R18342   5.702   7.065   5.894 -0.8497 -1.6262  1.2592
  153DOPC  C21118343   5.612   7.270   5.877 -0.2669 -0.4000  0.9136
  153DOPC  H11R18344   5.708   7.291   5.825 -0.4745 -0.1153  0.6446
  153DOPC  H11S18345   5.586   7.353   5.946 -1.1319  1.1757 -1.1846
  153DOPC  C21218346   5.497   7.253   5.771  0.3906  1.3462 -0.7140
  153DOPC  H12R18347   5.463   7.353   5.736  1.8726  3.1031  2.4790
  153DOPC  H12S18348   5.409   7.211   5.824  1.0094 -1.2082 -1.5341
  153DOPC  C21318349   5.518   7.146   5.665 -0.6493  0.4409  0.3284
  153DOPC  H13R18350   5.496   7.044   5.705 -1.0690  0.8648  1.2033
  153DOPC  H13S18351   5.619   7.144   5.621 -0.3361 -2.2502  0.9904
  153DOPC  C21418352   5.421   7.158   5.547  0.2606  0.8880  0.1550
  153DOPC  H14R18353   5.443   7.250   5.489 -0.9029  0.6669 -0.6638
  153DOPC  H14S18354   5.319   7.176   5.587 -0.2766 -1.7481  0.1734
  153DOPC  C21518355   5.416   7.045   5.453  0.0244  0.8966  0.7905
  153DOPC  H15R18356   5.410   6.953   5.515  1.5445  1.8037  2.3576
  153DOPC  H15S18357   5.504   7.043   5.385  0.9045 -0.8063  1.9323
  153DOPC  C21618358   5.296   7.052   5.355 -0.0617 -0.1966 -0.1761
  153DOPC  H16R18359   5.305   7.153   5.308 -1.5502  1.5074  2.8330
  153DOPC  H16S18360   5.197   7.046   5.406  0.8470  0.1440  1.6961
  153DOPC  C21718361   5.311   6.929   5.255  0.0189  0.0008  0.2272
  153DOPC  H17R18362   5.317   6.829   5.304  1.2426 -0.0755 -0.0377
  153DOPC  H17S18363   5.407   6.943   5.201 -0.8101 -0.4258 -1.4159
  153DOPC  C21818364   5.184   6.913   5.173 -0.5189 -0.1661 -0.7442
  153DOPC  H18R18365   5.134   7.009   5.146 -0.4006  0.5470  1.4047
  153DOPC  H18S18366   5.116   6.851   5.235  2.7188 -0.5582  2.7015
  153DOPC  H18T18367   5.209   6.857   5.080 -0.5777  1.0435 -1.5179
  153DOPC   C3318368   4.329   6.817   5.958 -0.4374  0.0618  0.3663
  153DOPC   H3X18369   4.434   6.843   5.936 -0.5005  0.5794  0.6551
  153DOPC   H3Y18370   4.282   6.918   5.962 -0.4410  0.1382 -1.0611
  153DOPC   C3418371   4.257   6.752   5.845 -0.3884 -0.1718 -0.5969
  153DOPC   H4X18372   4.263   6.829   5.764 -0.0988  1.3872  0.8501
  153DOPC   H4Y18373   4.150   6.753   5.873 -0.0622  3.1855  1.1096
  153DOPC   C3518374   4.313   6.623   5.798  0.0813 -0.5168  0.6603
  153DOPC   H5X18375   4.292   6.555   5.884  0.7655  0.0723  1.2968
  153DOPC   H5Y18376   4.419   6.639   5.772 -0.5457 -0.0358 -1.8967
  153DOPC   C3618377   4.248   6.570   5.664 -1.0188  0.4062 -0.2429
  153DOPC   H6X18378   4.153   6.520   5.694 -1.3400  1.1079 -0.0485
  153DOPC   H6Y18379   4.216   6.664   5.614 -1.4898  0.5994  0.3929
  153DOPC   C3718380   4.344   6.494   5.574 -0.0205 -0.3839 -0.5319
  153DOPC   H7X18381   4.419   6.566   5.535  0.2640 -0.8995 -0.9596
  153DOPC   H7Y18382   4.385   6.410   5.633  0.6547  0.9721  0.9953
  153DOPC   C3818383   4.272   6.441   5.453 -0.4508 -0.2047  0.5887
  153DOPC   H8X18384   4.190   6.382   5.499 -0.1315 -0.5689  0.6979
  153DOPC   H8Y18385   4.336   6.368   5.399 -2.3247  0.0941 -2.2084
  153DOPC   C3918386   4.224   6.547   5.356 -0.3873 -0.4274  0.2686
  153DOPC   H9X18387   4.146   6.614   5.397 -0.8812 -1.2336  0.6613
  153DOPC  C31018388   4.246   6.560   5.224  0.3683 -0.1803 -0.8202
  153DOPC  H10X18389   4.209   6.648   5.170  1.4203  0.8420  0.0881
  153DOPC  C31118390   4.325   6.459   5.140  0.0846  0.0009 -0.4002
  153DOPC  H11X18391   4.268   6.405   5.062  0.8065 -1.4940  0.0721
  153DOPC  H11Y18392   4.372   6.382   5.204 -1.8268  0.0850  1.1907
  153DOPC  C31218393   4.438   6.526   5.059  0.0943  0.1482 -0.6826
  153DOPC  H12X18394   4.506   6.585   5.125  1.5096 -0.6523 -1.3712
  153DOPC  H12Y18395   4.392   6.596   4.986 -0.3668  0.9298  0.3279
  153DOPC  C31318396   4.528   6.426   4.989 -0.2474 -0.6356  0.3030
  153DOPC  H13X18397   4.625   6.480   4.990 -0.9568  0.8171 -2.0643
  153DOPC  H13Y18398   4.543   6.340   5.058 -0.3450  0.7453  2.1084
  153DOPC  C31418399   4.478   6.374   4.854 -0.1424  0.8239 -0.1083
  153DOPC  H14X18400   4.558   6.315   4.803 -0.5603  0.9208 -0.8967
  153DOPC  H14Y18401   4.389   6.309   4.863  0.4272  0.2920  2.3043
  153DOPC  C31518402   4.441   6.479   4.756 -0.0919  0.1662  0.3634
  153DOPC  H15X18403   4.518   6.559   4.755 -0.2576  0.3210 -0.8638
  153DOPC  H15Y18404   4.344   6.526   4.782 -1.2054 -2.5128  1.4713
  153DOPC  C31618405   4.434   6.425   4.611 -0.4564  0.3583  0.3125
  153DOPC  H16X18406   4.528   6.376   4.578  0.3487  1.4812  0.8802
  153DOPC  H16Y18407   4.350   6.352   4.617 -0.5608  0.3922 -0.5971
  153DOPC  C31718408   4.389   6.530   4.509  0.7993 -1.1895  0.6208
  153DOPC  H17X18409   4.351   6.470   4.424  0.6388 -0.4961  0.2046
  153DOPC  H17Y18410   4.302   6.589   4.545  1.2227  0.1018 -0.4032
  153DOPC  C31818411   4.505   6.620   4.458 -0.1457  0.1654 -0.2912
  153DOPC  H18X18412   4.572   6.632   4.546  0.9443 -1.3913 -0.8731
  153DOPC  H18Y18413   4.572   6.560   4.392  1.6396 -0.1579  1.7107
  153DOPC  H18Z18414   4.479   6.708   4.395 -2.0900 -0.5625 -0.5687
  154DOPC     N18415   5.888   3.777   7.437 -0.4624  0.3904 -0.6356
  154DOPC   C1218416   5.892   3.624   7.471  0.3698 -0.4680  0.0773
  154DOPC  H12A18417   5.828   3.571   7.401 -1.3787  0.3192  0.9987
  154DOPC  H12B18418   5.855   3.607   7.571  0.2670 -1.0481 -0.0549
  154DOPC   C1318419   5.867   3.805   7.291  0.1407 -0.2331 -0.6626
  154DOPC  H13A18420   5.762   3.808   7.267 -0.0935  0.4827  0.3798
  154DOPC  H13B18421   5.898   3.904   7.264 -0.7505 -0.1351 -1.3593
  154DOPC  H13C18422   5.937   3.745   7.235 -0.2641  0.0413 -1.4761
  154DOPC   C1418423   6.019   3.845   7.477 -0.3360 -0.0299 -0.0204
  154DOPC  H14A18424   6.040   3.818   7.579 -0.2706 -1.4965 -0.3959
  154DOPC  H14B18425   6.095   3.799   7.415  0.0619  2.3483 -1.4512
  154DOPC  H14C18426   6.022   3.953   7.466  1.5274 -0.1638 -1.1612
  154DOPC   C1518427   5.780   3.837   7.523  0.0893 -0.0698 -0.2226
  154DOPC  H15A18428   5.690   3.800   7.478 -1.2348  0.2076  2.0437
  154DOPC  H15B18429   5.779   3.944   7.508  0.3247  0.1977  1.4686
  154DOPC  H15C18430   5.781   3.800   7.624 -2.4567  0.2624 -0.0214
  154DOPC   C1118431   6.028   3.551   7.461 -0.6153 -0.2462 -0.0993
  154DOPC  H11A18432   6.097   3.588   7.540 -0.4049  0.2485 -0.5031
  154DOPC  H11B18433   6.019   3.442   7.481 -2.0786  0.2372  2.2145
  154DOPC     P18434   6.234   3.595   7.308 -0.1288 -0.2437 -0.0756
  154DOPC   O1318435   6.307   3.470   7.346  0.0494 -0.2695  0.3635
  154DOPC   O1418436   6.279   3.725   7.365  0.0433 -0.0805 -0.0470
  154DOPC   O1218437   6.082   3.574   7.329 -0.4461 -0.7650  0.1745
  154DOPC   O1118438   6.250   3.607   7.149  0.5351 -0.0157  0.0082
  154DOPC    C118439   6.134   3.655   7.077 -0.3068 -0.0061  0.2058
  154DOPC    HA18440   6.114   3.763   7.095  0.5605  0.6853 -2.5077
  154DOPC    HB18441   6.047   3.587   7.086 -0.1556 -0.0692  1.3743
  154DOPC    C218442   6.161   3.657   6.920  0.6675 -0.8390  0.3768
  154DOPC    HS18443   6.068   3.693   6.871 -0.9040 -2.3737  2.0672
  154DOPC   O2118444   6.188   3.522   6.876  0.6100  0.0348  0.1806
  154DOPC   C2118445   6.089   3.436   6.881 -0.4239 -0.2641 -0.2397
  154DOPC   O2218446   5.972   3.450   6.921  0.2860 -0.0361 -0.0050
  154DOPC   C2218447   6.136   3.296   6.838  0.7206  0.2797 -0.2024
  154DOPC   H2R18448   6.148   3.234   6.930  0.5350  1.3579  0.5720
  154DOPC   H2S18449   6.237   3.301   6.793  1.2541 -2.3902  0.5136
  154DOPC    C318450   6.270   3.753   6.882  0.1521  0.2176 -0.1131
  154DOPC    HX18451   6.368   3.722   6.925  0.2870  0.4424 -0.2565
  154DOPC    HY18452   6.251   3.850   6.932  1.4474  1.1232 -1.2908
  154DOPC   O3118453   6.289   3.775   6.746  0.1224  0.4552  0.0235
  154DOPC   C3118454   6.324   3.900   6.710 -0.2076  0.4240  0.6142
  154DOPC   O3218455   6.326   3.996   6.781 -0.9162 -0.0897 -0.3181
  154DOPC   C3218456   6.339   3.892   6.563 -0.2649 -0.3486  0.0512
  154DOPC   H2X18457   6.444   3.866   6.538 -0.1631  0.0922 -0.0014
  154DOPC   H2Y18458   6.279   3.806   6.527 -1.3823 -0.1834  1.4137
  154DOPC   C2318459   6.032   3.233   6.739 -0.2565 -0.5284  0.3133
  154DOPC   H3R18460   5.924   3.245   6.761 -0.3356 -1.1898  0.3195
  154DOPC   H3S18461   6.055   3.124   6.731  1.5793 -0.0407 -2.5720
  154DOPC   C2418462   6.044   3.281   6.592  0.4539 -0.0755  0.1040
  154DOPC   H4R18463   6.145   3.256   6.552 -0.2245  0.2114 -1.9579
  154DOPC   H4S18464   6.048   3.392   6.583  1.7467 -0.1096  0.0315
  154DOPC   C2518465   5.942   3.210   6.509  0.8233 -0.3445 -0.7298
  154DOPC   H5R18466   5.843   3.230   6.554  0.9073  1.7380 -1.3434
  154DOPC   H5S18467   5.960   3.100   6.506 -1.9474 -0.8806 -0.1056
  154DOPC   C2618468   5.925   3.261   6.364 -0.2216 -0.1358 -0.4639
  154DOPC   H6R18469   6.013   3.233   6.303  0.3596  2.6690 -1.0489
  154DOPC   H6S18470   5.920   3.372   6.360  2.4691  0.1433  1.3326
  154DOPC   C2718471   5.801   3.191   6.310  0.0884 -0.3760  0.6777
  154DOPC   H7R18472   5.724   3.194   6.390  0.4426 -0.0796  1.0117
  154DOPC   H7S18473   5.818   3.082   6.293  0.4516 -0.7428  3.0868
  154DOPC   C2818474   5.745   3.254   6.185 -0.1309  0.9760 -0.0828
  154DOPC   H8R18475   5.697   3.351   6.209  0.0128  0.9306  0.4197
  154DOPC   H8S18476   5.670   3.181   6.147 -1.5008  2.2635  0.0270
  154DOPC   C2918477   5.861   3.288   6.085  1.0792  0.0154 -0.1393
  154DOPC   H9R18478   5.925   3.375   6.107  2.8904 -1.3348  0.1938
  154DOPC  C21018479   5.892   3.208   5.985 -0.1883  0.5764  0.6859
  154DOPC  H10R18480   5.966   3.233   5.907 -0.4425 -1.3043 -0.2243
  154DOPC  C21118481   5.820   3.074   5.953 -0.4645 -0.4832  0.5025
  154DOPC  H11R18482   5.780   3.028   6.046 -0.7189 -1.3233 -0.0093
  154DOPC  H11S18483   5.885   3.010   5.890  1.5738  0.4251  1.5734
  154DOPC  C21218484   5.699   3.111   5.866  0.2720  0.2784 -0.5547
  154DOPC  H12R18485   5.642   3.194   5.914  2.0480  1.6537 -0.6814
  154DOPC  H12S18486   5.620   3.033   5.867  0.2590  0.1701 -2.9683
  154DOPC  C21318487   5.730   3.140   5.719 -0.1624 -0.3900 -0.3496
  154DOPC  H13R18488   5.828   3.098   5.686 -0.0483 -1.0753  0.8278
  154DOPC  H13S18489   5.728   3.251   5.708 -3.2829 -0.1018  1.9077
  154DOPC  C21418490   5.612   3.106   5.626 -0.2721 -0.0504 -0.0453
  154DOPC  H14R18491   5.563   3.022   5.679  3.0941 -0.0825  3.4644
  154DOPC  H14S18492   5.658   3.080   5.528 -2.2518  0.0500 -1.0500
  154DOPC  C21518493   5.511   3.224   5.602 -0.2938  0.3903  0.1139
  154DOPC  H15R18494   5.579   3.291   5.545 -1.4582  1.6460  0.1636
  154DOPC  H15S18495   5.486   3.267   5.702 -1.8325 -1.3161  0.5195
  154DOPC  C21618496   5.378   3.187   5.521 -0.5530  0.9281  0.1013
  154DOPC  H16R18497   5.320   3.118   5.586 -1.1665  0.9693 -0.3862
  154DOPC  H16S18498   5.402   3.122   5.434  0.6405 -2.2442  2.6121
  154DOPC  C21718499   5.283   3.293   5.475  0.5636  0.3790 -0.2502
  154DOPC  H17R18500   5.322   3.377   5.414 -1.9827  1.5973 -0.3081
  154DOPC  H17S18501   5.237   3.344   5.562  0.0779 -0.5669  0.0602
  154DOPC  C21818502   5.172   3.227   5.391 -0.1215  0.2389  0.1820
  154DOPC  H18R18503   5.214   3.203   5.291  0.3878  0.6740  0.2885
  154DOPC  H18S18504   5.086   3.298   5.389  0.1758  0.6427  1.0595
  154DOPC  H18T18505   5.128   3.135   5.434 -1.3126  0.4599 -0.5075
  154DOPC   C3318506   6.292   4.023   6.486  0.1577 -0.0768  0.3544
  154DOPC   H3X18507   6.335   4.119   6.521 -0.8889  1.4535 -2.2597
  154DOPC   H3Y18508   6.184   4.019   6.510  0.1794 -1.9576  0.3517
  154DOPC   C3418509   6.330   4.008   6.343 -0.0014 -0.4581  0.1483
  154DOPC   H4X18510   6.297   3.908   6.308 -1.8381  0.9424 -2.4969
  154DOPC   H4Y18511   6.440   4.008   6.324 -0.1679  0.2857 -0.8999
  154DOPC   C3518512   6.262   4.114   6.254  0.3000 -0.2098  0.0599
  154DOPC   H5X18513   6.305   4.119   6.152  0.1324 -0.5811 -0.0311
  154DOPC   H5Y18514   6.275   4.208   6.313  2.5952  0.0729 -0.7925
  154DOPC   C3618515   6.108   4.094   6.231  0.0383  0.1052  0.0687
  154DOPC   H6X18516   6.121   4.005   6.166 -0.8704 -0.2879  0.4056
  154DOPC   H6Y18517   6.051   4.058   6.319  0.4071 -0.7592 -0.0345
  154DOPC   C3718518   6.042   4.207   6.144  0.6518  0.2337 -0.2987
  154DOPC   H7X18519   6.041   4.293   6.214 -0.5227  0.5489 -0.6779
  154DOPC   H7Y18520   6.104   4.238   6.058  2.1616  1.5904  1.2265
  154DOPC   C3818521   5.907   4.162   6.093  0.2252  0.9599 -0.6176
  154DOPC   H8X18522   5.922   4.061   6.048 -0.4806 -0.0968  1.3710
  154DOPC   H8Y18523   5.867   4.224   6.011  1.4986 -0.1126 -2.0973
  154DOPC   C3918524   5.811   4.152   6.208 -0.1630 -0.7386  1.0105
  154DOPC   H9X18525   5.827   4.061   6.267  0.0586 -0.9474  0.6320
  154DOPC  C31018526   5.715   4.234   6.251  0.5707  0.3548 -0.3336
  154DOPC  H10X18527   5.663   4.195   6.340 -0.0383  0.4633 -0.6313
  154DOPC  C31118528   5.670   4.370   6.197  0.1920 -0.4130  0.1836
  154DOPC  H11X18529   5.718   4.371   6.097  1.3848 -1.2254  0.7292
  154DOPC  H11Y18530   5.704   4.454   6.262 -0.1967 -0.2837  0.2182
  154DOPC  C31218531   5.514   4.384   6.187  0.3413 -0.1432 -0.5540
  154DOPC  H12X18532   5.481   4.392   6.293 -0.8240  0.7371 -0.9654
  154DOPC  H12Y18533   5.471   4.289   6.147 -0.4592  0.0409 -0.1644
  154DOPC  C31318534   5.461   4.509   6.115  0.0046  0.4247 -0.2691
  154DOPC  H13X18535   5.453   4.590   6.190  0.3000  0.4063 -0.2181
  154DOPC  H13Y18536   5.529   4.538   6.032  0.6940 -1.1004 -0.2753
  154DOPC  C31418537   5.319   4.496   6.063  0.2448 -0.2132 -0.7993
  154DOPC  H14X18538   5.327   4.427   5.976 -0.3718  0.8616 -1.7304
  154DOPC  H14Y18539   5.254   4.430   6.124 -0.7119  0.4780 -1.0462
  154DOPC  C31518540   5.247   4.624   6.035 -0.0195  0.0774 -0.7803
  154DOPC  H15X18541   5.291   4.678   5.948  1.6224  2.2793  1.2888
  154DOPC  H15Y18542   5.265   4.695   6.118 -1.4837 -0.0367 -0.3389
  154DOPC  C31618543   5.092   4.617   6.025  0.1728  0.7502  0.1146
  154DOPC  H16X18544   5.075   4.574   5.924  0.3803  1.8806 -0.4127
  154DOPC  H16Y18545   5.046   4.574   6.117  1.0338  0.7007  0.5396
  154DOPC  C31718546   5.023   4.760   6.024  0.1934 -0.3291 -0.4202
  154DOPC  H17X18547   5.066   4.816   6.109 -2.0611  0.6336  0.1688
  154DOPC  H17Y18548   5.049   4.805   5.926  0.5372 -2.4776 -1.3858
  154DOPC  C31818549   4.869   4.761   6.045 -0.6929  0.6306  0.4423
  154DOPC  H18X18550   4.813   4.688   5.982  0.1613 -1.9897  2.5293
  154DOPC  H18Y18551   4.839   4.718   6.143 -0.7071  1.3181  0.7453
  154DOPC  H18Z18552   4.817   4.859   6.039  1.1970  1.6064 -1.8387
  155DOPC     N18553   1.152   1.974   7.402 -0.2217  0.5186  0.2122
  155DOPC   C1218554   1.128   1.849   7.313  0.4842 -0.7188 -0.0179
  155DOPC  H12A18555   1.045   1.791   7.351 -0.3093 -0.5671 -1.4495
  155DOPC  H12B18556   1.217   1.788   7.318  1.2009  0.1925 -1.0745
  155DOPC   C1318557   1.157   1.928   7.540 -0.3080 -0.5114  0.4518
  155DOPC  H13A18558   1.230   1.848   7.547  0.0549 -0.1743  0.5650
  155DOPC  H13B18559   1.179   2.015   7.601 -3.6485  2.0846 -1.6669
  155DOPC  H13C18560   1.066   1.880   7.573 -1.2012 -1.6357 -3.1285
  155DOPC   C1418561   1.049   2.075   7.394  0.1370  0.4644 -0.8143
  155DOPC  H14A18562   1.076   2.176   7.423 -1.9090  1.4274 -2.0373
  155DOPC  H14B18563   1.010   2.089   7.293 -1.3241 -1.1133 -0.5159
  155DOPC  H14C18564   0.966   2.045   7.457  0.8935  0.9758  0.4575
  155DOPC   C1518565   1.282   2.040   7.371  0.5352  0.1634  0.0439
  155DOPC  H15A18566   1.369   1.977   7.381  0.8706  0.6774  0.3812
  155DOPC  H15B18567   1.295   2.132   7.426  1.0764  0.3370 -0.3705
  155DOPC  H15C18568   1.274   2.070   7.268 -0.5859 -3.6129 -1.1320
  155DOPC   C1118569   1.098   1.873   7.162  0.1722 -0.1086 -0.4248
  155DOPC  H11A18570   1.074   1.773   7.121  2.8795 -1.9766  2.1380
  155DOPC  H11B18571   1.009   1.940   7.160 -1.2532 -1.8709  0.8699
  155DOPC     P18572   1.209   2.055   7.000 -0.1802  0.1849  0.6344
  155DOPC   O1318573   1.341   2.052   6.935  0.4479  0.6796 -0.0291
  155DOPC   O1418574   1.170   2.167   7.081 -0.4991  0.1677  0.1721
  155DOPC   O1218575   1.207   1.925   7.092 -0.4238  0.0730 -0.0303
  155DOPC   O1118576   1.100   2.032   6.890 -0.6387  0.4404 -0.3977
  155DOPC    C118577   1.066   1.910   6.832  0.2493 -0.2302  0.0844
  155DOPC    HA18578   0.965   1.930   6.790  1.3205  2.4241 -1.5226
  155DOPC    HB18579   1.061   1.826   6.904  1.0143  0.0340  0.4533
  155DOPC    C218580   1.182   1.864   6.735  0.3862 -0.0191 -0.1969
  155DOPC    HS18581   1.272   1.852   6.799  0.6650 -0.7373 -0.7021
  155DOPC   O2118582   1.200   1.954   6.629  0.0780 -0.3644  0.2017
  155DOPC   C2118583   1.321   1.956   6.575 -0.5160 -0.0863  0.7134
  155DOPC   O2218584   1.418   1.892   6.617 -0.2038 -0.0130  0.3897
  155DOPC   C2218585   1.309   2.049   6.447 -0.6256  0.5874 -0.8751
  155DOPC   H2R18586   1.235   2.131   6.461  0.2113  1.7402 -2.6935
  155DOPC   H2S18587   1.278   1.987   6.360  2.2542  0.2557 -1.7769
  155DOPC    C318588   1.138   1.725   6.674  0.7419  0.5970  0.2537
  155DOPC    HX18589   1.033   1.730   6.640 -0.5214  0.9957  3.8377
  155DOPC    HY18590   1.135   1.656   6.761  1.2216  0.3499  0.0821
  155DOPC   O3118591   1.219   1.681   6.565 -0.0762 -0.3103 -0.0139
  155DOPC   C3118592   1.313   1.593   6.597 -0.4264  0.0172 -0.3271
  155DOPC   O3218593   1.343   1.566   6.714 -0.2441 -0.3742  0.4266
  155DOPC   C3218594   1.373   1.531   6.469  0.3366  0.0028  0.2300
  155DOPC   H2X18595   1.289   1.500   6.403 -0.0718  1.2509  0.1475
  155DOPC   H2Y18596   1.426   1.619   6.428 -0.2509  0.7197  0.9844
  155DOPC   C2318597   1.449   2.110   6.393 -0.4580 -0.4333  0.0656
  155DOPC   H3R18598   1.520   2.029   6.362 -1.6642 -1.0395 -1.2631
  155DOPC   H3S18599   1.495   2.177   6.468 -1.0131  1.9701 -1.6154
  155DOPC   C2418600   1.426   2.190   6.264 -0.1321  0.3400  0.7038
  155DOPC   H4R18601   1.349   2.270   6.275  0.0268  0.4511  1.0053
  155DOPC   H4S18602   1.395   2.124   6.180 -1.5988  3.9118 -1.8758
  155DOPC   C2518603   1.555   2.262   6.217  0.0222 -0.3169  0.6081
  155DOPC   H5R18604   1.633   2.182   6.215  0.6378  0.2363 -1.8617
  155DOPC   H5S18605   1.577   2.337   6.296  0.9137 -1.9755  2.0286
  155DOPC   C2618606   1.531   2.296   6.065 -0.6491  0.2804 -0.9242
  155DOPC   H6R18607   1.433   2.346   6.053 -0.2292  1.2655 -0.3706
  155DOPC   H6S18608   1.511   2.198   6.017 -3.2586  0.6875 -0.8015
  155DOPC   C2718609   1.644   2.365   5.992  0.4446  0.2875 -0.0893
  155DOPC   H7R18610   1.662   2.457   6.051 -0.3007  0.5370 -0.2318
  155DOPC   H7S18611   1.626   2.389   5.885  0.3672  0.2535 -0.0849
  155DOPC   C2818612   1.771   2.274   6.001 -0.2715 -0.6539  0.1461
  155DOPC   H8R18613   1.751   2.177   5.949  0.7471 -0.9636  0.3131
  155DOPC   H8S18614   1.802   2.244   6.103 -3.8724 -0.5136  1.4118
  155DOPC   C2918615   1.880   2.365   5.940  0.4425  0.0516 -0.0392
  155DOPC   H9R18616   1.911   2.449   6.004 -0.8025  1.2489 -0.9751
  155DOPC  C21018617   1.938   2.334   5.820  0.0851 -0.1479 -0.2085
  155DOPC  H10R18618   2.014   2.400   5.777  1.1444 -1.8098 -0.9936
  155DOPC  C21118619   1.897   2.235   5.721 -0.2925  0.4474  0.1096
  155DOPC  H11R18620   1.788   2.246   5.700 -0.4938  0.3743  1.0887
  155DOPC  H11S18621   1.909   2.132   5.761 -2.1616 -0.1762 -0.8162
  155DOPC  C21218622   1.968   2.244   5.583 -0.2724 -0.5689  0.9999
  155DOPC  H12R18623   2.079   2.242   5.584 -0.2371 -0.8069 -0.6130
  155DOPC  H12S18624   1.956   2.342   5.533  1.8670 -1.3392 -1.2312
  155DOPC  C21318625   1.904   2.143   5.486 -0.2161 -0.2099 -0.0626
  155DOPC  H13R18626   1.797   2.170   5.482 -0.6561 -1.8666 -0.0702
  155DOPC  H13S18627   1.919   2.039   5.522  1.4377  0.2417  0.6771
  155DOPC  C21418628   1.945   2.160   5.336  0.4199 -0.5070 -0.3602
  155DOPC  H14R18629   2.039   2.105   5.312  1.0097 -0.9182  2.5850
  155DOPC  H14S18630   1.967   2.264   5.306  1.3241 -0.5457  0.1323
  155DOPC  C21518631   1.831   2.113   5.236 -0.3403  0.1224 -0.7361
  155DOPC  H15R18632   1.736   2.157   5.273  0.5513  2.1958 -0.7975
  155DOPC  H15S18633   1.822   2.003   5.244  0.8295 -0.0700 -1.7628
  155DOPC  C21618634   1.856   2.151   5.086  0.9461  0.6383 -0.0410
  155DOPC  H16R18635   1.859   2.261   5.076  2.1703  0.5378 -1.0032
  155DOPC  H16S18636   1.771   2.108   5.027  2.2306 -0.7147 -0.9692
  155DOPC  C21718637   1.983   2.088   5.011  0.0126  0.3038 -0.6274
  155DOPC  H17R18638   1.968   1.978   5.004  0.3875  0.0848  1.3313
  155DOPC  H17S18639   2.070   2.098   5.080 -1.2378 -2.0585  1.4660
  155DOPC  C21818640   2.014   2.143   4.875  0.0397 -0.2814 -0.2549
  155DOPC  H18R18641   2.018   2.254   4.870  1.5989 -0.3030 -0.1344
  155DOPC  H18S18642   1.942   2.120   4.794  0.0010 -0.0196 -0.2948
  155DOPC  H18T18643   2.113   2.113   4.833  0.8976  2.0553 -0.0540
  155DOPC   C3318644   1.482   1.418   6.490  0.8920 -0.6534  0.8996
  155DOPC   H3X18645   1.440   1.333   6.548 -0.1335 -1.0155 -0.3175
  155DOPC   H3Y18646   1.572   1.460   6.539  1.4011  0.3633 -0.8335
  155DOPC   C3418647   1.526   1.355   6.358  0.2826  0.5313  0.4890
  155DOPC   H4X18648   1.436   1.320   6.302  0.9105  1.6681 -1.3038
  155DOPC   H4Y18649   1.580   1.260   6.376 -2.0632 -1.5107 -2.3414
  155DOPC   C3518650   1.607   1.444   6.256 -0.0946 -0.4842  0.0320
  155DOPC   H5X18651   1.690   1.483   6.319 -1.5247  2.2644  0.3925
  155DOPC   H5Y18652   1.562   1.542   6.228 -2.1455 -1.3081  0.2722
  155DOPC   C3618653   1.657   1.374   6.132 -0.0352  0.0377 -0.1520
  155DOPC   H6X18654   1.727   1.439   6.075  0.0175 -0.3974 -0.5975
  155DOPC   H6Y18655   1.709   1.282   6.167 -0.4207  0.0233  0.3873
  155DOPC   C3718656   1.548   1.323   6.046 -0.2854 -1.4687  0.5691
  155DOPC   H7X18657   1.498   1.226   6.068  0.3160 -1.9844 -0.2417
  155DOPC   H7Y18658   1.477   1.407   6.028  0.9934 -1.0365 -3.4158
  155DOPC   C3818659   1.597   1.292   5.900  0.4774 -0.5374  0.5860
  155DOPC   H8X18660   1.634   1.385   5.851 -3.9138 -1.1843 -5.0600
  155DOPC   H8Y18661   1.503   1.266   5.847  0.2066 -3.8427  2.4447
  155DOPC   C3918662   1.701   1.182   5.889  0.8694  0.2803  0.1746
  155DOPC   H9X18663   1.787   1.201   5.954  1.8826 -0.1455 -0.9838
  155DOPC  C31018664   1.720   1.086   5.793  0.4022  0.1177  0.4565
  155DOPC  H10X18665   1.810   1.024   5.798  2.4931  2.6262 -2.5229
  155DOPC  C31118666   1.618   1.060   5.691  0.0807  0.0996  0.4721
  155DOPC  H11X18667   1.620   1.136   5.610 -0.6638 -2.0913 -1.7622
  155DOPC  H11Y18668   1.516   1.076   5.732  0.8753  0.1848  2.5289
  155DOPC  C31218669   1.639   0.927   5.618  0.3537 -0.1706 -0.2054
  155DOPC  H12X18670   1.538   0.902   5.580 -0.1614  4.2448 -2.3879
  155DOPC  H12Y18671   1.668   0.851   5.694  0.9239 -0.9683 -1.2085
  155DOPC  C31318672   1.744   0.933   5.502  0.8418  0.7629 -0.2047
  155DOPC  H13X18673   1.765   1.038   5.475  0.1996  1.2987  1.2813
  155DOPC  H13Y18674   1.838   0.880   5.529 -0.3790 -1.3382  0.1196
  155DOPC  C31418675   1.685   0.858   5.382 -0.5310 -0.7452 -0.9946
  155DOPC  H14X18676   1.644   0.762   5.420 -0.0445  0.1345  1.9645
  155DOPC  H14Y18677   1.601   0.915   5.338 -1.0379 -1.1489 -0.5620
  155DOPC  C31518678   1.790   0.821   5.274  0.0288  0.5925  0.5683
  155DOPC  H15X18679   1.748   0.752   5.198 -0.8965  1.9160 -0.1508
  155DOPC  H15Y18680   1.872   0.764   5.324 -0.7258 -1.7849 -0.7344
  155DOPC  C31618681   1.854   0.940   5.205  0.6039 -0.8118 -0.1438
  155DOPC  H16X18682   1.768   1.006   5.180  1.2397  0.4340  0.8629
  155DOPC  H16Y18683   1.913   0.993   5.282 -2.5649  0.7806  1.3745
  155DOPC  C31718684   1.931   0.910   5.082 -0.1448 -0.4393  0.2479
  155DOPC  H17X18685   2.007   0.830   5.094  3.0286  2.3396  0.0807
  155DOPC  H17Y18686   1.867   0.864   5.003 -0.2423  2.9216 -1.8198
  155DOPC  C31818687   2.003   1.035   5.029  0.1424  0.4339  0.2480
  155DOPC  H18X18688   2.054   1.022   4.931 -2.0581  2.7680 -1.3460
  155DOPC  H18Y18689   1.932   1.120   5.020  1.6187  1.5708 -1.5067
  155DOPC  H18Z18690   2.081   1.057   5.105 -1.4846 -1.4026  2.5679
  156DOPC     N18691   7.370   6.246   6.743  0.0715  0.1489 -0.6130
  156DOPC   C1218692   7.245   6.326   6.758 -0.1528 -0.0801 -0.1851
  156DOPC  H12A18693   7.170   6.285   6.691 -0.5962 -0.8999  0.7845
  156DOPC  H12B18694   7.259   6.425   6.718  0.1174  0.3917  1.0291
  156DOPC   C1318695   7.364   6.119   6.824  0.1305 -0.6835  0.2504
  156DOPC  H13A18696   7.379   6.035   6.758  2.1999  0.6576 -1.0782
  156DOPC  H13B18697   7.422   6.124   6.915  0.8332 -1.2773 -0.1578
  156DOPC  H13C18698   7.262   6.112   6.859 -0.2624  0.3883 -0.6130
  156DOPC   C1418699   7.488   6.321   6.786 -0.5770 -0.1887 -0.0568
  156DOPC  H14A18700   7.510   6.404   6.720 -0.3171 -0.9756 -0.9728
  156DOPC  H14B18701   7.498   6.352   6.889  3.1917  0.1685 -0.3917
  156DOPC  H14C18702   7.571   6.254   6.769  1.3751  2.0067  0.2303
  156DOPC   C1518703   7.390   6.199   6.604 -0.3993  0.0919  0.1539
  156DOPC  H15A18704   7.314   6.128   6.576 -0.4454  1.3124 -3.3021
  156DOPC  H15B18705   7.488   6.157   6.589 -0.6055  0.4138 -2.4513
  156DOPC  H15C18706   7.393   6.288   6.543 -1.0513 -2.0087 -3.1786
  156DOPC   C1118707   7.178   6.346   6.897  0.0584  0.7784  0.0869
  156DOPC  H11A18708   7.242   6.403   6.967  2.1882 -0.7878 -0.4676
  156DOPC  H11B18709   7.084   6.403   6.882 -0.7908 -0.3364  0.9902
  156DOPC     P18710   7.018   6.149   7.007  0.4541  0.1246  0.0877
  156DOPC   O1318711   6.937   6.235   7.102  0.1140 -0.0898  0.1212
  156DOPC   O1418712   7.053   6.013   7.061 -0.1850 -0.5474 -0.1759
  156DOPC   O1218713   7.151   6.223   6.962 -0.4776 -0.2371 -0.3262
  156DOPC   O1118714   6.951   6.127   6.872 -0.6004  0.1707 -0.1369
  156DOPC    C118715   6.810   6.147   6.851 -0.7063 -0.0891  0.2910
  156DOPC    HA18716   6.755   6.218   6.916 -0.6855  0.4475 -0.2660
  156DOPC    HB18717   6.761   6.049   6.868 -2.7836  0.5201 -1.6875
  156DOPC    C218718   6.786   6.163   6.694  0.8482 -0.7269  0.9402
  156DOPC    HS18719   6.677   6.172   6.673  1.4783  4.0364 -1.7187
  156DOPC   O2118720   6.859   6.060   6.624  0.6051 -0.0255  0.1085
  156DOPC   C2118721   6.786   5.953   6.593  0.7958 -0.1620 -0.0005
  156DOPC   O2218722   6.668   5.932   6.616  0.6551  0.2230  0.1171
  156DOPC   C2218723   6.875   5.869   6.501  0.5572  0.2549 -0.3313
  156DOPC   H2R18724   6.971   5.860   6.556  1.2710  1.6754 -1.2928
  156DOPC   H2S18725   6.899   5.935   6.415 -0.4663 -0.4164 -1.1561
  156DOPC    C318726   6.841   6.296   6.636  0.1921  0.0518  0.4631
  156DOPC    HX18727   6.948   6.288   6.665  2.2654  1.2977 -5.4043
  156DOPC    HY18728   6.793   6.377   6.695 -2.2910 -1.6851  0.9751
  156DOPC   O3118729   6.817   6.311   6.487 -0.1182  0.1291  0.4262
  156DOPC   C3118730   6.929   6.296   6.409 -0.0857 -0.1360 -0.0454
  156DOPC   O3218731   7.046   6.296   6.450  0.2184 -0.1417  0.0173
  156DOPC   C3218732   6.892   6.275   6.264 -0.0401  0.2004  1.1211
  156DOPC   H2X18733   6.812   6.198   6.259  0.2184 -0.0420  0.6365
  156DOPC   H2Y18734   6.860   6.375   6.227 -1.9043 -1.1566 -1.2662
  156DOPC   C2318735   6.813   5.737   6.458 -0.2054  0.4600  0.1663
  156DOPC   H3R18736   6.758   5.763   6.365  2.4882  3.1407 -0.8490
  156DOPC   H3S18737   6.740   5.694   6.531 -1.7712 -0.1301 -1.6755
  156DOPC   C2418738   6.909   5.625   6.411  0.0878  0.6691  0.3619
  156DOPC   H4R18739   6.851   5.544   6.362  0.1470  1.0923 -0.4140
  156DOPC   H4S18740   6.955   5.592   6.507 -0.9711  0.5457  0.8377
  156DOPC   C2518741   7.036   5.668   6.326 -0.2686 -0.3656 -0.4014
  156DOPC   H5R18742   7.107   5.583   6.322  0.7085  0.4496 -1.0313
  156DOPC   H5S18743   7.085   5.756   6.372 -0.6345  0.2580 -1.1745
  156DOPC   C2618744   6.990   5.692   6.181 -0.3688  0.5232 -0.0078
  156DOPC   H6R18745   6.932   5.787   6.178 -1.4434 -0.1243 -0.3664
  156DOPC   H6S18746   6.924   5.610   6.147  1.5422 -0.7076 -0.8925
  156DOPC   C2718747   7.111   5.702   6.083 -0.0906 -0.1687 -0.0861
  156DOPC   H7R18748   7.171   5.608   6.086  0.3749  0.1454  0.6968
  156DOPC   H7S18749   7.177   5.789   6.098  0.1930  0.3407 -3.4592
  156DOPC   C2818750   7.060   5.709   5.937 -0.1728 -0.8409 -0.5161
  156DOPC   H8R18751   7.151   5.738   5.880  0.4515  2.7395  1.9976
  156DOPC   H8S18752   7.010   5.808   5.932  1.9772  0.2787 -1.4824
  156DOPC   C2918753   6.982   5.602   5.874 -0.8054 -0.1758  0.1647
  156DOPC   H9R18754   6.981   5.512   5.938  1.1682 -1.5095 -1.5777
  156DOPC  C21018755   6.901   5.616   5.762  0.4581 -0.1146 -0.4256
  156DOPC  H10R18756   6.849   5.525   5.728 -1.1815  0.6243  0.0315
  156DOPC  C21118757   6.879   5.738   5.680 -0.1654  0.4462  0.1201
  156DOPC  H11R18758   6.955   5.736   5.599 -1.2518  0.4664 -0.9381
  156DOPC  H11S18759   6.886   5.836   5.733  2.8695  0.9250 -0.9885
  156DOPC  C21218760   6.732   5.732   5.623  0.2570  0.3139  0.3256
  156DOPC  H12R18761   6.656   5.732   5.704 -0.6338 -0.4547 -0.4913
  156DOPC  H12S18762   6.727   5.645   5.555 -0.2229  0.2458  0.4449
  156DOPC  C21318763   6.700   5.848   5.530  0.6431 -0.0179  0.4937
  156DOPC  H13R18764   6.704   5.948   5.578  0.3403  0.7300 -1.0057
  156DOPC  H13S18765   6.597   5.842   5.490  0.4470 -1.7280  1.1679
  156DOPC  C21418766   6.792   5.847   5.404  0.0692 -0.7961  0.3251
  156DOPC  H14R18767   6.772   5.753   5.350 -1.9525 -0.0505 -0.3239
  156DOPC  H14S18768   6.901   5.852   5.420 -0.0106 -3.0324  1.9757
  156DOPC  C21518769   6.735   5.955   5.309 -0.0482  0.0485 -0.3981
  156DOPC  H15R18770   6.739   6.048   5.370  2.2088  1.0786 -1.9885
  156DOPC  H15S18771   6.629   5.931   5.288 -0.4032  1.1292  0.0664
  156DOPC  C21618772   6.801   5.966   5.170 -0.4124 -0.1364 -0.1794
  156DOPC  H16R18773   6.910   5.974   5.186 -0.6691  0.0506  1.7545
  156DOPC  H16S18774   6.762   6.061   5.126  0.4515  0.4887  0.3655
  156DOPC  C21718775   6.765   5.852   5.074 -0.0921 -0.0027  0.1527
  156DOPC  H17R18776   6.659   5.865   5.041  0.2028  0.0823 -0.8000
  156DOPC  H17S18777   6.772   5.746   5.107  0.4465 -0.3909 -1.1359
  156DOPC  C21818778   6.861   5.859   4.950  0.6563 -0.1823  0.7140
  156DOPC  H18R18779   6.967   5.836   4.976  0.9214 -0.3119 -0.4079
  156DOPC  H18S18780   6.863   5.964   4.912  0.6214  0.4385  2.3727
  156DOPC  H18T18781   6.815   5.788   4.878 -1.2844  0.7674  0.9710
  156DOPC   C3318782   7.017   6.228   6.185 -0.3883 -0.7625  0.2807
  156DOPC   H3X18783   7.060   6.137   6.231  1.2497 -0.0388  0.2624
  156DOPC   H3Y18784   7.093   6.308   6.199 -1.1402  0.0136  0.0090
  156DOPC   C3418785   7.004   6.209   6.027 -0.2526  0.0282  0.7399
  156DOPC   H4X18786   7.103   6.212   5.979 -0.3549  1.7640  0.5856
  156DOPC   H4Y18787   6.948   6.296   5.987  0.1812 -0.1110 -0.1874
  156DOPC   C3518788   6.935   6.077   5.992 -1.0974  0.2816 -0.1538
  156DOPC   H5X18789   6.989   5.992   6.038  0.6157  1.6483  0.4817
  156DOPC   H5Y18790   6.950   6.053   5.884 -0.2277 -2.9482  0.6085
  156DOPC   C3618791   6.790   6.060   6.017 -0.2491 -0.0564  0.1189
  156DOPC   H6X18792   6.769   6.079   6.125 -0.1219  2.4147 -0.2522
  156DOPC   H6Y18793   6.736   6.135   5.956  2.1150  0.5032 -1.3995
  156DOPC   C3718794   6.725   5.929   5.965  0.0389 -0.2181  0.3138
  156DOPC   H7X18795   6.744   5.927   5.855  2.7862  1.4163  0.6706
  156DOPC   H7Y18796   6.779   5.840   6.003  2.8070  0.9530 -0.6134
  156DOPC   C3818797   6.566   5.919   5.986 -0.4281 -0.6385  0.3001
  156DOPC   H8X18798   6.525   5.829   5.934 -1.9215  0.6791 -0.8918
  156DOPC   H8Y18799   6.505   6.002   5.946 -0.0777 -0.4897  0.0736
  156DOPC   C3918800   6.550   5.898   6.131  0.4890 -0.1915 -1.0140
  156DOPC   H9X18801   6.594   5.801   6.157  0.6866  0.2895  0.5558
  156DOPC  C31018802   6.510   5.982   6.228 -0.2832 -0.1940 -0.0619
  156DOPC  H10X18803   6.509   5.951   6.333 -2.4282 -0.3707 -0.0883
  156DOPC  C31118804   6.443   6.111   6.202  0.0951 -0.6230 -1.3439
  156DOPC  H11X18805   6.384   6.113   6.108 -0.7725 -2.3502 -0.8752
  156DOPC  H11Y18806   6.526   6.185   6.201  0.9964 -1.5768 -0.0626
  156DOPC  C31218807   6.354   6.150   6.321 -0.4766  0.5999 -0.1384
  156DOPC  H12X18808   6.275   6.074   6.339 -0.5076  0.9413  1.2906
  156DOPC  H12Y18809   6.312   6.248   6.293  1.9818  2.2284  1.4609
  156DOPC  C31318810   6.432   6.171   6.450  0.6394  0.1682 -1.0143
  156DOPC  H13X18811   6.485   6.079   6.483 -1.2336 -0.6415 -0.1320
  156DOPC  H13Y18812   6.510   6.243   6.415  2.2624 -2.0643 -2.2476
  156DOPC  C31418813   6.351   6.222   6.571 -0.1084  0.0154 -0.1113
  156DOPC  H14X18814   6.262   6.158   6.588 -0.4468  0.8176  1.2689
  156DOPC  H14Y18815   6.416   6.212   6.660 -1.3964 -1.7238  0.6857
  156DOPC  C31518816   6.309   6.365   6.562  0.8998 -0.3942 -0.3064
  156DOPC  H15X18817   6.281   6.392   6.458 -2.7746  2.0629  1.1170
  156DOPC  H15Y18818   6.392   6.429   6.601  1.3863 -1.6068  0.7052
  156DOPC  C31618819   6.183   6.402   6.647  0.0076  1.0640  0.3762
  156DOPC  H16X18820   6.115   6.318   6.624 -0.4170  1.5254 -0.0775
  156DOPC  H16Y18821   6.202   6.396   6.757  1.6207  0.3158  0.0909
  156DOPC  C31718822   6.123   6.537   6.617 -0.0094 -0.5642 -0.1676
  156DOPC  H17X18823   6.194   6.619   6.641  0.0111 -0.9654  1.2183
  156DOPC  H17Y18824   6.121   6.542   6.506  4.5269 -4.2597 -0.6914
  156DOPC  C31818825   5.990   6.574   6.679  0.3091  0.2984  0.0672
  156DOPC  H18X18826   5.941   6.659   6.626 -0.1377  2.1013  3.1748
  156DOPC  H18Y18827   5.926   6.487   6.707  0.9579 -0.1237  0.2410
  156DOPC  H18Z18828   6.009   6.628   6.773  0.4593  2.6323 -1.2359
  157DOPC     N18829   6.201   2.447   7.334  0.6395  0.2144 -0.2361
  157DOPC   C1218830   6.079   2.455   7.241  0.1136 -0.4602  0.3851
  157DOPC  H12A18831   6.034   2.554   7.240 -0.0234 -0.5258 -0.0959
  157DOPC  H12B18832   6.005   2.388   7.281  0.6486 -1.1388  0.2371
  157DOPC   C1318833   6.187   2.527   7.458 -0.7889 -0.6943  1.0729
  157DOPC  H13A18834   6.100   2.485   7.506 -1.3201  0.9503  1.6075
  157DOPC  H13B18835   6.275   2.510   7.519 -1.2216 -1.8794  1.3945
  157DOPC  H13C18836   6.176   2.633   7.441 -2.9760 -1.1253 -0.7065
  157DOPC   C1418837   6.321   2.499   7.265  0.5042  0.2365 -0.1526
  157DOPC  H14A18838   6.409   2.458   7.313 -0.8919  0.0092  2.3535
  157DOPC  H14B18839   6.317   2.464   7.162 -2.6391  2.4208 -0.9155
  157DOPC  H14C18840   6.327   2.606   7.269 -2.4156  0.5271 -1.1477
  157DOPC   C1518841   6.215   2.298   7.373  0.2171  0.1103 -0.0785
  157DOPC  H15A18842   6.299   2.301   7.441  0.0717  4.1825  0.1707
  157DOPC  H15B18843   6.237   2.236   7.287 -0.6473  1.1318 -1.0613
  157DOPC  H15C18844   6.129   2.268   7.432 -0.6310  1.9086 -0.3408
  157DOPC   C1118845   6.100   2.407   7.090 -0.3377 -0.0601  0.2231
  157DOPC  H11A18846   6.004   2.414   7.034  0.7682  0.5034 -1.6825
  157DOPC  H11B18847   6.163   2.483   7.040 -1.1906  0.7362  0.3326
  157DOPC     P18848   6.265   2.212   6.995 -0.5851  0.1208 -0.3137
  157DOPC   O1318849   6.256   2.065   7.002  0.9059  0.0998 -0.1498
  157DOPC   O1418850   6.398   2.265   7.032 -0.0049  0.0012 -0.4773
  157DOPC   O1218851   6.160   2.274   7.093 -0.5692 -0.7608  0.3473
  157DOPC   O1118852   6.215   2.259   6.854  0.1513 -0.5397 -0.2243
  157DOPC    C118853   6.086   2.230   6.804 -0.2939 -0.0204  0.0690
  157DOPC    HA18854   6.024   2.322   6.808 -0.4044 -0.0452 -0.8986
  157DOPC    HB18855   6.023   2.166   6.870 -0.7264 -1.5150 -1.6997
  157DOPC    C218856   6.087   2.189   6.657  0.3482  0.1169 -0.1351
  157DOPC    HS18857   6.140   2.091   6.657 -0.0363 -0.1111 -1.9806
  157DOPC   O2118858   6.150   2.279   6.568  0.3566  0.3881 -0.0749
  157DOPC   C2118859   6.275   2.245   6.536  0.3179  0.0767  0.2719
  157DOPC   O2218860   6.331   2.141   6.568 -0.2997 -0.0804 -0.2915
  157DOPC   C2218861   6.328   2.351   6.443  0.3974  0.6081  0.0197
  157DOPC   H2R18862   6.431   2.320   6.412  0.1038  0.6854 -1.0950
  157DOPC   H2S18863   6.338   2.444   6.503 -0.3794  1.0380 -0.4958
  157DOPC    C318864   5.945   2.156   6.607  0.4756 -0.3808  0.3426
  157DOPC    HX18865   5.885   2.247   6.626 -0.6275 -1.1757  0.7689
  157DOPC    HY18866   5.898   2.085   6.679  0.9392 -1.1416 -0.0849
  157DOPC   O3118867   5.940   2.113   6.471  0.0825  0.0115  0.2312
  157DOPC   C3118868   5.943   1.981   6.452 -0.2566 -0.5098  0.0407
  157DOPC   O3218869   5.947   1.897   6.541  0.1928 -0.5238 -0.8666
  157DOPC   C3218870   5.912   1.959   6.305 -0.5515 -0.3723  0.4712
  157DOPC   H2X18871   5.881   2.055   6.257 -0.7851 -1.0756 -0.8370
  157DOPC   H2Y18872   5.998   1.926   6.244 -2.7727 -1.6291 -2.2309
  157DOPC   C2318873   6.242   2.378   6.311  0.5609 -0.1568 -0.4458
  157DOPC   H3R18874   6.288   2.464   6.258 -0.3710  1.5943  1.4138
  157DOPC   H3S18875   6.145   2.417   6.350 -0.1573 -0.5831 -1.7663
  157DOPC   C2418876   6.205   2.257   6.225  0.1740 -0.1163 -0.1534
  157DOPC   H4R18877   6.174   2.164   6.276  0.8304 -0.2262  0.0561
  157DOPC   H4S18878   6.302   2.227   6.180 -0.3791 -1.8033 -0.2824
  157DOPC   C2518879   6.108   2.280   6.106  0.1398  0.2904  0.1700
  157DOPC   H5R18880   6.140   2.374   6.057 -0.1930 -0.4474 -1.5328
  157DOPC   H5S18881   6.007   2.313   6.139 -0.0988 -0.2581 -0.0004
  157DOPC   C2618882   6.101   2.167   5.995  0.4444 -0.0980 -0.0419
  157DOPC   H6R18883   6.074   2.066   6.031  0.6556 -0.7959 -1.7509
  157DOPC   H6S18884   6.204   2.164   5.954  0.3098 -0.4397 -0.3492
  157DOPC   C2718885   6.009   2.212   5.882  0.4653  0.7101  0.0136
  157DOPC   H7R18886   6.056   2.300   5.833  1.1509  0.0148 -0.5893
  157DOPC   H7S18887   5.906   2.233   5.918  0.4553  1.0639 -0.2230
  157DOPC   C2818888   5.976   2.102   5.784 -0.2979 -0.8587 -0.2424
  157DOPC   H8R18889   5.910   2.147   5.707 -1.9918 -0.8315  1.1872
  157DOPC   H8S18890   5.913   2.023   5.830 -1.6221  0.8332  0.9648
  157DOPC   C2918891   6.109   2.041   5.722  0.3722 -0.2481 -0.1849
  157DOPC   H9R18892   6.158   1.970   5.790  0.2649 -1.0308 -0.9096
  157DOPC  C21018893   6.155   2.076   5.602 -0.3406  0.3592 -0.1544
  157DOPC  H10R18894   6.256   2.039   5.582 -0.4651  0.0091 -0.1501
  157DOPC  C21118895   6.104   2.178   5.499 -0.4955  0.1317 -0.9684
  157DOPC  H11R18896   6.193   2.191   5.433 -0.7606  1.8975 -1.0424
  157DOPC  H11S18897   6.083   2.275   5.549 -1.3381  0.7494 -2.4368
  157DOPC  C21218898   5.981   2.122   5.424 -0.3096 -0.1558  0.4174
  157DOPC  H12R18899   5.915   2.094   5.509 -0.3952  0.1225  0.4439
  157DOPC  H12S18900   6.030   2.037   5.373  0.6936  1.3904 -1.3504
  157DOPC  C21318901   5.940   2.225   5.317  0.0246 -0.2496 -0.2098
  157DOPC  H13R18902   6.030   2.226   5.252 -1.3932  0.2539 -2.2555
  157DOPC  H13S18903   5.934   2.328   5.358  2.5697  0.5808 -1.6663
  157DOPC  C21418904   5.814   2.181   5.245  0.4523  0.0447  0.2710
  157DOPC  H14R18905   5.724   2.197   5.308 -0.5117 -0.4699 -0.9381
  157DOPC  H14S18906   5.812   2.071   5.228 -0.4700  0.0618  0.2158
  157DOPC  C21518907   5.783   2.262   5.118 -0.0329 -0.1632  0.4266
  157DOPC  H15R18908   5.856   2.245   5.036 -1.0231 -1.0470 -0.2915
  157DOPC  H15S18909   5.784   2.367   5.156 -1.0352  0.0840 -0.1906
  157DOPC  C21618910   5.646   2.227   5.058 -0.0703  0.2968  0.3943
  157DOPC  H16R18911   5.571   2.247   5.138  1.3052  0.4089  1.6928
  157DOPC  H16S18912   5.658   2.126   5.015  0.2525  0.5822 -0.2007
  157DOPC  C21718913   5.614   2.324   4.945 -0.4243 -0.4201  0.6826
  157DOPC  H17R18914   5.708   2.309   4.886  0.0180 -1.2497  1.5682
  157DOPC  H17S18915   5.621   2.430   4.977  1.9140  0.1412 -1.3176
  157DOPC  C21818916   5.492   2.290   4.864 -0.5690 -0.3193  0.3379
  157DOPC  H18R18917   5.398   2.302   4.922 -2.0506 -0.5907 -1.8614
  157DOPC  H18S18918   5.494   2.184   4.829  1.1414  0.1154 -1.0301
  157DOPC  H18T18919   5.496   2.359   4.777  0.1862 -1.2994 -0.4407
  157DOPC   C3318920   5.787   1.869   6.282 -0.0914  0.5218 -0.1640
  157DOPC   H3X18921   5.699   1.917   6.331 -1.8562 -1.4638 -1.2318
  157DOPC   H3Y18922   5.801   1.771   6.332  0.7111 -0.0582 -1.4518
  157DOPC   C3418923   5.750   1.842   6.140 -0.1578 -0.0045  0.2800
  157DOPC   H4X18924   5.831   1.793   6.081 -0.8552 -0.7966 -0.0445
  157DOPC   H4Y18925   5.707   1.937   6.101 -0.1506  0.8017  2.1431
  157DOPC   C3518926   5.630   1.739   6.123 -0.0159 -0.2524  0.5139
  157DOPC   H5X18927   5.542   1.772   6.182 -0.8934  0.2765 -1.0317
  157DOPC   H5Y18928   5.657   1.640   6.166 -1.7811 -1.1964 -0.4547
  157DOPC   C3618929   5.578   1.721   5.979  0.3207 -0.6560  0.0166
  157DOPC   H6X18930   5.511   1.633   5.991  2.3776 -2.3347 -0.2595
  157DOPC   H6Y18931   5.516   1.806   5.942  1.2896 -0.2250 -0.6512
  157DOPC   C3718932   5.686   1.677   5.876 -0.4392  0.3196  0.3162
  157DOPC   H7X18933   5.774   1.745   5.884 -0.7763  0.5487  2.5912
  157DOPC   H7Y18934   5.722   1.579   5.912 -0.2805 -0.6788 -2.3528
  157DOPC   C3818935   5.638   1.646   5.727 -0.1533 -0.0847 -0.2061
  157DOPC   H8X18936   5.619   1.744   5.678  1.0445 -0.7041 -1.9936
  157DOPC   H8Y18937   5.541   1.592   5.728  0.1396 -0.6281  0.6110
  157DOPC   C3918938   5.743   1.566   5.652  0.2874  0.0989  0.5585
  157DOPC   H9X18939   5.747   1.461   5.685  1.0341  0.1234  0.5654
  157DOPC  C31018940   5.827   1.614   5.560 -0.3161 -0.6855 -0.2641
  157DOPC  H10X18941   5.906   1.547   5.523 -0.2226 -0.8525  0.2404
  157DOPC  C31118942   5.841   1.759   5.517 -0.5124  0.0029 -0.7693
  157DOPC  H11X18943   5.948   1.791   5.511  0.2413 -1.3295  2.7489
  157DOPC  H11Y18944   5.797   1.825   5.595  4.4229  1.1470  1.4976
  157DOPC  C31218945   5.777   1.786   5.381 -0.3022  0.1338  0.1574
  157DOPC  H12X18946   5.787   1.697   5.315  0.9976  0.7565 -0.5362
  157DOPC  H12Y18947   5.821   1.881   5.343  1.7296 -0.1277  1.7019
  157DOPC  C31318948   5.630   1.802   5.381  0.7040  0.2890  0.0240
  157DOPC  H13X18949   5.571   1.726   5.438 -1.1865  0.8456 -1.0773
  157DOPC  H13Y18950   5.616   1.905   5.421  0.2523 -0.2925  1.4735
  157DOPC  C31418951   5.563   1.816   5.242 -0.1284 -0.0727  0.1567
  157DOPC  H14X18952   5.622   1.875   5.169 -1.6605  4.0878  1.9719
  157DOPC  H14Y18953   5.551   1.715   5.199  2.5165 -0.8940  1.1324
  157DOPC  C31518954   5.425   1.890   5.257  0.3522 -0.9104 -0.1239
  157DOPC  H15X18955   5.458   1.984   5.304  0.8225 -1.4385  0.6255
  157DOPC  H15Y18956   5.360   1.836   5.329  1.1418 -1.1145  0.4544
  157DOPC  C31618957   5.349   1.913   5.127  0.3075 -0.5088  0.0733
  157DOPC  H16X18958   5.258   1.977   5.135  1.3351  1.0191 -0.2135
  157DOPC  H16Y18959   5.422   1.952   5.053 -1.4998 -1.7557 -2.5479
  157DOPC  C31718960   5.291   1.777   5.074  1.0258 -0.4422  0.3241
  157DOPC  H17X18961   5.364   1.694   5.067 -0.0260 -1.4355  0.6395
  157DOPC  H17Y18962   5.218   1.734   5.146  1.2276  1.9741  2.1110
  157DOPC  C31818963   5.225   1.788   4.935 -0.0173 -0.6907  0.0399
  157DOPC  H18X18964   5.301   1.822   4.861  0.3459 -1.0789  0.2288
  157DOPC  H18Y18965   5.185   1.690   4.903 -0.7092 -0.9493  1.6053
  157DOPC  H18Z18966   5.139   1.858   4.938 -0.0057 -0.6417 -0.6317
  158DOPC     N18967   4.089   0.165   6.851 -0.1334  0.5268 -0.1112
  158DOPC   C1218968   3.958   0.103   6.885  0.3719  0.7852  0.0630
  158DOPC  H12A18969   3.887   0.143   6.814 -1.8188  1.2623  2.3845
  158DOPC  H12B18970   3.933   0.132   6.986 -1.8919  1.1454 -0.5399
  158DOPC   C1318971   4.200   0.121   6.945  0.4623 -0.1323  0.8810
  158DOPC  H13A18972   4.174   0.151   7.046 -0.7967  2.5028 -0.1280
  158DOPC  H13B18973   4.211   0.015   6.959 -0.3099 -0.0170  2.7027
  158DOPC  H13C18974   4.288   0.174   6.913 -0.2406  1.5505  1.5591
  158DOPC   C1418975   4.068   0.309   6.858 -0.0739  0.2744  0.2660
  158DOPC  H14A18976   3.979   0.333   6.802 -0.1257 -1.2542 -0.3606
  158DOPC  H14B18977   4.050   0.343   6.959 -0.7206  1.1591 -0.1312
  158DOPC  H14C18978   4.155   0.365   6.828 -1.6509  2.9222  0.3513
  158DOPC   C1518979   4.123   0.123   6.713  0.7416 -0.7935 -0.1794
  158DOPC  H15A18980   4.217   0.166   6.682  0.5034 -0.6216 -0.6750
  158DOPC  H15B18981   4.047   0.162   6.646  1.5100 -1.7026 -1.6269
  158DOPC  H15C18982   4.114   0.015   6.708 -0.2634 -0.8191  1.4729
  158DOPC   C1118983   3.951  -0.060   6.880  0.2643 -0.1759  0.4573
  158DOPC  H11A18984   4.038  -0.096   6.940 -0.9700  0.9472  3.0325
  158DOPC  H11B18985   3.859  -0.087   6.935 -1.4758  1.9529 -1.2255
  158DOPC     P18986   3.830  -0.091   6.645  0.2350  0.1001 -0.3870
  158DOPC   O1318987   3.797   0.050   6.631  0.3764 -0.3234  0.6958
  158DOPC   O1418988   3.720  -0.171   6.701 -0.0468  0.3772  0.2423
  158DOPC   O1218989   3.956  -0.108   6.744 -0.2437 -0.2201 -0.5987
  158DOPC   O1118990   3.884  -0.144   6.510 -0.4073  0.1635  0.6537
  158DOPC    C118991   4.022  -0.162   6.473 -0.4067 -0.3224  0.6577
  158DOPC    HA18992   4.054  -0.253   6.529 -0.8941 -1.2794 -0.5722
  158DOPC    HB18993   4.092  -0.081   6.502  0.1889  0.1839 -1.9348
  158DOPC    C218994   4.047  -0.194   6.323 -0.1093  0.3684 -0.6900
  158DOPC    HS18995   4.154  -0.211   6.301  0.1398  0.0017  0.7053
  158DOPC   O2118996   4.004  -0.092   6.237 -0.0286  0.7959 -0.0491
  158DOPC   C2118997   4.072   0.020   6.247 -0.6905 -0.2958 -0.2208
  158DOPC   O2218998   4.171   0.032   6.318  0.1844 -0.7555  0.3270
  158DOPC   C2218999   4.001   0.133   6.170 -0.2589  0.5736 -0.3010
  158DOPC   H2R19000   3.933   0.190   6.237 -2.3923 -0.9309 -1.0625
  158DOPC   H2S19001   3.941   0.089   6.088  2.8316  0.8504 -2.9023
  158DOPC    C319002   3.968  -0.319   6.287  0.2202 -0.0106  0.3455
  158DOPC    HX19003   3.864  -0.289   6.313  0.7343  1.7164  0.5399
  158DOPC    HY19004   3.989  -0.401   6.359 -1.3791 -2.0863 -1.3986
  158DOPC   O3119005   3.993  -0.366   6.152 -0.4866 -0.0527 -0.1777
  158DOPC   C3119006   4.106  -0.408   6.125  0.4951 -0.4226 -0.3764
  158DOPC   O3219007   4.207  -0.420   6.193  0.4321 -0.3751  0.2580
  158DOPC   C3219008   4.098  -0.446   5.983  0.0598  0.3724  0.8451
  158DOPC   H2X19009   4.030  -0.379   5.925  0.0432 -2.1276 -2.2878
  158DOPC   H2Y19010   4.195  -0.450   5.929 -0.3253  0.3848  0.1393
  158DOPC   C2319011   4.090   0.247   6.103 -0.4218  0.9494 -0.8143
  158DOPC   H3R19012   4.174   0.210   6.042 -1.0375 -0.2723 -0.9542
  158DOPC   H3S19013   4.130   0.318   6.178 -1.0273 -0.9398  1.4459
  158DOPC   C2419014   4.011   0.332   6.004  0.0470  0.2869 -0.3169
  158DOPC   H4R19015   4.002   0.267   5.914  0.2074 -0.5215  0.2427
  158DOPC   H4S19016   4.078   0.419   5.987  1.5811 -0.9025 -0.5946
  158DOPC   C2519017   3.875   0.384   6.058  0.3297  0.0605  0.0489
  158DOPC   H5R19018   3.874   0.426   6.161 -2.8042  1.6421 -0.4983
  158DOPC   H5S19019   3.806   0.297   6.061  1.0276 -0.6152 -1.9653
  158DOPC   C2619020   3.819   0.496   5.972  0.6842 -0.4751  0.3292
  158DOPC   H6R19021   3.803   0.463   5.867 -1.3150 -1.1697  0.8065
  158DOPC   H6S19022   3.891   0.580   5.979  1.0281 -0.4559 -2.3333
  158DOPC   C2719023   3.683   0.553   6.026  0.7310  0.0037  0.1705
  158DOPC   H7R19024   3.650   0.636   5.960 -0.0512  0.2628  0.8713
  158DOPC   H7S19025   3.702   0.600   6.125  0.4357 -1.1774  0.8069
  158DOPC   C2819026   3.578   0.440   6.023 -0.4453 -0.5712 -0.2329
  158DOPC   H8R19027   3.625   0.354   6.076  0.6115  0.9783  1.4241
  158DOPC   H8S19028   3.548   0.409   5.920  1.0780 -1.4358 -0.4381
  158DOPC   C2919029   3.445   0.484   6.095 -0.7271  1.1077  0.6788
  158DOPC   H9R19030   3.459   0.459   6.201  3.4977  0.9952  0.2416
  158DOPC  C21019031   3.332   0.530   6.036 -0.3279 -0.3023  0.2660
  158DOPC  H10R19032   3.249   0.546   6.106 -0.5057 -0.4758  0.0929
  158DOPC  C21119033   3.303   0.539   5.890 -0.4496 -0.0569  0.0313
  158DOPC  H11R19034   3.195   0.514   5.881 -0.1596 -1.7245  0.8773
  158DOPC  H11S19035   3.361   0.465   5.830 -1.5412 -0.2291 -0.8543
  158DOPC  C21219036   3.335   0.676   5.835  0.6715  0.0077 -0.3361
  158DOPC  H12R19037   3.437   0.689   5.877 -0.0604 -2.3116  2.4229
  158DOPC  H12S19038   3.260   0.745   5.880 -0.2271 -0.4962 -1.0250
  158DOPC  C21319039   3.340   0.687   5.686  0.8373 -0.4340 -0.8830
  158DOPC  H13R19040   3.406   0.605   5.650  1.2080 -0.6959  0.3432
  158DOPC  H13S19041   3.379   0.787   5.657  0.2693  0.1964  0.4040
  158DOPC  C21419042   3.198   0.665   5.629 -0.6429 -0.6655  0.3083
  158DOPC  H14R19043   3.143   0.762   5.628  0.3229 -0.0894  1.2058
  158DOPC  H14S19044   3.144   0.585   5.684 -1.5966  0.1171  0.5408
  158DOPC  C21519045   3.188   0.621   5.480  0.0033 -1.3254 -0.3389
  158DOPC  H15R19046   3.222   0.710   5.423 -3.8398  1.3292  1.1086
  158DOPC  H15S19047   3.081   0.601   5.455 -0.1838 -0.5287 -0.2149
  158DOPC  C21619048   3.275   0.502   5.438 -0.0910  0.0957  0.4223
  158DOPC  H16R19049   3.235   0.406   5.476  0.1158 -0.5627 -0.9611
  158DOPC  H16S19050   3.373   0.514   5.487 -0.1298  0.8301  0.3315
  158DOPC  C21719051   3.299   0.486   5.290  0.5667  0.2636 -0.1584
  158DOPC  H17R19052   3.330   0.585   5.248  1.8151 -0.0146  0.0508
  158DOPC  H17S19053   3.208   0.445   5.242  0.6376  0.2600 -0.2906
  158DOPC  C21819054   3.399   0.382   5.245  0.2633  0.2967 -0.7112
  158DOPC  H18R19055   3.378   0.365   5.137  0.6595 -2.2452 -0.4306
  158DOPC  H18S19056   3.387   0.287   5.300 -0.0516  0.9612  0.4093
  158DOPC  H18T19057   3.501   0.422   5.259  0.9726 -1.2012 -1.3975
  158DOPC   C3319058   4.049  -0.591   5.959  0.1586 -0.1816 -0.2241
  158DOPC   H3X19059   3.947  -0.601   6.002  0.0959  1.0707 -0.0656
  158DOPC   H3Y19060   4.111  -0.656   6.025 -2.5029 -2.0990  0.5676
  158DOPC   C3419061   4.043  -0.646   5.813  0.0603 -0.5880 -0.5215
  158DOPC   H4X19062   4.135  -0.704   5.787  0.5492 -0.8812  1.6712
  158DOPC   H4Y19063   4.029  -0.559   5.745 -0.7010 -1.3895 -1.4326
  158DOPC   C3519064   3.922  -0.736   5.788 -0.4409  0.4677  0.4241
  158DOPC   H5X19065   3.826  -0.682   5.807  0.2000  2.1138 -0.7556
  158DOPC   H5Y19066   3.935  -0.834   5.837  0.6942 -0.5735 -1.8271
  158DOPC   C3619067   3.917  -0.777   5.637  0.7705  0.2994 -0.6360
  158DOPC   H6X19068   3.903  -0.688   5.572 -1.4903  0.8980  0.5572
  158DOPC   H6Y19069   4.009  -0.838   5.625  1.4418  1.1340  0.1870
  158DOPC   C3719070   3.800  -0.873   5.600  0.1679 -0.0184 -0.5374
  158DOPC   H7X19071   3.799  -0.891   5.491 -2.3382  1.1698 -0.7727
  158DOPC   H7Y19072   3.823  -0.973   5.643 -0.6887 -0.0117 -0.0348
  158DOPC   C3819073   3.656  -0.823   5.637  0.1590  0.6883  0.3072
  158DOPC   H8X19074   3.667  -0.844   5.746 -0.4102 -2.3699 -0.1306
  158DOPC   H8Y19075   3.575  -0.889   5.598  1.4884 -0.3698 -0.7446
  158DOPC   C3919076   3.618  -0.679   5.606 -0.2728 -0.3790  1.1982
  158DOPC   H9X19077   3.664  -0.606   5.674 -0.3395 -0.0783  0.9218
  158DOPC  C31019078   3.524  -0.632   5.513 -0.6063  0.4766 -0.0153
  158DOPC  H10X19079   3.508  -0.523   5.519 -1.9434  0.2712  0.4397
  158DOPC  C31119080   3.434  -0.716   5.420 -0.2483  0.3403  0.1180
  158DOPC  H11X19081   3.326  -0.690   5.420 -0.3706 -0.1700  0.7252
  158DOPC  H11Y19082   3.437  -0.823   5.449  1.7024  0.8910  2.1779
  158DOPC  C31219083   3.476  -0.718   5.271  0.1570 -0.6526 -0.1449
  158DOPC  H12X19084   3.398  -0.779   5.219 -0.9176  1.4440 -1.1012
  158DOPC  H12Y19085   3.580  -0.757   5.268  0.3101 -0.1959 -2.1633
  158DOPC  C31319086   3.479  -0.578   5.189  0.2802 -0.1301 -0.4160
  158DOPC  H13X19087   3.379  -0.541   5.158  0.8385  0.7640 -1.1908
  158DOPC  H13Y19088   3.523  -0.499   5.253  0.4875 -1.3295  0.9895
  158DOPC  C31419089   3.563  -0.599   5.068 -0.4362  0.4639 -0.1284
  158DOPC  H14X19090   3.653  -0.655   5.103 -1.8761 -1.1130  1.1634
  158DOPC  H14Y19091   3.512  -0.660   4.991  0.3079  0.3714 -0.5626
  158DOPC  C31519092   3.618  -0.481   4.987 -0.1212  0.0447 -0.8161
  158DOPC  H15X19093   3.665  -0.526   4.897 -0.3791 -1.0209 -0.4355
  158DOPC  H15Y19094   3.687  -0.417   5.047  0.2844  0.5210 -1.7651
  158DOPC  C31619095   3.498  -0.396   4.928  0.3740  0.5500 -0.8555
  158DOPC  H16X19096   3.400  -0.428   4.970  0.3658  0.2983 -1.0637
  158DOPC  H16Y19097   3.522  -0.289   4.946  2.4977 -0.0739  0.3739
  158DOPC  C31719098   3.480  -0.411   4.776 -0.3878 -0.5929 -0.0300
  158DOPC  H17X19099   3.389  -0.355   4.746 -0.3463  0.7243  2.1029
  158DOPC  H17Y19100   3.571  -0.363   4.735  0.0906 -0.2837  1.3220
  158DOPC  C31819101   3.468  -0.556   4.720  0.8025  0.0704 -0.7005
  158DOPC  H18X19102   3.452  -0.562   4.610 -0.4841 -0.7838 -0.4957
  158DOPC  H18Y19103   3.559  -0.617   4.741 -0.2049 -1.1377  0.2884
  158DOPC  H18Z19104   3.382  -0.608   4.767  2.0599 -0.8455  0.6897
  159DOPC     N19105   7.172   2.603   7.439  0.0005  0.5729  0.3012
  159DOPC   C1219106   7.170   2.705   7.326  0.3727  0.3900  0.6663
  159DOPC  H12A19107   7.218   2.797   7.355 -0.7211  1.2627 -0.2353
  159DOPC  H12B19108   7.068   2.730   7.305  0.1687 -0.1254  1.0241
  159DOPC   C1319109   7.090   2.486   7.407 -0.5779  0.5020  0.1196
  159DOPC  H13A19110   7.136   2.434   7.324  0.8252  1.7864  0.0474
  159DOPC  H13B19111   7.078   2.412   7.486 -5.0921 -1.9354 -2.4349
  159DOPC  H13C19112   6.989   2.511   7.379 -0.4861 -0.0936 -0.7617
  159DOPC   C1419113   7.116   2.671   7.561  0.0653 -0.4726  0.1420
  159DOPC  H14A19114   7.012   2.693   7.543  0.1390 -1.4936 -1.7117
  159DOPC  H14B19115   7.110   2.605   7.646 -1.8882 -0.5661 -0.0306
  159DOPC  H14C19116   7.148   2.775   7.566 -2.3068  0.3966 -1.2660
  159DOPC   C1519117   7.318   2.563   7.465 -0.5061  0.3700  0.5248
  159DOPC  H15A19118   7.363   2.519   7.377  0.1046 -1.0225  1.5197
  159DOPC  H15B19119   7.326   2.491   7.544 -0.1090 -0.5267 -0.3065
  159DOPC  H15C19120   7.374   2.651   7.493  1.8287 -0.5272 -1.0423
  159DOPC   C1119121   7.230   2.668   7.180 -0.3672  0.1159 -0.3462
  159DOPC  H11A19122   7.248   2.762   7.125 -2.2277 -0.8672 -2.8306
  159DOPC  H11B19123   7.331   2.623   7.172  0.3209  1.5566 -0.0616
  159DOPC     P19124   7.007   2.653   7.047 -0.0862 -0.0177  0.3992
  159DOPC   O1319125   6.963   2.767   7.125 -0.0119  0.3970 -0.1696
  159DOPC   O1419126   6.904   2.550   7.034  0.4733  0.2918  0.4808
  159DOPC   O1219127   7.138   2.581   7.111  0.2447 -0.8374 -0.3908
  159DOPC   O1119128   7.036   2.697   6.902 -0.2759 -0.3445 -0.1682
  159DOPC    C119129   7.129   2.607   6.839  0.2784  0.0044 -0.0893
  159DOPC    HA19130   7.113   2.500   6.864  1.2358 -0.2199 -0.4143
  159DOPC    HB19131   7.233   2.638   6.860  0.1069  0.3954  0.2022
  159DOPC    C219132   7.107   2.624   6.684 -0.1367 -0.6333  0.5217
  159DOPC    HS19133   7.153   2.537   6.632 -0.5623  0.2797 -1.4903
  159DOPC   O2119134   7.173   2.746   6.638 -0.0217 -0.1845  0.6466
  159DOPC   C2119135   7.199   2.759   6.507  0.4052  0.6821 -0.1022
  159DOPC   O2219136   7.189   2.670   6.423 -0.2466 -0.5521 -0.5670
  159DOPC   C2219137   7.256   2.894   6.479  0.3421 -0.7719 -0.4477
  159DOPC   H2R19138   7.327   2.925   6.559 -1.4202  0.6374  0.6806
  159DOPC   H2S19139   7.168   2.962   6.491  1.3556  0.5868 -0.4426
  159DOPC    C319140   6.956   2.612   6.642  0.0192  0.7844  0.2738
  159DOPC    HX19141   6.921   2.713   6.671  1.5395  1.5495 -0.4361
  159DOPC    HY19142   6.896   2.533   6.691 -1.4890  1.3379 -0.5996
  159DOPC   O3119143   6.939   2.587   6.496 -0.1611  0.4359 -0.0518
  159DOPC   C3119144   6.813   2.611   6.459  0.1358  0.1844 -0.0299
  159DOPC   O3219145   6.722   2.641   6.535 -0.2414  0.5100 -0.3104
  159DOPC   C3219146   6.795   2.586   6.311  0.0147  0.3954 -0.1492
  159DOPC   H2X19147   6.848   2.673   6.267  1.2029 -1.1527 -1.9227
  159DOPC   H2Y19148   6.845   2.495   6.273  0.0610  1.5885 -3.1967
  159DOPC   C2319149   7.328   2.910   6.345  0.2389 -0.1870  0.4117
  159DOPC   H3R19150   7.292   2.846   6.261 -2.2886  2.6794 -0.8885
  159DOPC   H3S19151   7.436   2.889   6.359  0.9542  0.9234 -2.6861
  159DOPC   C2419152   7.319   3.052   6.277  0.6418  0.4912  0.4371
  159DOPC   H4R19153   7.362   3.124   6.350  1.3031 -1.2725  1.8577
  159DOPC   H4S19154   7.211   3.073   6.266  0.4869 -0.7996 -0.7389
  159DOPC   C2519155   7.400   3.067   6.143 -0.2098 -0.0580 -0.3668
  159DOPC   H5R19156   7.387   2.976   6.081 -1.4845  0.0510 -0.2750
  159DOPC   H5S19157   7.508   3.073   6.168  0.3646  0.5195 -2.7583
  159DOPC   C2619158   7.361   3.191   6.071  0.0573 -0.1590  0.2001
  159DOPC   H6R19159   7.394   3.281   6.127 -2.5626  1.1007 -0.1244
  159DOPC   H6S19160   7.251   3.204   6.080  0.3423  1.0452  2.9482
  159DOPC   C2719161   7.415   3.193   5.921  0.8491 -0.2708 -0.4762
  159DOPC   H7R19162   7.408   3.093   5.872  1.1006 -0.2330 -0.5915
  159DOPC   H7S19163   7.522   3.219   5.937  0.6455 -0.0244  0.5405
  159DOPC   C2819164   7.368   3.306   5.827  0.1476 -0.0060  0.4513
  159DOPC   H8R19165   7.356   3.397   5.890 -0.2432  1.3920 -1.5224
  159DOPC   H8S19166   7.263   3.280   5.800  0.3313 -1.5961  1.1719
  159DOPC   C2919167   7.452   3.343   5.705  0.4036 -0.1241  0.6586
  159DOPC   H9R19168   7.466   3.257   5.638 -2.4724  0.5540 -0.9732
  159DOPC  C21019169   7.517   3.462   5.688  0.0496  0.0395  0.5739
  159DOPC  H10R19170   7.566   3.476   5.591 -2.5502  0.3590 -0.7708
  159DOPC  C21119171   7.506   3.581   5.781  0.0281  0.1760  0.4919
  159DOPC  H11R19172   7.603   3.603   5.831 -0.4821  1.8377  0.8149
  159DOPC  H11S19173   7.429   3.580   5.861  0.3985  1.6174  0.8922
  159DOPC  C21219174   7.462   3.689   5.677 -0.2603  0.7373 -0.1420
  159DOPC  H12R19175   7.378   3.652   5.614 -0.9508 -0.1255  1.2179
  159DOPC  H12S19176   7.551   3.701   5.613 -0.1854  1.5012  0.0955
  159DOPC  C21319177   7.428   3.824   5.745 -0.4080 -0.5084  0.0601
  159DOPC  H13R19178   7.429   3.907   5.670  1.1038 -0.6341 -0.0926
  159DOPC  H13S19179   7.504   3.833   5.825 -2.9949 -1.8007  2.8942
  159DOPC  C21419180   7.294   3.810   5.812  0.0810  0.2508  0.1226
  159DOPC  H14R19181   7.299   3.734   5.894  2.0895 -1.8682 -1.8280
  159DOPC  H14S19182   7.223   3.777   5.734 -0.8320 -1.8362  1.7352
  159DOPC  C21519183   7.231   3.932   5.874  0.5409 -0.0302  0.1112
  159DOPC  H15R19184   7.251   4.018   5.806  2.6149 -0.6557 -0.1354
  159DOPC  H15S19185   7.274   3.961   5.972 -0.1405  0.0327  0.3970
  159DOPC  C21619186   7.078   3.910   5.883  1.0029 -0.2284 -0.3461
  159DOPC  H16R19187   7.029   3.908   5.783  0.9041  4.0807 -0.5925
  159DOPC  H16S19188   7.051   4.009   5.926  0.6833 -0.6607  0.4748
  159DOPC  C21719189   7.034   3.801   5.978 -0.0916 -0.7634 -0.2970
  159DOPC  H17R19190   7.082   3.826   6.075  0.0985  2.1245 -1.0272
  159DOPC  H17S19191   7.070   3.698   5.955 -0.4599 -0.6619 -1.4099
  159DOPC  C21819192   6.876   3.798   5.982 -0.7845 -0.0948 -0.4730
  159DOPC  H18R19193   6.837   3.902   5.991 -0.2889  0.0587 -0.0484
  159DOPC  H18S19194   6.826   3.742   6.064 -1.2912  0.9358 -0.0623
  159DOPC  H18T19195   6.831   3.756   5.890 -1.2611  1.0652 -0.7880
  159DOPC   C3319196   6.648   2.575   6.263 -0.2150  0.4837 -0.0695
  159DOPC   H3X19197   6.591   2.667   6.289  2.4903  2.4696 -0.6956
  159DOPC   H3Y19198   6.622   2.483   6.320 -1.5941 -1.2280 -3.2138
  159DOPC   C3419199   6.637   2.544   6.109  0.7268 -0.5310  0.4895
  159DOPC   H4X19200   6.708   2.465   6.076  0.1774  0.0558 -2.4449
  159DOPC   H4Y19201   6.662   2.637   6.053 -2.1388  0.4421  0.6470
  159DOPC   C3519202   6.496   2.502   6.068 -0.3868 -0.1670  0.5589
  159DOPC   H5X19203   6.423   2.573   6.113 -1.0983 -0.0402 -0.7476
  159DOPC   H5Y19204   6.491   2.400   6.112  3.2997 -0.7495 -0.0471
  159DOPC   C3619205   6.471   2.507   5.912 -0.9420  0.2125 -0.3503
  159DOPC   H6X19206   6.505   2.607   5.877  1.9286 -0.8212 -0.8023
  159DOPC   H6Y19207   6.531   2.427   5.864  0.8361  2.2694 -1.7770
  159DOPC   C3719208   6.321   2.486   5.871 -0.0606  0.3489 -0.3164
  159DOPC   H7X19209   6.297   2.382   5.901 -2.1454  0.1614 -2.4082
  159DOPC   H7Y19210   6.249   2.556   5.919 -0.3888 -0.7163  0.7898
  159DOPC   C3819211   6.291   2.491   5.716 -0.5807 -0.3124  0.9330
  159DOPC   H8X19212   6.182   2.480   5.698 -0.5270  3.4367 -3.2487
  159DOPC   H8Y19213   6.352   2.417   5.660 -1.9253  0.2110 -1.3662
  159DOPC   C3919214   6.322   2.626   5.664 -0.6165  0.0322 -0.7446
  159DOPC   H9X19215   6.376   2.687   5.738 -3.2206  0.0504  1.3056
  159DOPC  C31019216   6.276   2.671   5.543 -0.8560 -0.3015  0.0710
  159DOPC  H10X19217   6.281   2.775   5.508 -3.7773 -0.8518 -2.3366
  159DOPC  C31119218   6.182   2.592   5.451 -0.1994  0.1355  0.4241
  159DOPC  H11X19219   6.079   2.634   5.454 -0.6236 -0.7113 -0.9478
  159DOPC  H11Y19220   6.177   2.487   5.486 -0.1739  0.5168  1.5861
  159DOPC  C31219221   6.211   2.596   5.302  0.0832 -0.5569  0.1290
  159DOPC  H12X19222   6.257   2.692   5.268 -1.2278 -0.2530 -0.9080
  159DOPC  H12Y19223   6.128   2.573   5.232  0.7215 -0.9356 -0.5284
  159DOPC  C31319224   6.307   2.486   5.259  0.2815  0.1424  0.9710
  159DOPC  H13X19225   6.391   2.483   5.332 -0.4377 -1.0826  1.7611
  159DOPC  H13Y19226   6.254   2.390   5.248  0.6360  0.1328 -1.2148
  159DOPC  C31419227   6.377   2.508   5.119 -0.7016  0.3027 -0.3181
  159DOPC  H14X19228   6.422   2.610   5.115 -0.0024 -0.0126 -0.7432
  159DOPC  H14Y19229   6.464   2.438   5.114  1.2989  2.6234  0.0774
  159DOPC  C31519230   6.294   2.484   4.995  0.4191  0.6554 -0.2818
  159DOPC  H15X19231   6.188   2.514   5.005  0.1202 -0.2038 -0.8515
  159DOPC  H15Y19232   6.290   2.374   4.983 -1.8186  0.2406  2.9750
  159DOPC  C31619233   6.357   2.560   4.872 -0.1753 -0.4330  0.6499
  159DOPC  H16X19234   6.348   2.666   4.904  0.6975  0.0928 -0.7660
  159DOPC  H16Y19235   6.462   2.523   4.870  0.4509  1.2318  1.1710
  159DOPC  C31719236   6.301   2.538   4.728  0.3039  0.2631 -0.9501
  159DOPC  H17X19237   6.201   2.585   4.738 -0.0440 -0.7701  0.9561
  159DOPC  H17Y19238   6.358   2.590   4.648  0.8330  1.6230  0.2517
  159DOPC  C31819239   6.278   2.392   4.690 -0.4667  0.2964  0.3288
  159DOPC  H18X19240   6.195   2.338   4.741 -0.3876 -0.9514 -0.8119
  159DOPC  H18Y19241   6.254   2.385   4.582  1.5027 -1.1980 -0.0549
  159DOPC  H18Z19242   6.373   2.339   4.709 -0.8712 -0.1069  1.3124
  160DOPC     N19243   1.532   5.055   7.227  0.0326 -0.0111 -0.1009
  160DOPC   C1219244   1.618   5.039   7.102  0.3763  0.4917  0.2475
  160DOPC  H12A19245   1.582   5.103   7.023 -1.8657 -2.0157 -0.9404
  160DOPC  H12B19246   1.615   4.937   7.067 -0.5297  0.4840  0.3284
  160DOPC   C1319247   1.552   4.928   7.311 -0.7916  0.5277 -0.1326
  160DOPC  H13A19248   1.488   4.927   7.399 -0.7822 -2.3984 -0.0500
  160DOPC  H13B19249   1.513   4.842   7.258  0.5511 -0.9424  1.1449
  160DOPC  H13C19250   1.656   4.913   7.338 -1.1351  0.0193  0.9861
  160DOPC   C1419251   1.393   5.060   7.185 -0.0216  0.2625 -0.7337
  160DOPC  H14A19252   1.369   4.969   7.131 -1.7716  0.7074 -0.7837
  160DOPC  H14B19253   1.329   5.064   7.272  0.1659 -0.7542 -0.5324
  160DOPC  H14C19254   1.374   5.152   7.131  1.8712  1.2018  0.0931
  160DOPC   C1519255   1.565   5.172   7.310  0.1066  0.4567  0.4084
  160DOPC  H15A19256   1.587   5.264   7.258  0.1947  0.5395  0.5882
  160DOPC  H15B19257   1.655   5.147   7.364 -0.9089 -2.4776  0.9327
  160DOPC  H15C19258   1.501   5.184   7.397 -0.1704  0.3993  0.2136
  160DOPC   C1119259   1.773   5.070   7.118 -0.1115  0.5610 -0.0177
  160DOPC  H11A19260   1.781   5.178   7.145  1.5746  0.8509 -1.4791
  160DOPC  H11B19261   1.825   5.010   7.195  0.2591 -0.2604 -0.8890
  160DOPC     P19262   1.844   5.127   6.864 -0.2019 -0.1382  0.1485
  160DOPC   O1319263   1.723   5.212   6.850  0.6066  0.2270 -0.9149
  160DOPC   O1419264   1.871   5.027   6.764 -0.2275 -0.7537 -0.1665
  160DOPC   O1219265   1.842   5.044   6.998  0.4663  0.0346 -0.0772
  160DOPC   O1119266   1.967   5.229   6.893  0.4505  0.0746  0.1294
  160DOPC    C119267   2.083   5.160   6.944 -0.1361 -0.7492  0.1928
  160DOPC    HA19268   2.109   5.067   6.889 -1.3415 -0.8263 -0.2711
  160DOPC    HB19269   2.069   5.126   7.049 -0.2415 -0.9151  0.1252
  160DOPC    C219270   2.209   5.253   6.942 -0.2687  0.6542  0.4201
  160DOPC    HS19271   2.190   5.322   7.027 -2.2658  0.3956  0.2439
  160DOPC   O2119272   2.207   5.333   6.820 -0.3090 -0.1184  0.1154
  160DOPC   C2119273   2.266   5.446   6.828  0.7421  0.2128  0.1061
  160DOPC   O2219274   2.328   5.487   6.922 -0.4869 -0.6247  0.0157
  160DOPC   C2219275   2.227   5.529   6.710  0.1352 -0.6587 -0.5431
  160DOPC   H2R19276   2.117   5.514   6.698  0.3330 -1.8446 -1.0151
  160DOPC   H2S19277   2.283   5.480   6.627  0.9905  0.2343 -0.5070
  160DOPC    C319278   2.344   5.180   6.960  0.2956  0.4211 -0.2118
  160DOPC    HX19279   2.340   5.122   7.054 -1.1893  2.2942  0.9711
  160DOPC    HY19280   2.421   5.258   6.980  0.2974  0.2533  0.4475
  160DOPC   O3119281   2.377   5.084   6.852 -0.4202 -0.3370 -0.3632
  160DOPC   C3119282   2.444   5.138   6.751  0.1700 -0.6361  0.9263
  160DOPC   O3219283   2.487   5.253   6.754  0.7475  0.7714  0.0026
  160DOPC   C3219284   2.454   5.045   6.636 -0.0994  0.2020 -0.4890
  160DOPC   H2X19285   2.560   5.020   6.613  0.4637  1.0110  1.0363
  160DOPC   H2Y19286   2.398   4.951   6.655  0.2780 -0.0099 -0.4313
  160DOPC   C2319287   2.275   5.673   6.713 -0.1815 -0.3316 -0.1680
  160DOPC   H3R19288   2.386   5.666   6.722  0.0595 -1.1982 -3.0038
  160DOPC   H3S19289   2.244   5.722   6.808 -0.8776 -0.7103 -0.1955
  160DOPC   C2419290   2.239   5.752   6.586  0.2242  0.5069 -0.3205
  160DOPC   H4R19291   2.138   5.710   6.572  0.1133 -0.7609  3.2731
  160DOPC   H4S19292   2.299   5.730   6.495 -0.4218  2.0670 -1.1521
  160DOPC   C2519293   2.225   5.902   6.581  0.2115  0.5302  0.3083
  160DOPC   H5R19294   2.319   5.952   6.613 -0.0511 -0.0179  2.0430
  160DOPC   H5S19295   2.152   5.941   6.655 -0.9755 -1.9785  0.5572
  160DOPC   C2619296   2.183   5.963   6.445  0.5013  0.2461 -0.1582
  160DOPC   H6R19297   2.074   5.945   6.451  0.1850  1.4254 -1.6504
  160DOPC   H6S19298   2.224   5.909   6.357 -0.2493  0.2885 -0.5446
  160DOPC   C2719299   2.200   6.113   6.436 -0.0236 -0.0627 -0.6037
  160DOPC   H7R19300   2.306   6.146   6.440 -0.0712 -0.0099  0.6286
  160DOPC   H7S19301   2.147   6.170   6.514  1.1137  0.2374 -0.0239
  160DOPC   C2819302   2.134   6.158   6.300 -0.1137  0.4391  0.5417
  160DOPC   H8R19303   2.030   6.122   6.313 -0.8054  1.6875 -1.1473
  160DOPC   H8S19304   2.193   6.101   6.225 -0.8609  0.2253  0.1119
  160DOPC   C2919305   2.156   6.310   6.286  0.0559  0.7112  0.4984
  160DOPC   H9R19306   2.125   6.369   6.373  1.7191 -1.8659  3.0551
  160DOPC  C21019307   2.200   6.371   6.174  0.0054 -0.6557  0.6498
  160DOPC  H10R19308   2.202   6.480   6.165  0.4231 -0.7986 -1.3388
  160DOPC  C21119309   2.232   6.315   6.045 -1.0040  0.2035  0.5493
  160DOPC  H11R19310   2.220   6.205   6.040  0.0101  0.0177  1.7443
  160DOPC  H11S19311   2.336   6.351   6.030 -1.3073  1.1330  0.6064
  160DOPC  C21219312   2.153   6.374   5.926  0.4414  0.9640  0.7532
  160DOPC  H12R19313   2.153   6.484   5.915 -0.4476  1.1639  2.3623
  160DOPC  H12S19314   2.043   6.359   5.929  0.5636 -0.0991  0.4092
  160DOPC  C21319315   2.212   6.313   5.792  0.3944  0.8789 -0.5463
  160DOPC  H13R19316   2.148   6.226   5.766  1.5129 -0.4401  0.9473
  160DOPC  H13S19317   2.316   6.280   5.813 -0.1075 -0.6918 -0.3729
  160DOPC  C21419318   2.216   6.422   5.688  0.2137 -0.0849 -0.7205
  160DOPC  H14R19319   2.238   6.524   5.728  0.8883  0.2371 -1.8758
  160DOPC  H14S19320   2.112   6.429   5.651 -0.0484 -1.0208 -0.1971
  160DOPC  C21519321   2.298   6.380   5.564 -0.4601 -0.0179  0.1940
  160DOPC  H15R19322   2.395   6.332   5.593  0.3776  0.4501 -1.7126
  160DOPC  H15S19323   2.320   6.474   5.509 -0.8845  0.9073  1.5366
  160DOPC  C21619324   2.224   6.280   5.468 -0.0283  0.0347  0.6733
  160DOPC  H16R19325   2.133   6.331   5.430  0.8132  1.9454  1.1025
  160DOPC  H16S19326   2.187   6.193   5.528  0.2392 -1.0063 -0.6298
  160DOPC  C21719327   2.317   6.227   5.352 -0.4225 -0.2368  0.0260
  160DOPC  H17R19328   2.251   6.148   5.310  0.6872  0.3120 -3.0860
  160DOPC  H17S19329   2.410   6.186   5.396  0.2160  1.4553  0.3468
  160DOPC  C21819330   2.356   6.331   5.247 -0.1568  1.0421  0.2673
  160DOPC  H18R19331   2.450   6.386   5.269  1.2661 -1.5238  1.0371
  160DOPC  H18S19332   2.267   6.394   5.227 -0.4152  1.2626  1.9083
  160DOPC  H18T19333   2.382   6.267   5.160  2.2110  0.2383  1.4821
  160DOPC   C3319334   2.389   5.113   6.512 -0.0367 -0.2055  0.8709
  160DOPC   H3X19335   2.450   5.201   6.481 -2.4143  0.9423 -0.8047
  160DOPC   H3Y19336   2.289   5.158   6.525 -0.6829 -0.4058 -2.4989
  160DOPC   C3419337   2.385   5.014   6.396 -0.1005  0.8018  0.0510
  160DOPC   H4X19338   2.324   4.924   6.422  1.0265  0.6785  2.4796
  160DOPC   H4Y19339   2.486   4.971   6.378 -0.3877  0.0817  0.1234
  160DOPC   C3519340   2.332   5.072   6.261 -0.1763  0.2441 -0.7845
  160DOPC   H5X19341   2.381   5.170   6.245 -0.6146  0.1688 -2.7404
  160DOPC   H5Y19342   2.225   5.100   6.265 -0.0347  0.7381  1.8414
  160DOPC   C3619343   2.343   4.977   6.137  0.4550 -0.7759 -0.1396
  160DOPC   H6X19344   2.448   4.944   6.120 -0.0988 -1.4505 -2.7048
  160DOPC   H6Y19345   2.288   4.884   6.163  1.9577 -1.8003 -0.4894
  160DOPC   C3719346   2.290   5.046   6.009 -0.0797 -0.0233  0.0210
  160DOPC   H7X19347   2.187   5.079   6.032 -1.0165 -2.2234 -0.7817
  160DOPC   H7Y19348   2.360   5.133   6.003  1.5314 -1.1016  1.9897
  160DOPC   C3819349   2.304   4.946   5.891  0.0025 -0.6079  0.2716
  160DOPC   H8X19350   2.247   4.856   5.924 -2.1697  1.0594  1.2907
  160DOPC   H8Y19351   2.413   4.925   5.891  0.3957  1.2271 -0.7028
  160DOPC   C3919352   2.258   5.000   5.758  0.3992  0.1870 -0.8359
  160DOPC   H9X19353   2.153   5.018   5.734  0.5128  0.5585 -1.0463
  160DOPC  C31019354   2.338   5.038   5.663  0.0997  0.0777  0.7170
  160DOPC  H10X19355   2.289   5.067   5.569 -0.8481  1.7850  1.7101
  160DOPC  C31119356   2.492   5.047   5.660 -0.5273  0.0132  0.3334
  160DOPC  H11X19357   2.535   4.970   5.593 -0.1623  2.7934 -2.9126
  160DOPC  H11Y19358   2.538   5.021   5.757  0.5679 -2.9316 -0.8773
  160DOPC  C31219359   2.537   5.187   5.619 -0.2065  0.3181  0.6283
  160DOPC  H12X19360   2.506   5.198   5.513  0.1246  0.4678  0.5459
  160DOPC  H12Y19361   2.647   5.196   5.609 -0.5218  2.8164 -2.2281
  160DOPC  C31319362   2.490   5.311   5.697  0.7067 -0.3878 -0.4552
  160DOPC  H13X19363   2.520   5.413   5.666 -1.7808  0.7806  0.6793
  160DOPC  H13Y19364   2.381   5.313   5.717  1.1121 -0.2981  2.0610
  160DOPC  C31419365   2.541   5.330   5.838  0.0255  0.2519  0.7236
  160DOPC  H14X19366   2.499   5.255   5.908  0.3976  0.5021  1.2207
  160DOPC  H14Y19367   2.651   5.326   5.852  0.1621 -0.1984 -0.4001
  160DOPC  C31519368   2.487   5.460   5.896 -0.0974  0.5709  0.3167
  160DOPC  H15X19369   2.389   5.482   5.848 -0.2428  2.3677  1.3402
  160DOPC  H15Y19370   2.550   5.544   5.862 -1.3652  0.5435 -2.3758
  160DOPC  C31619371   2.474   5.453   6.049 -0.3758 -0.3485  0.5302
  160DOPC  H16X19372   2.394   5.384   6.085  1.0227 -2.4886 -0.2408
  160DOPC  H16Y19373   2.568   5.418   6.095 -0.1671  1.0212  1.2020
  160DOPC  C31719374   2.450   5.594   6.105 -0.3888 -0.1341  0.4295
  160DOPC  H17X19375   2.541   5.649   6.072  0.9829 -0.9208  2.6816
  160DOPC  H17Y19376   2.359   5.648   6.071 -0.2419 -0.1396  0.0123
  160DOPC  C31819377   2.450   5.590   6.256  1.2400  0.7926 -0.1730
  160DOPC  H18X19378   2.435   5.697   6.284  1.6144  0.9521 -0.5793
  160DOPC  H18Y19379   2.359   5.541   6.297  1.3098 -0.6505 -1.6402
  160DOPC  H18Z19380   2.540   5.545   6.303 -0.4585 -1.1762  1.4052
  161DOPC     N19381   4.914   0.371   7.176 -0.2304  0.3044  0.1059
  161DOPC   C1219382   4.959   0.273   7.059 -0.1257  0.0301 -0.0891
  161DOPC  H12A19383   4.975   0.175   7.100 -0.6467  0.1316  0.3697
  161DOPC  H12B19384   5.053   0.309   7.021 -1.0597  3.0080  0.1582
  161DOPC   C1319385   4.855   0.493   7.116  1.1586 -0.2769  0.4573
  161DOPC  H13A19386   4.768   0.482   7.053  2.3786 -1.8915 -0.9999
  161DOPC  H13B19387   4.827   0.573   7.184 -3.0518 -1.1412  0.0445
  161DOPC  H13C19388   4.926   0.542   7.052  0.6321  0.5334  0.4617
  161DOPC   C1419389   5.032   0.399   7.263  1.0393 -0.1488  0.5626
  161DOPC  H14A19390   5.000   0.431   7.360  0.5795  0.6243  0.1639
  161DOPC  H14B19391   5.085   0.307   7.284  1.2598  0.0164  0.7273
  161DOPC  H14C19392   5.108   0.468   7.229 -0.1599  0.7755 -0.3237
  161DOPC   C1519393   4.810   0.299   7.262 -0.0514  0.0733 -0.3047
  161DOPC  H15A19394   4.725   0.266   7.204 -1.0781  0.6313  0.8309
  161DOPC  H15B19395   4.781   0.371   7.338 -0.2904  1.5633 -1.7600
  161DOPC  H15C19396   4.857   0.210   7.302  1.7263  0.7444 -0.8141
  161DOPC   C1119397   4.870   0.271   6.934 -0.7880  0.1015 -0.0121
  161DOPC  H11A19398   4.874   0.375   6.898 -1.7072 -0.1501 -0.8847
  161DOPC  H11B19399   4.920   0.204   6.862  0.5641  0.5220  0.5061
  161DOPC     P19400   4.614   0.279   6.894 -0.1688 -0.0906 -0.2010
  161DOPC   O1319401   4.624   0.421   6.869 -0.1500 -0.3833 -0.4736
  161DOPC   O1419402   4.490   0.225   6.958 -0.4726 -0.2658  0.1299
  161DOPC   O1219403   4.743   0.224   6.971 -0.0566 -0.2845 -1.0461
  161DOPC   O1119404   4.629   0.208   6.751  0.1312 -0.0551 -0.2043
  161DOPC    C119405   4.537   0.105   6.713 -0.9882  0.0581  0.5775
  161DOPC    HA19406   4.436   0.151   6.707 -0.4149  1.3587  0.7796
  161DOPC    HB19407   4.543   0.013   6.776  1.4500 -0.6907 -0.6307
  161DOPC    C219408   4.565   0.067   6.569  0.8648  0.1423  0.0617
  161DOPC    HS19409   4.664   0.017   6.577 -0.3452 -2.2192  1.4226
  161DOPC   O2119410   4.564   0.189   6.489  0.1673  0.3860  0.4025
  161DOPC   C2119411   4.660   0.199   6.404 -0.7938  0.4043 -0.8851
  161DOPC   O2219412   4.766   0.136   6.407  0.1433 -0.0100 -0.5021
  161DOPC   C2219413   4.618   0.311   6.307  0.0984 -0.1589 -0.1698
  161DOPC   H2R19414   4.653   0.408   6.347  0.5317 -0.5872  0.5265
  161DOPC   H2S19415   4.507   0.314   6.297  0.1333  0.6004 -0.3484
  161DOPC    C319416   4.468  -0.042   6.504  0.1322 -0.4843 -0.7018
  161DOPC    HX19417   4.381   0.012   6.460 -0.7261  0.4592  1.9420
  161DOPC    HY19418   4.428  -0.113   6.580  0.1836 -0.6501 -0.8288
  161DOPC   O3119419   4.536  -0.107   6.395  0.4647 -0.1590 -0.9202
  161DOPC   C3119420   4.554  -0.234   6.416 -0.6106 -0.3331 -0.1483
  161DOPC   O3219421   4.549  -0.296   6.523 -0.1224 -0.2587  0.1889
  161DOPC   C3219422   4.585  -0.306   6.284  0.3461 -0.4391 -1.0856
  161DOPC   H2X19423   4.489  -0.359   6.267 -1.1223  1.9200 -0.5111
  161DOPC   H2Y19424   4.608  -0.238   6.199  0.7405  1.9872  0.8292
  161DOPC   C2319425   4.692   0.278   6.171 -0.1160 -0.2908  0.1946
  161DOPC   H3R19426   4.803   0.272   6.171  0.0175  1.0193 -1.9539
  161DOPC   H3S19427   4.668   0.359   6.098 -2.3783 -1.1844 -0.1306
  161DOPC   C2419428   4.646   0.135   6.122 -0.5254 -0.2326  0.1218
  161DOPC   H4R19429   4.535   0.139   6.124 -0.7897 -2.5790 -2.7438
  161DOPC   H4S19430   4.680   0.055   6.191  0.7834  2.0464  2.2930
  161DOPC   C2519431   4.693   0.104   5.983  0.2086  0.3669  0.1900
  161DOPC   H5R19432   4.803   0.116   5.977 -0.0230  2.3177 -1.6366
  161DOPC   H5S19433   4.669   0.176   5.901  2.3942  2.0982  0.9722
  161DOPC   C2619434   4.635  -0.026   5.925 -0.1913  0.1317 -0.3514
  161DOPC   H6R19435   4.524  -0.014   5.932 -0.0606  0.4565  2.0347
  161DOPC   H6S19436   4.664  -0.103   6.000  1.1223 -0.6626 -1.6341
  161DOPC   C2719437   4.699  -0.065   5.784 -0.0955 -0.8513  0.6700
  161DOPC   H7R19438   4.809  -0.054   5.798  0.3793 -2.0288 -1.6499
  161DOPC   H7S19439   4.659   0.012   5.715  0.0120 -0.1151  1.4113
  161DOPC   C2819440   4.681  -0.205   5.736  0.0985  0.2913 -0.0946
  161DOPC   H8R19441   4.737  -0.274   5.803 -0.7924 -0.5727 -0.2189
  161DOPC   H8S19442   4.722  -0.208   5.633 -0.6099 -3.3252 -0.3979
  161DOPC   C2919443   4.538  -0.240   5.728  0.2235  0.8286  0.3139
  161DOPC   H9R19444   4.494  -0.271   5.824  1.4176 -2.2347 -0.0156
  161DOPC  C21019445   4.463  -0.240   5.617  0.4427  0.0505  0.2028
  161DOPC  H10R19446   4.354  -0.257   5.620  0.5082 -0.2680  1.3173
  161DOPC  C21119447   4.504  -0.190   5.483  0.9990  0.1423 -0.1337
  161DOPC  H11R19448   4.591  -0.124   5.504  1.6979 -0.4494 -1.1165
  161DOPC  H11S19449   4.423  -0.120   5.454  0.6290 -0.2021  0.0671
  161DOPC  C21219450   4.546  -0.286   5.377 -0.9826  0.1119  0.3917
  161DOPC  H12R19451   4.481  -0.372   5.354 -0.6677  0.2854 -1.2862
  161DOPC  H12S19452   4.643  -0.327   5.413 -0.7644 -1.1776 -1.5266
  161DOPC  C21319453   4.571  -0.213   5.242  0.0167 -0.2250 -0.8043
  161DOPC  H13R19454   4.494  -0.133   5.241 -0.7237 -0.7009  2.8144
  161DOPC  H13S19455   4.537  -0.281   5.161 -2.3122  0.7924 -0.7668
  161DOPC  C21419456   4.711  -0.143   5.219 -0.0269  0.6429  0.6827
  161DOPC  H14R19457   4.742  -0.092   5.313 -0.4172  0.6113  0.8336
  161DOPC  H14S19458   4.697  -0.058   5.149 -0.6412  0.8388  1.0272
  161DOPC  C21519459   4.820  -0.243   5.174 -0.4011  0.1037  0.5531
  161DOPC  H15R19460   4.829  -0.310   5.263  2.6374 -0.6579 -0.2306
  161DOPC  H15S19461   4.914  -0.188   5.156 -1.1305  1.1223 -0.2370
  161DOPC  C21619462   4.806  -0.338   5.051  0.9530 -0.2295 -0.3640
  161DOPC  H16R19463   4.729  -0.414   5.074  1.3658 -0.3685  0.6023
  161DOPC  H16S19464   4.900  -0.397   5.045  1.0048 -0.5816  2.5444
  161DOPC  C21719465   4.756  -0.276   4.919  0.1135 -0.3831  0.2965
  161DOPC  H17R19466   4.831  -0.201   4.887  2.5202 -2.0119  1.7735
  161DOPC  H17S19467   4.654  -0.233   4.926  0.3234 -0.0311  1.4290
  161DOPC  C21819468   4.769  -0.383   4.813  0.2154  0.6207  0.1646
  161DOPC  H18R19469   4.719  -0.477   4.845 -1.1956  0.7358 -1.5109
  161DOPC  H18S19470   4.875  -0.407   4.787 -0.6427 -0.6647 -2.5776
  161DOPC  H18T19471   4.714  -0.346   4.723  0.1684  1.4936  0.5453
  161DOPC   C3319472   4.700  -0.413   6.295  0.0148  0.0485  0.0179
  161DOPC   H3X19473   4.682  -0.468   6.390 -1.0273  1.7009  0.8102
  161DOPC   H3Y19474   4.793  -0.355   6.312  0.5462 -0.8637  0.3354
  161DOPC   C3419475   4.695  -0.502   6.169 -0.3465  0.5306  0.3641
  161DOPC   H4X19476   4.699  -0.447   6.073 -0.2355 -0.8614 -0.4651
  161DOPC   H4Y19477   4.605  -0.566   6.179 -0.7391  1.3304  2.2135
  161DOPC   C3519478   4.818  -0.593   6.160 -0.3750  0.2171 -0.2443
  161DOPC   H5X19479   4.815  -0.662   6.247  1.8811  0.5165  0.1414
  161DOPC   H5Y19480   4.912  -0.540   6.184  2.1912 -3.3237 -1.5990
  161DOPC   C3619481   4.835  -0.657   6.023  0.4223  0.2773  0.2836
  161DOPC   H6X19482   4.858  -0.574   5.954  1.3876 -0.6896 -0.5957
  161DOPC   H6Y19483   4.928  -0.716   6.039 -0.7644 -1.0433  3.2419
  161DOPC   C3719484   4.717  -0.757   5.984 -0.2567 -0.4676 -0.4248
  161DOPC   H7X19485   4.714  -0.833   6.065  1.7200  1.5749  1.7291
  161DOPC   H7Y19486   4.616  -0.712   5.995  0.2467  0.4536  0.7205
  161DOPC   C3819487   4.722  -0.817   5.843 -0.1197 -0.1959 -0.9886
  161DOPC   H8X19488   4.633  -0.883   5.848  0.4547 -0.9354  2.6449
  161DOPC   H8Y19489   4.810  -0.881   5.822 -1.5635 -2.2439 -1.0435
  161DOPC   C3919490   4.699  -0.704   5.745 -0.7355 -0.0365  0.4966
  161DOPC   H9X19491   4.756  -0.614   5.770  0.4871 -0.2655 -1.3342
  161DOPC  C31019492   4.634  -0.708   5.629 -0.2979  0.2563  0.0631
  161DOPC  H10X19493   4.595  -0.618   5.580  0.3688  0.8706  0.6448
  161DOPC  C31119494   4.558  -0.825   5.570 -0.5142 -0.0410  0.1258
  161DOPC  H11X19495   4.548  -0.901   5.650  0.2438  0.7331  0.9669
  161DOPC  H11Y19496   4.617  -0.868   5.486  0.5666  1.1239  0.2531
  161DOPC  C31219497   4.419  -0.780   5.522  0.1651 -0.7549  0.6203
  161DOPC  H12X19498   4.381  -0.715   5.603  0.2311  1.0467 -0.7321
  161DOPC  H12Y19499   4.350  -0.865   5.501 -0.1769  0.1218 -2.3019
  161DOPC  C31319500   4.411  -0.688   5.394  0.5633  0.1089  0.1245
  161DOPC  H13X19501   4.312  -0.638   5.401 -0.3992 -1.9295  2.7850
  161DOPC  H13Y19502   4.489  -0.609   5.397 -0.8522  1.5954 -0.7469
  161DOPC  C31419503   4.423  -0.758   5.260  0.0861 -0.5499 -0.3578
  161DOPC  H14X19504   4.507  -0.831   5.269  0.7420  0.3409  1.0846
  161DOPC  H14Y19505   4.337  -0.825   5.238 -0.1112 -0.9469  1.4739
  161DOPC  C31519506   4.453  -0.659   5.141  0.9361 -0.0387  0.0011
  161DOPC  H15X19507   4.556  -0.617   5.138  1.5916 -1.5924 -2.9466
  161DOPC  H15Y19508   4.382  -0.578   5.167  0.4330 -0.3704 -0.3147
  161DOPC  C31619509   4.420  -0.715   4.996 -0.8763  0.6553 -0.1046
  161DOPC  H16X19510   4.329  -0.779   4.988  0.4444 -1.4586  0.9075
  161DOPC  H16Y19511   4.416  -0.636   4.919 -3.4285  1.1049  0.3786
  161DOPC  C31719512   4.543  -0.809   4.959  0.9076 -0.3915  0.1951
  161DOPC  H17X19513   4.636  -0.755   4.987  0.3095  0.7453  0.0495
  161DOPC  H17Y19514   4.527  -0.899   5.023 -1.2022  0.8010  1.4393
  161DOPC  C31819515   4.553  -0.846   4.811 -0.9542  0.3842  0.2132
  161DOPC  H18X19516   4.470  -0.912   4.778  0.1380 -0.4418 -0.9754
  161DOPC  H18Y19517   4.555  -0.748   4.759 -1.0682  1.6008  2.3675
  161DOPC  H18Z19518   4.646  -0.905   4.798  0.5127  2.6316  0.1035
  162DOPC     N19519   0.119   6.418   7.241 -0.4537 -0.2074  0.5131
  162DOPC   C1219520   0.095   6.427   7.086  0.4092  0.7267 -1.3104
  162DOPC  H12A19521  -0.009   6.404   7.068  0.2004  1.2325 -0.7801
  162DOPC  H12B19522   0.158   6.350   7.043  2.4113  1.0159  0.8553
  162DOPC   C1319523   0.259   6.422   7.283  0.1654 -0.4577 -0.6456
  162DOPC  H13A19524   0.258   6.403   7.390 -3.7683  1.1374 -0.2146
  162DOPC  H13B19525   0.322   6.349   7.234 -2.5490 -1.1930 -3.3492
  162DOPC  H13C19526   0.303   6.521   7.281  1.4790 -0.9833  0.6458
  162DOPC   C1419527   0.073   6.280   7.281 -0.1961 -0.9198  0.6490
  162DOPC  H14A19528   0.123   6.204   7.224 -2.2384 -1.2065 -0.8586
  162DOPC  H14B19529   0.097   6.255   7.384  0.4995  1.1250  1.0380
  162DOPC  H14C19530  -0.034   6.273   7.269 -0.1173 -2.2666  0.6122
  162DOPC   C1519531   0.033   6.516   7.314 -0.0982 -0.5253 -0.1040
  162DOPC  H15A19532   0.023   6.505   7.421  1.0806 -1.6723 -0.0944
  162DOPC  H15B19533  -0.068   6.520   7.275  0.3371 -1.5904 -1.4057
  162DOPC  H15C19534   0.082   6.611   7.299  0.4118 -0.8671 -0.6255
  162DOPC   C1119535   0.121   6.567   7.026  0.0533 -0.0357 -0.2521
  162DOPC  H11A19536   0.085   6.559   6.921 -1.1926  1.0218  0.0659
  162DOPC  H11B19537   0.051   6.637   7.078  0.3046 -0.7121  1.0388
  162DOPC     P19538   0.375   6.552   6.951 -0.1177  0.0323 -0.1620
  162DOPC   O1319539   0.474   6.485   7.046 -0.2920 -0.6988  0.0171
  162DOPC   O1419540   0.434   6.658   6.876 -0.4637 -0.3744  0.5291
  162DOPC   O1219541   0.258   6.610   7.044  0.2374 -0.2200  0.5432
  162DOPC   O1119542   0.322   6.438   6.858 -0.1169 -0.7841  0.0692
  162DOPC    C119543   0.417   6.351   6.790  0.0604 -0.5849 -0.1545
  162DOPC    HA19544   0.401   6.252   6.836  0.4971  0.1762  1.7208
  162DOPC    HB19545   0.522   6.372   6.822 -0.6856 -1.3856  3.1031
  162DOPC    C219546   0.396   6.349   6.640 -0.4230 -0.2735  0.2932
  162DOPC    HS19547   0.292   6.312   6.632 -0.8585  0.4697  2.1573
  162DOPC   O2119548   0.494   6.260   6.586 -0.7608  0.0553 -0.1174
  162DOPC   C2119549   0.451   6.171   6.495  0.6070 -0.1742 -0.4944
  162DOPC   O2219550   0.338   6.168   6.450  0.3425 -0.3628 -0.1449
  162DOPC   C2219551   0.573   6.078   6.475  0.2626  0.6588 -0.7498
  162DOPC   H2R19552   0.606   6.024   6.567 -1.3703 -1.1453 -1.1699
  162DOPC   H2S19553   0.656   6.146   6.445 -0.4172  1.0557 -1.7778
  162DOPC    C319554   0.404   6.490   6.573  0.4735 -0.2780 -0.5364
  162DOPC    HX19555   0.499   6.539   6.606  0.3959  0.5493 -1.4906
  162DOPC    HY19556   0.324   6.556   6.612  0.7044  0.1349 -0.7561
  162DOPC   O3119557   0.396   6.484   6.430 -0.0123  0.0307 -0.1805
  162DOPC   C3119558   0.269   6.454   6.387 -0.5558  0.1561  0.1981
  162DOPC   O3219559   0.174   6.441   6.460 -0.4384 -0.7066 -0.2544
  162DOPC   C3219560   0.247   6.467   6.235 -0.8428  0.3224  0.1472
  162DOPC   H2X19561   0.175   6.390   6.202 -2.5145  1.0800  1.7916
  162DOPC   H2Y19562   0.180   6.556   6.233 -0.3496  0.6903 -0.3035
  162DOPC   C2319563   0.547   5.979   6.361  0.3096 -0.6506  1.0418
  162DOPC   H3R19564   0.495   6.024   6.274 -0.0823  1.1554  2.1514
  162DOPC   H3S19565   0.475   5.904   6.402 -0.0230 -1.5010 -0.9900
  162DOPC   C2419566   0.667   5.905   6.318  0.2424  0.1257  0.4751
  162DOPC   H4R19567   0.706   5.836   6.396 -2.0057  1.3941  2.8740
  162DOPC   H4S19568   0.743   5.982   6.292 -3.2419  4.4311  1.7773
  162DOPC   C2519569   0.628   5.807   6.196  0.5503  0.3245  0.2075
  162DOPC   H5R19570   0.571   5.860   6.116  0.5000  0.5311  0.3814
  162DOPC   H5S19571   0.568   5.718   6.225  0.3615 -0.0709 -1.2670
  162DOPC   C2619572   0.753   5.749   6.135  0.0232  0.0763  0.9106
  162DOPC   H6R19573   0.826   5.727   6.215  1.8543  1.0332 -0.4300
  162DOPC   H6S19574   0.799   5.835   6.081  0.0077 -0.9070 -0.7349
  162DOPC   C2719575   0.730   5.621   6.059  0.1389  0.7278  0.2954
  162DOPC   H7R19576   0.653   5.651   5.985 -0.4481  2.0807  1.4198
  162DOPC   H7S19577   0.688   5.533   6.112 -0.8732  1.0098 -0.0218
  162DOPC   C2819578   0.852   5.559   5.986  0.0130 -0.3481 -0.3452
  162DOPC   H8R19579   0.819   5.473   5.923  0.7653 -1.7675  1.1262
  162DOPC   H8S19580   0.929   5.526   6.059 -0.5004 -0.6013  0.0992
  162DOPC   C2919581   0.926   5.655   5.892  0.0848  0.3327 -0.3546
  162DOPC   H9R19582   1.001   5.717   5.942  0.2286  2.0841 -2.5752
  162DOPC  C21019583   0.879   5.680   5.771 -0.8105  0.2511 -0.2488
  162DOPC  H10R19584   0.930   5.754   5.707  1.3952 -0.5024  0.5690
  162DOPC  C21119585   0.771   5.600   5.707 -0.0595 -0.6692  0.0127
  162DOPC  H11R19586   0.708   5.673   5.652 -1.5662 -1.2521  0.8934
  162DOPC  H11S19587   0.693   5.549   5.769 -1.3649 -1.4883 -2.2027
  162DOPC  C21219588   0.825   5.506   5.597  0.1447  0.5782 -0.2818
  162DOPC  H12R19589   0.737   5.448   5.563  0.1404  0.3484  0.1190
  162DOPC  H12S19590   0.891   5.434   5.651 -1.4162  0.1718  1.1439
  162DOPC  C21319591   0.902   5.568   5.477  0.1642 -0.3073 -0.2749
  162DOPC  H13R19592   0.983   5.634   5.514  0.9978 -1.2572 -0.3371
  162DOPC  H13S19593   0.822   5.610   5.412 -1.3720  0.9218  2.2647
  162DOPC  C21419594   0.980   5.456   5.397 -0.0564 -0.5385 -0.3070
  162DOPC  H14R19595   0.913   5.369   5.383 -0.8518  0.0153  0.0000
  162DOPC  H14S19596   1.068   5.429   5.460  0.4426 -1.6309 -1.4338
  162DOPC  C21519597   1.031   5.515   5.262 -0.0186  0.1935 -0.2810
  162DOPC  H15R19598   1.047   5.624   5.279  3.3566 -0.2387  0.0056
  162DOPC  H15S19599   0.946   5.494   5.195 -1.8788  0.7099  1.8010
  162DOPC  C21619600   1.160   5.451   5.205  0.0405  0.5807  0.2283
  162DOPC  H16R19601   1.150   5.341   5.216 -1.2267  0.1402 -3.7522
  162DOPC  H16S19602   1.246   5.490   5.263 -0.7768 -0.0410  1.9270
  162DOPC  C21719603   1.166   5.495   5.059 -0.2359 -0.0055 -0.2149
  162DOPC  H17R19604   1.178   5.605   5.053  0.6137  0.2594  3.7030
  162DOPC  H17S19605   1.073   5.471   5.003 -0.6466 -0.9496  0.8281
  162DOPC  C21819606   1.276   5.434   4.971 -0.7675 -0.0658  0.1945
  162DOPC  H18R19607   1.332   5.511   4.913 -1.2750  1.5405  1.7587
  162DOPC  H18S19608   1.228   5.366   4.897  1.4655 -2.3911  0.7282
  162DOPC  H18T19609   1.359   5.375   5.015  1.0452  1.4175 -1.0165
  162DOPC   C3319610   0.371   6.477   6.148 -0.3597  0.7290 -0.1107
  162DOPC   H3X19611   0.431   6.386   6.164  0.1088  0.8179 -1.2497
  162DOPC   H3Y19612   0.430   6.564   6.185  0.0892 -0.0678  1.0998
  162DOPC   C3419613   0.341   6.485   5.998 -0.1825  0.0919 -0.2187
  162DOPC   H4X19614   0.435   6.481   5.938 -0.3642  2.6497 -0.7941
  162DOPC   H4Y19615   0.307   6.589   5.978  0.1909  0.4980  1.1429
  162DOPC   C3519616   0.238   6.374   5.952  0.4041 -0.3943  0.0009
  162DOPC   H5X19617   0.139   6.406   5.991  0.6088 -1.7105  1.7286
  162DOPC   H5Y19618   0.272   6.279   5.997 -0.5501 -0.3242  0.9280
  162DOPC   C3619619   0.226   6.344   5.806 -0.3395 -0.2326  0.6961
  162DOPC   H6X19620   0.177   6.424   5.746 -0.1393  0.3563  1.3033
  162DOPC   H6Y19621   0.335   6.346   5.781 -0.3376  0.1005  0.7202
  162DOPC   C3719622   0.167   6.202   5.755  0.6716 -0.3838  0.3642
  162DOPC   H7X19623   0.215   6.126   5.820 -0.5306 -1.8383 -0.4066
  162DOPC   H7Y19624   0.059   6.214   5.777  0.8665  1.1120  0.6233
  162DOPC   C3819625   0.191   6.190   5.607  0.7022 -0.4123 -0.9818
  162DOPC   H8X19626   0.297   6.211   5.580  0.1257  3.1914 -0.9112
  162DOPC   H8Y19627   0.146   6.276   5.552  1.4731  0.0713 -0.8744
  162DOPC   C3919628   0.166   6.052   5.571 -0.7970  0.0088  1.0260
  162DOPC   H9X19629   0.228   5.976   5.621 -0.7999 -1.5851 -1.2429
  162DOPC  C31019630   0.073   6.006   5.487  0.5443  0.4830  0.7635
  162DOPC  H10X19631   0.081   5.899   5.461  0.2466  0.8532 -1.0145
  162DOPC  C31119632  -0.037   6.087   5.416 -0.1152 -0.8050 -0.4839
  162DOPC  H11X19633  -0.022   6.098   5.306  0.1508  0.0509 -0.3680
  162DOPC  H11Y19634  -0.058   6.185   5.463 -0.9518 -1.3400  0.2827
  162DOPC  C31219635  -0.170   6.000   5.424 -0.0502 -0.4148  0.0292
  162DOPC  H12X19636  -0.254   6.061   5.385 -0.1505 -0.6300 -0.0944
  162DOPC  H12Y19637  -0.189   5.986   5.532  0.0028  0.7195  0.1981
  162DOPC  C31319638  -0.162   5.874   5.340 -0.1931 -0.1226  1.2803
  162DOPC  H13X19639  -0.149   5.895   5.232  1.5192 -1.5259  1.1564
  162DOPC  H13Y19640  -0.067   5.820   5.364  1.4418  1.3702 -1.3533
  162DOPC  C31419641  -0.286   5.785   5.360 -0.0567 -0.0943  0.6920
  162DOPC  H14X19642  -0.266   5.679   5.337  1.1318 -0.2548  2.2568
  162DOPC  H14Y19643  -0.303   5.788   5.470  2.3094  0.8755  1.0959
  162DOPC  C31519644  -0.413   5.837   5.288  0.3733  0.0679  0.2957
  162DOPC  H15X19645  -0.404   5.832   5.177  2.1561 -2.0170  0.4706
  162DOPC  H15Y19646  -0.426   5.943   5.318  1.2966 -0.1221  1.4403
  162DOPC  C31619647  -0.546   5.764   5.322 -0.0331  0.4696  0.0805
  162DOPC  H16X19648  -0.556   5.770   5.432  0.3503 -0.9920  0.2191
  162DOPC  H16Y19649  -0.631   5.820   5.277 -1.0758  0.9101  2.4849
  162DOPC  C31719650  -0.541   5.618   5.269  0.1869 -0.3944 -0.1431
  162DOPC  H17X19651  -0.492   5.615   5.170  0.1599 -0.2407 -0.1618
  162DOPC  H17Y19652  -0.484   5.546   5.331  0.5006  1.0757  1.3697
  162DOPC  C31819653  -0.678   5.548   5.245 -0.6625 -0.5004 -0.1811
  162DOPC  H18X19654  -0.654   5.445   5.211  1.8066  0.5027 -1.8197
  162DOPC  H18Y19655  -0.730   5.543   5.343  0.0050 -1.6882  0.1330
  162DOPC  H18Z19656  -0.732   5.598   5.162  2.5174  0.1792 -2.0353
  163DOPC     N19657   6.774   4.402   7.404 -0.0318  0.2903 -0.4331
  163DOPC   C1219658   6.813   4.462   7.270 -0.3061  0.4855 -0.1560
  163DOPC  H12A19659   6.904   4.519   7.287 -0.8274  1.5845 -0.9346
  163DOPC  H12B19660   6.736   4.537   7.258 -1.5855 -0.4524  1.7136
  163DOPC   C1319661   6.860   4.292   7.454  0.1980  0.1720  0.0524
  163DOPC  H13A19662   6.905   4.233   7.375  0.4947 -0.2641  0.5448
  163DOPC  H13B19663   6.940   4.340   7.509 -1.9095  2.6869  1.1341
  163DOPC  H13C19664   6.803   4.229   7.520 -1.2809 -0.1123 -1.4190
  163DOPC   C1419665   6.630   4.352   7.393 -0.0860  0.0940  0.0266
  163DOPC  H14A19666   6.575   4.424   7.334 -1.5544 -0.2692  0.8996
  163DOPC  H14B19667   6.618   4.263   7.333 -0.4506  0.6249 -0.7089
  163DOPC  H14C19668   6.573   4.359   7.484  0.9251  0.0145  0.6780
  163DOPC   C1519669   6.771   4.502   7.511  0.0472 -0.1453 -0.1343
  163DOPC  H15A19670   6.761   4.452   7.607 -0.5472 -1.8505 -1.0360
  163DOPC  H15B19671   6.680   4.560   7.512 -0.5209 -1.0252  0.4040
  163DOPC  H15C19672   6.847   4.579   7.510  0.7986 -0.8389 -2.2842
  163DOPC   C1119673   6.834   4.376   7.139 -0.4082  0.0719 -0.7737
  163DOPC  H11A19674   6.732   4.335   7.117 -0.0362 -2.1077  1.1139
  163DOPC  H11B19675   6.858   4.447   7.057 -0.5063  2.0394  0.8255
  163DOPC     P19676   6.956   4.161   7.057 -0.0132 -0.2349  0.1072
  163DOPC   O1319677   6.881   4.048   7.117  0.7848 -0.6893  0.0097
  163DOPC   O1419678   7.103   4.142   7.043  0.0604  0.2637 -0.3741
  163DOPC   O1219679   6.930   4.269   7.163  0.2345 -0.5348 -0.7489
  163DOPC   O1119680   6.887   4.199   6.922  0.1657 -0.6638 -0.4974
  163DOPC    C119681   6.951   4.262   6.813  0.1874  0.1509  0.1614
  163DOPC    HA19682   7.002   4.183   6.755  1.2109 -0.8103  2.2632
  163DOPC    HB19683   7.025   4.338   6.846 -0.1373  0.3228  0.5006
  163DOPC    C219684   6.852   4.331   6.720  0.3416  0.5332 -0.0915
  163DOPC    HS19685   6.915   4.346   6.629 -0.6310 -1.4016 -1.1353
  163DOPC   O2119686   6.796   4.452   6.780 -0.1558  0.1567 -0.0962
  163DOPC   C2119687   6.857   4.564   6.751 -0.2424  0.1070 -0.7362
  163DOPC   O2219688   6.961   4.572   6.688  0.0807  0.8129  0.5548
  163DOPC   C2219689   6.780   4.685   6.804 -0.4884 -0.6563  0.5785
  163DOPC   H2R19690   6.839   4.778   6.792 -0.5470 -0.8433 -1.5279
  163DOPC   H2S19691   6.755   4.669   6.911 -2.0392 -0.8259  0.2262
  163DOPC    C319692   6.741   4.230   6.691  0.8173 -0.4770 -0.3859
  163DOPC    HX19693   6.659   4.248   6.765  0.3437  2.0836 -1.4059
  163DOPC    HY19694   6.776   4.127   6.709 -1.1592 -0.9275  1.2343
  163DOPC   O3119695   6.683   4.253   6.556  0.1629  0.8165  0.6155
  163DOPC   C3119696   6.559   4.301   6.538  0.6736 -0.7796 -0.0721
  163DOPC   O3219697   6.479   4.321   6.628  0.3067 -0.3092  0.6325
  163DOPC   C3219698   6.531   4.326   6.391 -0.2645  0.6244  0.6703
  163DOPC   H2X19699   6.628   4.362   6.349  0.4033 -1.3475  0.4429
  163DOPC   H2Y19700   6.499   4.232   6.341 -0.3411  0.5329  0.8902
  163DOPC   C2319701   6.650   4.714   6.731  0.3296  0.5340  0.1625
  163DOPC   H3R19702   6.581   4.719   6.817  1.1344  0.3135  0.8331
  163DOPC   H3S19703   6.614   4.628   6.670  1.4803  1.3641 -1.7959
  163DOPC   C2419704   6.648   4.836   6.641 -1.1773  0.0306 -0.0891
  163DOPC   H4R19705   6.698   4.923   6.688 -1.5324 -1.4067  3.2208
  163DOPC   H4S19706   6.546   4.867   6.608 -1.5973 -0.8885  0.3005
  163DOPC   C2519707   6.731   4.822   6.508  0.6196  0.6607  0.7355
  163DOPC   H5R19708   6.833   4.787   6.531  0.3934 -0.6218 -0.1439
  163DOPC   H5S19709   6.728   4.919   6.453  0.0819 -0.3080 -1.0082
  163DOPC   C2619710   6.689   4.712   6.410 -0.8215  0.3017  0.0644
  163DOPC   H6R19711   6.585   4.723   6.374 -0.8382 -0.9007 -0.2959
  163DOPC   H6S19712   6.697   4.624   6.477 -0.3314  0.0399 -0.3252
  163DOPC   C2719713   6.784   4.684   6.286 -0.6327 -0.2347 -0.1108
  163DOPC   H7R19714   6.764   4.586   6.239 -0.4167  1.1711 -3.3840
  163DOPC   H7S19715   6.889   4.667   6.318 -0.9198  1.7578  2.1649
  163DOPC   C2819716   6.774   4.791   6.173 -0.0439 -0.3146 -0.2124
  163DOPC   H8R19717   6.774   4.889   6.224  1.5463 -0.8967  0.9805
  163DOPC   H8S19718   6.675   4.766   6.130 -0.3208  1.7094 -0.8376
  163DOPC   C2919719   6.883   4.782   6.073  0.1345 -0.4531  1.0205
  163DOPC   H9R19720   6.976   4.834   6.101  0.9467 -1.2125 -0.1814
  163DOPC  C21019721   6.875   4.719   5.946 -0.1888 -1.3554  0.4288
  163DOPC  H10R19722   6.959   4.725   5.875  0.2945 -3.1822  0.8118
  163DOPC  C21119723   6.759   4.647   5.884  0.4138  0.4313  0.2707
  163DOPC  H11R19724   6.722   4.708   5.799  1.2142 -0.4749 -0.7643
  163DOPC  H11S19725   6.674   4.649   5.955 -0.9094  1.1428 -1.2687
  163DOPC  C21219726   6.795   4.498   5.853  0.0652  0.2527  0.0090
  163DOPC  H12R19727   6.701   4.440   5.868  0.3091 -0.7284 -1.9620
  163DOPC  H12S19728   6.866   4.462   5.930 -1.0395 -1.0207  0.4731
  163DOPC  C21319729   6.837   4.470   5.705  0.2395  0.0954 -0.0583
  163DOPC  H13R19730   6.929   4.528   5.683 -0.2367  0.0235 -2.5786
  163DOPC  H13S19731   6.765   4.510   5.631  0.1619 -0.4375 -0.2802
  163DOPC  C21419732   6.851   4.319   5.686  0.1158 -0.1032 -0.5355
  163DOPC  H14R19733   6.750   4.276   5.667  0.2120 -0.5214 -0.1051
  163DOPC  H14S19734   6.878   4.278   5.785  1.7079 -1.6797 -1.5443
  163DOPC  C21519735   6.946   4.275   5.573  0.7623  0.0372 -1.0635
  163DOPC  H15R19736   7.050   4.305   5.598 -0.0160  0.6113  1.9359
  163DOPC  H15S19737   6.910   4.334   5.486  1.6201 -0.1069 -1.5218
  163DOPC  C21619738   6.940   4.123   5.563  0.5448  0.5172  0.4291
  163DOPC  H16R19739   6.836   4.083   5.566  1.0826 -1.3966 -2.1184
  163DOPC  H16S19740   6.993   4.080   5.650  0.5988  2.1190  1.2152
  163DOPC  C21719741   7.004   4.064   5.440 -0.0984 -0.2310  0.5191
  163DOPC  H17R19742   7.100   4.116   5.423 -0.3964 -0.2003 -1.1859
  163DOPC  H17S19743   6.930   4.087   5.361  1.4771 -1.8093 -1.5135
  163DOPC  C21819744   7.027   3.912   5.441 -0.0574  0.2739 -0.1998
  163DOPC  H18R19745   7.097   3.886   5.523  0.2182 -2.8385 -1.2870
  163DOPC  H18S19746   7.070   3.874   5.346  0.8438 -1.6509  0.9175
  163DOPC  H18T19747   6.931   3.856   5.452 -0.4766  0.9477 -0.3612
  163DOPC   C3319748   6.430   4.442   6.353  0.8155 -0.1736  0.5381
  163DOPC   H3X19749   6.464   4.529   6.413  0.3481 -1.4333  2.7290
  163DOPC   H3Y19750   6.326   4.412   6.376  0.6183  0.6585  0.7514
  163DOPC   C3419751   6.428   4.468   6.202  0.3223  0.0810  0.1182
  163DOPC   H4X19752   6.431   4.366   6.159  0.2357  0.3055 -0.4242
  163DOPC   H4Y19753   6.517   4.523   6.166  0.1650  1.2567  1.4358
  163DOPC   C3519754   6.313   4.548   6.143  0.3762  0.4191 -0.1334
  163DOPC   H5X19755   6.293   4.645   6.195  2.3855  0.5198  0.5289
  163DOPC   H5Y19756   6.223   4.486   6.162  3.0568 -3.5294  0.7946
  163DOPC   C3619757   6.328   4.584   5.990 -0.7208 -0.3067 -0.6115
  163DOPC   H6X19758   6.267   4.673   5.964  0.3271  0.3028 -1.0508
  163DOPC   H6Y19759   6.434   4.609   5.970 -0.3838 -0.4685  0.8684
  163DOPC   C3719760   6.285   4.481   5.896 -0.5386  1.0846  0.3313
  163DOPC   H7X19761   6.346   4.389   5.912 -1.2013  0.2674 -1.4881
  163DOPC   H7Y19762   6.179   4.457   5.920 -0.7936  0.9421 -0.8595
  163DOPC   C3819763   6.290   4.517   5.744 -0.7551 -0.0663  0.0414
  163DOPC   H8X19764   6.394   4.543   5.717 -0.1988 -3.0097 -1.0472
  163DOPC   H8Y19765   6.229   4.608   5.728 -1.1675  0.1775  2.5067
  163DOPC   C3919766   6.246   4.403   5.650  0.1385  0.4293 -0.1586
  163DOPC   H9X19767   6.139   4.393   5.629 -0.7245  2.0060  2.8420
  163DOPC  C31019768   6.333   4.330   5.575  0.0543  0.1507  0.0504
  163DOPC  H10X19769   6.294   4.252   5.509 -0.8475  2.4056 -2.2772
  163DOPC  C31119770   6.482   4.340   5.582 -0.5708  0.0402  0.2465
  163DOPC  H11X19771   6.525   4.297   5.676  1.2903 -1.3250 -1.1511
  163DOPC  H11Y19772   6.513   4.447   5.579 -2.7985  0.7098 -2.0249
  163DOPC  C31219773   6.553   4.281   5.451 -0.0894 -0.0613 -0.2678
  163DOPC  H12X19774   6.658   4.307   5.474 -0.4825  0.9611  0.4315
  163DOPC  H12Y19775   6.505   4.322   5.359  0.8802 -0.0841 -0.7972
  163DOPC  C31319776   6.544   4.127   5.455  0.7485  0.1649  0.4853
  163DOPC  H13X19777   6.590   4.088   5.548  3.1782  1.7178  0.0197
  163DOPC  H13Y19778   6.437   4.101   5.462  0.7714 -0.8527 -1.9074
  163DOPC  C31419779   6.612   4.072   5.331 -0.0551  0.3444 -0.3622
  163DOPC  H14X19780   6.583   4.139   5.248 -3.2667  0.4354  0.6752
  163DOPC  H14Y19781   6.723   4.068   5.332 -0.0099  1.1013 -1.1769
  163DOPC  C31519782   6.564   3.931   5.291 -0.4356 -0.1360  0.1963
  163DOPC  H15X19783   6.612   3.917   5.191 -1.2951  0.6095 -0.3302
  163DOPC  H15Y19784   6.454   3.944   5.281 -0.5937 -1.1481  0.5309
  163DOPC  C31619785   6.593   3.832   5.397 -0.2706  0.2246 -0.2910
  163DOPC  H16X19786   6.699   3.799   5.403 -0.6135 -0.7127  0.9882
  163DOPC  H16Y19787   6.567   3.860   5.502 -1.2142 -0.3056 -0.3702
  163DOPC  C31719788   6.520   3.704   5.372 -0.0515  0.2142  0.1519
  163DOPC  H17X19789   6.558   3.652   5.281  1.5215  1.3785  0.0953
  163DOPC  H17Y19790   6.541   3.627   5.449  2.3965 -0.5817 -1.1985
  163DOPC  C31819791   6.363   3.719   5.385  0.5651  0.2713  0.2985
  163DOPC  H18X19792   6.330   3.770   5.292  1.5342 -0.7476 -0.6333
  163DOPC  H18Y19793   6.301   3.629   5.406 -1.8060  1.0640 -2.6209
  163DOPC  H18Z19794   6.353   3.797   5.464  2.6309  0.3893  0.4991
  164DOPC     N19795   2.286   0.490   6.906 -0.0528 -0.2531  0.0792
  164DOPC   C1219796   2.281   0.358   6.832  0.6114  0.4248  0.0168
  164DOPC  H12A19797   2.363   0.292   6.857  0.4706  0.1207 -0.3084
  164DOPC  H12B19798   2.291   0.374   6.725 -3.0430 -1.1612 -0.7259
  164DOPC   C1319799   2.194   0.591   6.837  0.1604  0.3903  0.3171
  164DOPC  H13A19800   2.100   0.545   6.812 -0.1235  1.1359 -0.0025
  164DOPC  H13B19801   2.179   0.685   6.888 -2.6237 -0.0945  0.5046
  164DOPC  H13C19802   2.239   0.608   6.740  0.0244  0.3799  0.2523
  164DOPC   C1419803   2.433   0.547   6.904  0.3616 -0.1448 -0.1876
  164DOPC  H14A19804   2.500   0.475   6.950 -0.7272  0.1673  2.0108
  164DOPC  H14B19805   2.468   0.583   6.809 -1.3171  0.4476 -0.6014
  164DOPC  H14C19806   2.436   0.629   6.975  3.7249 -0.6769  0.4813
  164DOPC   C1519807   2.247   0.475   7.047  0.1054  0.0609  0.1640
  164DOPC  H15A19808   2.152   0.423   7.049 -0.1541  0.5489  0.8700
  164DOPC  H15B19809   2.238   0.572   7.093  0.9178 -0.6008  1.7822
  164DOPC  H15C19810   2.313   0.416   7.108  0.3609  0.5648  0.3819
  164DOPC   C1119811   2.169   0.262   6.860  0.2145 -0.3997 -0.0259
  164DOPC  H11A19812   2.189   0.165   6.809 -0.9390  0.3864 -2.1155
  164DOPC  H11B19813   2.165   0.239   6.968  0.7405  1.2221  0.3586
  164DOPC     P19814   1.993   0.341   6.675 -0.1818  0.1001  0.3903
  164DOPC   O1319815   1.868   0.258   6.654  0.1450  0.0474 -0.2566
  164DOPC   O1419816   2.102   0.319   6.587  0.2488 -0.1349  0.4549
  164DOPC   O1219817   2.037   0.320   6.824 -0.0824 -0.7653 -0.4091
  164DOPC   O1119818   1.959   0.489   6.677  0.3132 -0.1905 -0.4788
  164DOPC    C119819   1.822   0.543   6.706 -1.0292  0.3762 -0.3107
  164DOPC    HA19820   1.826   0.612   6.793 -0.3847  1.3533 -1.0902
  164DOPC    HB19821   1.742   0.471   6.733 -0.0492  0.1251  2.1499
  164DOPC    C219822   1.784   0.623   6.581  0.0145  0.2857 -1.3283
  164DOPC    HS19823   1.684   0.670   6.598 -1.6804 -3.5029  0.2404
  164DOPC   O2119824   1.781   0.546   6.464  0.1605  0.1508 -0.0746
  164DOPC   C2119825   1.682   0.462   6.447  0.2844  0.9283  0.5409
  164DOPC   O2219826   1.582   0.456   6.518  0.0425 -0.0869  1.0713
  164DOPC   C2219827   1.701   0.393   6.312  0.4488  0.6875 -0.4558
  164DOPC   H2R19828   1.655   0.292   6.319  2.1677 -0.0799  0.3583
  164DOPC   H2S19829   1.810   0.377   6.303  0.4768  0.7364 -0.2296
  164DOPC    C319830   1.894   0.730   6.574 -0.0704 -0.7755  0.1501
  164DOPC    HX19831   1.993   0.681   6.560  0.6533  0.9485 -0.9939
  164DOPC    HY19832   1.908   0.792   6.666 -0.0518 -1.3588  0.5511
  164DOPC   O3119833   1.880   0.812   6.453  0.2292 -0.2741  0.5391
  164DOPC   C3119834   1.781   0.897   6.457  0.3680 -0.3102  0.5176
  164DOPC   O3219835   1.691   0.906   6.541 -0.3827  0.0895  0.4535
  164DOPC   C3219836   1.779   0.982   6.329 -0.0498  0.5568 -0.2275
  164DOPC   H2X19837   1.722   1.077   6.338  0.8769  1.0585  0.6972
  164DOPC   H2Y19838   1.885   1.010   6.310  0.4980 -0.9086  0.5087
  164DOPC   C2319839   1.659   0.483   6.202  0.7317  0.1572  0.2047
  164DOPC   H3R19840   1.706   0.583   6.207 -0.8942  0.9565  0.2749
  164DOPC   H3S19841   1.549   0.499   6.204  0.5167 -1.2722  0.8010
  164DOPC   C2419842   1.711   0.423   6.074 -0.0951 -0.4083  0.5429
  164DOPC   H4R19843   1.638   0.349   6.035 -1.1060  1.5414 -1.5173
  164DOPC   H4S19844   1.807   0.370   6.090 -0.7195 -0.8642  3.3039
  164DOPC   C2519845   1.709   0.519   5.954  0.1592  0.9249 -0.0874
  164DOPC   H5R19846   1.781   0.598   5.987 -0.7886  0.8992  2.2620
  164DOPC   H5S19847   1.606   0.559   5.942 -1.7065 -3.1373  0.9749
  164DOPC   C2619848   1.767   0.447   5.825  0.6546 -0.0323 -0.0433
  164DOPC   H6R19849   1.712   0.353   5.806 -1.5640  0.8333  1.6099
  164DOPC   H6S19850   1.871   0.421   5.851  0.0075 -0.1591  2.6680
  164DOPC   C2719851   1.758   0.541   5.703  0.4397  1.2777  0.3041
  164DOPC   H7R19852   1.831   0.622   5.729  0.9029  1.1375 -0.5223
  164DOPC   H7S19853   1.661   0.592   5.684  0.0563  0.2581 -0.5513
  164DOPC   C2819854   1.795   0.483   5.567 -0.5870 -0.0596 -0.0621
  164DOPC   H8R19855   1.892   0.432   5.586  0.1121  1.4111  0.4444
  164DOPC   H8S19856   1.814   0.565   5.496 -0.2279  1.9551  2.2405
  164DOPC   C2919857   1.692   0.390   5.512  0.3370  0.5649 -0.4745
  164DOPC   H9R19858   1.667   0.302   5.574  0.7465 -1.0720 -2.5361
  164DOPC  C21019859   1.631   0.390   5.390  0.3122 -0.0283  0.2095
  164DOPC  H10R19860   1.563   0.304   5.381  1.9113 -1.4548  1.1877
  164DOPC  C21119861   1.675   0.478   5.277 -0.0444  0.2536  0.0347
  164DOPC  H11R19862   1.680   0.584   5.311 -3.3980  0.7789 -0.7818
  164DOPC  H11S19863   1.596   0.475   5.199  0.0532 -0.6643 -0.0310
  164DOPC  C21219864   1.808   0.427   5.210  0.4353  0.2809  0.2507
  164DOPC  H12R19865   1.873   0.393   5.294  0.4284 -2.0173 -0.6187
  164DOPC  H12S19866   1.857   0.514   5.161  0.6796 -0.3273 -0.5952
  164DOPC  C21319867   1.776   0.313   5.116 -0.0532 -0.5492  0.2877
  164DOPC  H13R19868   1.710   0.356   5.038 -0.3026  0.6097  1.1044
  164DOPC  H13S19869   1.726   0.235   5.176  0.3574  0.0253  1.4076
  164DOPC  C21419870   1.895   0.266   5.036 -1.0041 -0.3501  0.3941
  164DOPC  H14R19871   1.959   0.204   5.103  3.8250  1.7787 -1.7100
  164DOPC  H14S19872   1.962   0.351   5.009  1.7979 -2.4601  0.2196
  164DOPC  C21519873   1.845   0.181   4.917 -0.4057 -0.3814 -0.6125
  164DOPC  H15R19874   1.767   0.233   4.858  0.0666 -0.7320 -1.5766
  164DOPC  H15S19875   1.800   0.095   4.971 -0.0392 -0.4875 -0.4714
  164DOPC  C21619876   1.957   0.136   4.818  0.4439  0.3284  0.0592
  164DOPC  H16R19877   2.055   0.119   4.867  1.7095 -0.7091 -2.6224
  164DOPC  H16S19878   1.976   0.216   4.743  1.1037  0.1575  0.0402
  164DOPC  C21719879   1.914   0.021   4.731  0.0625 -0.3835 -0.5649
  164DOPC  H17R19880   1.853  -0.047   4.794  0.2437 -1.0118 -1.0593
  164DOPC  H17S19881   2.008  -0.036   4.711  0.7514  0.9076 -1.1572
  164DOPC  C21819882   1.842   0.050   4.604  0.8363  0.1741  0.0555
  164DOPC  H18R19883   1.741   0.087   4.632  0.4999  1.0113 -2.0915
  164DOPC  H18S19884   1.848  -0.042   4.542 -1.1465 -0.0595  0.1515
  164DOPC  H18T19885   1.882   0.141   4.556 -1.9165  1.1989 -0.4645
  164DOPC   C3319886   1.732   0.901   6.207  0.0765  0.2476 -0.2178
  164DOPC   H3X19887   1.737   0.792   6.229  0.2830  0.5972  1.6430
  164DOPC   H3Y19888   1.804   0.926   6.126 -0.4824 -0.1807 -0.8596
  164DOPC   C3419889   1.591   0.940   6.168  0.6785 -1.0356 -0.6410
  164DOPC   H4X19890   1.581   1.050   6.164 -0.2014 -1.0150  1.1289
  164DOPC   H4Y19891   1.509   0.919   6.240 -1.3586  2.7773 -1.5720
  164DOPC   C3519892   1.549   0.863   6.047  0.8884  0.1380 -0.1329
  164DOPC   H5X19893   1.548   0.755   6.072 -0.6061  0.2800  0.5061
  164DOPC   H5Y19894   1.628   0.882   5.971  0.0474  1.0209 -0.8205
  164DOPC   C3619895   1.416   0.905   5.984  1.0481  0.2173  0.7951
  164DOPC   H6X19896   1.332   0.898   6.057 -0.2490  0.2255 -0.6516
  164DOPC   H6Y19897   1.417   1.013   5.960  0.1822  0.3223  1.1679
  164DOPC   C3719898   1.369   0.818   5.866 -0.2556  0.2405 -0.1536
  164DOPC   H7X19899   1.290   0.877   5.814  0.3982  0.5694 -0.8003
  164DOPC   H7Y19900   1.456   0.813   5.797 -0.1166 -2.6784  0.1294
  164DOPC   C3819901   1.331   0.670   5.910 -0.0116 -0.1669 -0.2535
  164DOPC   H8X19902   1.310   0.661   6.018 -1.4498 -2.9484 -0.6691
  164DOPC   H8Y19903   1.409   0.594   5.887 -1.1777 -1.1155 -1.2579
  164DOPC   C3919904   1.197   0.617   5.847  0.2996 -0.3386 -0.1130
  164DOPC   H9X19905   1.105   0.641   5.901  0.8844  2.1895 -0.0883
  164DOPC  C31019906   1.175   0.588   5.717  0.2072 -0.4112 -0.4282
  164DOPC  H10X19907   1.069   0.581   5.688 -0.0300  2.2693 -0.4917
  164DOPC  C31119908   1.262   0.557   5.595 -0.2947 -0.2454 -0.2025
  164DOPC  H11X19909   1.226   0.469   5.539  1.1249 -1.1029  0.1704
  164DOPC  H11Y19910   1.370   0.536   5.611 -0.2308 -0.1902 -0.5595
  164DOPC  C31219911   1.247   0.671   5.490  0.4279 -0.7807 -0.0209
  164DOPC  H12X19912   1.282   0.765   5.539 -0.9900 -0.1236 -0.2296
  164DOPC  H12Y19913   1.141   0.691   5.464  0.3304 -2.1513 -0.7214
  164DOPC  C31319914   1.328   0.646   5.367 -1.0338 -0.5679 -0.0287
  164DOPC  H13X19915   1.431   0.618   5.399 -0.1077  0.3349 -2.0258
  164DOPC  H13Y19916   1.287   0.554   5.318 -0.7540  0.4334 -2.2499
  164DOPC  C31419917   1.338   0.751   5.261 -0.1377 -0.3237 -0.5618
  164DOPC  H14X19918   1.424   0.731   5.194 -1.0288  0.4889 -1.9982
  164DOPC  H14Y19919   1.354   0.848   5.312  2.0329  0.1499 -2.0281
  164DOPC  C31519920   1.207   0.757   5.180  0.2084  0.2314  0.5423
  164DOPC  H15X19921   1.120   0.741   5.247 -1.6501  1.5183 -1.4209
  164DOPC  H15Y19922   1.193   0.673   5.108 -1.5990  2.4120 -1.8361
  164DOPC  C31619923   1.193   0.889   5.104  0.3804  0.0681 -0.1926
  164DOPC  H16X19924   1.179   0.968   5.181 -0.7369 -2.6623  2.5975
  164DOPC  H16Y19925   1.288   0.911   5.051 -1.4046  1.1148 -3.2251
  164DOPC  C31719926   1.086   0.894   5.004  0.0931 -0.4548  0.0662
  164DOPC  H17X19927   0.994   0.842   5.036  0.4015 -0.8884  0.2639
  164DOPC  H17Y19928   1.054   1.000   4.995  1.3349 -0.1656 -1.5254
  164DOPC  C31819929   1.121   0.838   4.862 -0.1843 -0.0360  0.0557
  164DOPC  H18X19930   1.022   0.805   4.823  0.7821 -0.6131 -2.0474
  164DOPC  H18Y19931   1.171   0.921   4.808  1.3251  1.5448  3.5621
  164DOPC  H18Z19932   1.187   0.749   4.864  3.8473  2.6954 -0.3962
  165DOPC     N19933   6.750   0.921   7.177  0.5671 -0.3461  0.2848
  165DOPC   C1219934   6.777   0.979   7.038 -0.1480 -0.3751  0.2656
  165DOPC  H12A19935   6.835   0.906   6.982  0.8291  0.7133 -0.1634
  165DOPC  H12B19936   6.840   1.065   7.054 -1.5954  0.8319 -0.2860
  165DOPC   C1319937   6.686   1.027   7.270  0.0391  0.5188  0.7404
  165DOPC  H13A19938   6.587   1.053   7.234 -0.1145  0.0093  0.7908
  165DOPC  H13B19939   6.677   0.979   7.366  1.9983 -0.5189  0.4427
  165DOPC  H13C19940   6.753   1.110   7.285  1.2645 -0.1526 -0.7586
  165DOPC   C1419941   6.881   0.876   7.233  0.2033  0.1012  0.2992
  165DOPC  H14A19942   6.920   0.802   7.164  0.3301 -0.3261  0.8202
  165DOPC  H14B19943   6.951   0.954   7.258  1.9841 -1.9221  1.9565
  165DOPC  H14C19944   6.864   0.821   7.324 -0.4108 -0.4133 -0.1146
  165DOPC   C1519945   6.659   0.799   7.170 -0.2806  0.6649  0.5759
  165DOPC  H15A19946   6.707   0.726   7.107 -0.5115 -1.4936  2.7449
  165DOPC  H15B19947   6.562   0.817   7.124  0.2498  0.9877 -0.4410
  165DOPC  H15C19948   6.646   0.746   7.263 -0.0153 -3.5929 -1.5527
  165DOPC   C1119949   6.661   1.019   6.941  0.4122  0.1663  0.1608
  165DOPC  H11A19950   6.689   1.039   6.836  0.3040 -0.2471  0.0487
  165DOPC  H11B19951   6.587   0.936   6.944 -0.4283  0.8807  3.6768
  165DOPC     P19952   6.432   1.142   6.988 -0.1977 -0.2557 -0.1098
  165DOPC   O1319953   6.382   1.135   7.127  0.0362 -0.4774  0.2867
  165DOPC   O1419954   6.373   1.043   6.895  0.1225 -0.0028 -0.6738
  165DOPC   O1219955   6.595   1.141   6.993 -0.4063  0.2496  0.1709
  165DOPC   O1119956   6.390   1.272   6.929  1.0278  0.7833 -0.1868
  165DOPC    C119957   6.473   1.366   6.865 -0.6290 -0.2329  0.3130
  165DOPC    HA19958   6.583   1.351   6.873 -0.5327  0.6044  0.6788
  165DOPC    HB19959   6.462   1.470   6.903 -0.9174  0.3267 -1.2633
  165DOPC    C219960   6.444   1.379   6.715 -0.3937 -0.5549  0.4414
  165DOPC    HS19961   6.526   1.438   6.669  0.9866 -1.9752  0.9611
  165DOPC   O2119962   6.313   1.445   6.700 -0.1475 -0.1893  0.6727
  165DOPC   C2119963   6.300   1.519   6.588  0.6500  0.3812 -0.1340
  165DOPC   O2219964   6.389   1.556   6.517 -0.5668  0.3786  0.2416
  165DOPC   C2219965   6.145   1.542   6.561  0.2520 -0.2109  0.0234
  165DOPC   H2R19966   6.107   1.567   6.662 -0.4955  0.6863 -0.4624
  165DOPC   H2S19967   6.108   1.439   6.543  2.5935 -1.0669 -0.2661
  165DOPC    C319968   6.429   1.242   6.648  0.1872  0.0703  0.9361
  165DOPC    HX19969   6.340   1.191   6.690 -0.2581 -2.4302 -2.6042
  165DOPC    HY19970   6.515   1.175   6.669  0.5051  0.2442  0.2187
  165DOPC   O3119971   6.404   1.269   6.503  0.1433  0.1757 -0.2920
  165DOPC   C3119972   6.515   1.245   6.432  0.2252 -0.6048 -0.1970
  165DOPC   O3219973   6.627   1.227   6.478 -0.8696 -0.3276  0.3055
  165DOPC   C3219974   6.474   1.261   6.288  0.3017 -0.0168  0.0056
  165DOPC   H2X19975   6.481   1.163   6.236  1.8947 -0.2517  0.6030
  165DOPC   H2Y19976   6.367   1.281   6.268  0.6808 -1.2603 -4.5768
  165DOPC   C2319977   6.099   1.622   6.446 -0.8232 -0.1568 -0.3698
  165DOPC   H3R19978   6.129   1.729   6.454 -0.9497 -0.2439  1.8569
  165DOPC   H3S19979   5.988   1.625   6.447 -0.9978 -3.4377  0.3281
  165DOPC   C2419980   6.137   1.574   6.301  1.3332 -0.5672  0.4093
  165DOPC   H4R19981   6.086   1.475   6.303 -0.7802  0.4215  3.2941
  165DOPC   H4S19982   6.244   1.550   6.289  1.5845  0.8525 -0.4966
  165DOPC   C2519983   6.097   1.665   6.186  1.4954  0.4643  0.0046
  165DOPC   H5R19984   6.142   1.765   6.204  0.6518  1.0450 -1.0171
  165DOPC   H5S19985   5.987   1.678   6.189  1.1100 -2.1750 -0.5551
  165DOPC   C2619986   6.131   1.603   6.047  0.2847  0.1349  0.4997
  165DOPC   H6R19987   6.072   1.512   6.024  0.6212 -0.4490  1.8528
  165DOPC   H6S19988   6.239   1.577   6.046  0.6961  1.7348 -0.6312
  165DOPC   C2719989   6.114   1.709   5.939  0.4934  0.4251  0.4711
  165DOPC   H7R19990   6.130   1.810   5.983  0.2848 -1.0195  4.1352
  165DOPC   H7S19991   6.006   1.709   5.914  0.3868 -1.7113  0.7307
  165DOPC   C2819992   6.194   1.699   5.805 -0.0652 -0.1821 -0.2345
  165DOPC   H8R19993   6.154   1.776   5.735 -0.6785 -0.0104  0.3023
  165DOPC   H8S19994   6.161   1.599   5.771  0.0246  0.3649 -2.0463
  165DOPC   C2919995   6.337   1.722   5.817  0.4844  0.3408 -0.5942
  165DOPC   H9R19996   6.373   1.789   5.896  0.8091 -1.2460  0.6563
  165DOPC  C21019997   6.431   1.667   5.739 -0.3217  0.1341  0.7904
  165DOPC  H10R19998   6.537   1.687   5.765  0.5113 -2.3709 -0.4093
  165DOPC  C21119999   6.417   1.577   5.618 -0.3830 -1.1400 -0.4065
  165DOPC  H11R20000   6.361   1.489   5.658 -1.3666  0.1937  1.2778
  165DOPC  H11S20001   6.513   1.536   5.580 -0.7571 -1.3381 -1.1678
  165DOPC  C21220002   6.354   1.650   5.502  0.1157  0.5783  0.4565
  165DOPC  H12R20003   6.254   1.692   5.526  0.4012  0.3244  2.2648
  165DOPC  H12S20004   6.361   1.577   5.418 -0.2668  2.8682 -1.6676
  165DOPC  C21320005   6.423   1.773   5.455  0.4660  0.1688 -0.4230
  165DOPC  H13R20006   6.515   1.743   5.402  1.8136 -0.2883  2.0367
  165DOPC  H13S20007   6.451   1.823   5.550 -2.7342 -2.8208  2.3701
  165DOPC  C21420008   6.346   1.860   5.363 -0.2841  0.1071  0.2566
  165DOPC  H14R20009   6.414   1.942   5.332 -0.5654  0.0091 -0.6274
  165DOPC  H14S20010   6.253   1.894   5.414 -0.7235  0.2155 -0.6000
  165DOPC  C21520011   6.286   1.783   5.240 -0.1590 -0.1126 -0.6727
  165DOPC  H15R20012   6.182   1.752   5.264 -0.2050  0.8575  0.4698
  165DOPC  H15S20013   6.357   1.701   5.215  0.8741  0.1220  1.2862
  165DOPC  C21620014   6.291   1.867   5.111  0.1807  0.2520  0.0309
  165DOPC  H16R20015   6.253   1.804   5.028 -0.7161  2.0483 -0.9740
  165DOPC  H16S20016   6.394   1.901   5.087  0.3457 -0.6953 -0.6325
  165DOPC  C21720017   6.187   1.975   5.107 -0.1204 -0.4174  0.3207
  165DOPC  H17R20018   6.227   2.058   5.046 -0.4479 -1.9458 -2.1017
  165DOPC  H17S20019   6.173   2.021   5.208  0.9221  1.1811 -0.2212
  165DOPC  C21820020   6.050   1.931   5.047 -0.0494 -0.1738 -0.5626
  165DOPC  H18R20021   5.975   2.007   5.079  1.5673  0.4829  1.9389
  165DOPC  H18S20022   6.033   1.829   5.088 -0.6804  0.3439  0.4898
  165DOPC  H18T20023   6.056   1.924   4.936  0.7681 -1.9996 -0.4348
  165DOPC   C3320024   6.568   1.364   6.226  0.4594 -0.1532  0.3454
  165DOPC   H3X20025   6.675   1.337   6.237 -0.0136 -2.5172 -0.3022
  165DOPC   H3Y20026   6.551   1.459   6.282  2.2386 -0.5241  1.5974
  165DOPC   C3420027   6.534   1.389   6.077  0.2454 -0.4937  0.1013
  165DOPC   H4X20028   6.590   1.480   6.048  0.6856 -0.9287 -0.4156
  165DOPC   H4Y20029   6.423   1.399   6.072  0.4534  2.0480 -0.7018
  165DOPC   C3520030   6.581   1.280   5.979  0.1208 -0.3733  0.7650
  165DOPC   H5X20031   6.516   1.192   5.993 -0.3436 -0.3079 -0.8470
  165DOPC   H5Y20032   6.684   1.244   6.001  0.0995 -1.2004 -0.4062
  165DOPC   C3620033   6.575   1.319   5.830 -0.2158 -0.1795  0.6597
  165DOPC   H6X20034   6.469   1.346   5.810  0.5786  2.5435 -0.1784
  165DOPC   H6Y20035   6.652   1.393   5.801  0.7118 -1.2201  0.3790
  165DOPC   C3720036   6.593   1.188   5.745  0.0151  0.2208 -0.0638
  165DOPC   H7X20037   6.508   1.123   5.776  0.3629 -0.0440  0.3425
  165DOPC   H7Y20038   6.688   1.149   5.786 -1.4003 -0.9289  2.3207
  165DOPC   C3820039   6.584   1.221   5.599  0.8336  0.5821  0.1807
  165DOPC   H8X20040   6.676   1.280   5.579  0.8989  0.5962  0.5079
  165DOPC   H8Y20041   6.494   1.282   5.577  0.0279 -0.5949  0.1181
  165DOPC   C3920042   6.563   1.096   5.520  0.4163  0.0070 -0.5111
  165DOPC   H9X20043   6.503   1.027   5.581  0.8169  1.2440  1.3800
  165DOPC  C31020044   6.602   1.078   5.393  0.2349  0.1919 -0.7606
  165DOPC  H10X20045   6.566   0.986   5.344  0.4012 -0.2279 -0.1013
  165DOPC  C31120046   6.682   1.170   5.303  0.5451 -0.4529  0.1833
  165DOPC  H11X20047   6.778   1.122   5.272  0.9051  0.9782 -1.0107
  165DOPC  H11Y20048   6.719   1.257   5.361  1.3273 -0.4587 -0.2980
  165DOPC  C31220049   6.593   1.215   5.179 -0.0906  0.2087  0.5091
  165DOPC  H12X20050   6.535   1.130   5.136  0.4038 -0.2707  0.7720
  165DOPC  H12Y20051   6.669   1.250   5.106 -1.7085 -0.7412 -1.7802
  165DOPC  C31320052   6.489   1.326   5.226  0.0376  0.3552  0.8603
  165DOPC  H13X20053   6.419   1.275   5.297  0.2579  0.5786  1.2385
  165DOPC  H13Y20054   6.551   1.404   5.273  1.5487 -0.3212  0.0429
  165DOPC  C31420055   6.415   1.388   5.108 -0.2453  0.0360 -0.9521
  165DOPC  H14X20056   6.347   1.305   5.080  1.1632 -1.1258 -1.0861
  165DOPC  H14Y20057   6.353   1.467   5.155 -0.4819 -0.2973 -0.6899
  165DOPC  C31520058   6.513   1.437   5.000  0.2081  0.0070  0.2831
  165DOPC  H15X20059   6.572   1.350   4.964  0.4337 -0.7121  2.2960
  165DOPC  H15Y20060   6.585   1.506   5.047  0.4688  0.5209 -0.8500
  165DOPC  C31620061   6.453   1.506   4.880  0.0842  0.0923 -0.3640
  165DOPC  H16X20062   6.406   1.431   4.814  0.9661  0.9681 -2.0528
  165DOPC  H16Y20063   6.372   1.567   4.925  1.1301 -0.3440  2.3387
  165DOPC  C31720064   6.540   1.594   4.799 -0.2957 -0.2190 -0.0176
  165DOPC  H17X20065   6.644   1.557   4.799 -0.4933 -0.8050  0.7031
  165DOPC  H17Y20066   6.506   1.590   4.693 -2.4780 -0.3662  0.6200
  165DOPC  C31820067   6.536   1.747   4.844  0.3454  0.1692 -0.2385
  165DOPC  H18X20068   6.633   1.797   4.822  1.1845 -0.7343  1.2495
  165DOPC  H18Y20069   6.450   1.789   4.788  0.2100 -2.3103 -2.0683
  165DOPC  H18Z20070   6.526   1.750   4.954 -1.0743  0.7005 -0.3702
  166DOPC     N20071   6.599   2.025   6.815  0.0245  0.1592  0.2105
  166DOPC   C1220072   6.633   1.958   6.683 -0.1382 -0.2543  0.5624
  166DOPC  H12A20073   6.538   1.935   6.637  0.2308  2.7582 -1.9785
  166DOPC  H12B20074   6.680   1.863   6.705 -0.8092 -1.4328 -2.6045
  166DOPC   C1320075   6.490   1.947   6.883  0.1034 -0.1564 -1.0534
  166DOPC  H13A20076   6.535   1.855   6.917 -0.0001 -0.2233 -1.0972
  166DOPC  H13B20077   6.454   2.003   6.968  0.2256  1.1603 -1.8410
  166DOPC  H13C20078   6.401   1.930   6.825  0.1979 -0.8172 -1.0125
  166DOPC   C1420079   6.559   2.162   6.783  0.1404  0.3592 -0.1008
  166DOPC  H14A20080   6.479   2.162   6.710  1.2004  1.9884 -1.3520
  166DOPC  H14B20081   6.534   2.224   6.867 -0.4046 -0.0313  0.0335
  166DOPC  H14C20082   6.638   2.208   6.726  0.0629  4.8485  2.9343
  166DOPC   C1520083   6.719   2.023   6.900 -0.1518 -0.2668  0.0622
  166DOPC  H15A20084   6.708   2.092   6.983 -2.7229  1.0866 -1.2729
  166DOPC  H15B20085   6.805   2.056   6.845 -0.2543  1.3901  0.8225
  166DOPC  H15C20086   6.748   1.922   6.925 -0.7137 -1.2663 -2.9856
  166DOPC   C1120087   6.734   2.021   6.594 -0.0031 -0.8152  0.3654
  166DOPC  H11A20088   6.732   1.954   6.505 -4.0020 -0.1882 -0.2223
  166DOPC  H11B20089   6.685   2.108   6.544  1.6880 -0.2333 -0.3643
  166DOPC     P20090   6.920   2.194   6.637 -0.2343 -0.1297  0.0659
  166DOPC   O1320091   7.058   2.192   6.697  0.1139 -0.2174  0.2649
  166DOPC   O1420092   6.830   2.291   6.700  0.1835 -0.4284 -0.7979
  166DOPC   O1220093   6.861   2.049   6.645 -0.4634 -0.5631 -0.1238
  166DOPC   O1120094   6.926   2.228   6.480  0.2241  0.3624 -0.1696
  166DOPC    C120095   7.046   2.197   6.410  0.2491 -0.3437 -0.0512
  166DOPC    HA20096   7.081   2.094   6.432 -0.3374 -0.4225  0.5638
  166DOPC    HB20097   7.122   2.270   6.444 -0.8716  2.2991 -2.7857
  166DOPC    C220098   7.021   2.214   6.260  0.8577 -0.2465 -0.4545
  166DOPC    HS20099   7.076   2.136   6.203 -0.9757 -1.0393 -1.2130
  166DOPC   O2120100   7.055   2.343   6.211 -0.2103  0.1827 -0.1721
  166DOPC   C2120101   7.182   2.371   6.200  0.1852 -0.0460 -0.1566
  166DOPC   O2220102   7.275   2.306   6.242  0.0399 -0.4612 -0.7609
  166DOPC   C2220103   7.195   2.510   6.128  0.2244  0.6985 -0.1081
  166DOPC   H2R20104   7.302   2.519   6.097  0.1937 -0.3589 -0.5855
  166DOPC   H2S20105   7.174   2.585   6.207  1.6172 -1.1325  2.1708
  166DOPC    C320106   6.870   2.188   6.239  0.2140  0.3129  1.0025
  166DOPC    HX20107   6.830   2.287   6.267  3.5920  2.1774 -0.2097
  166DOPC    HY20108   6.834   2.106   6.305 -1.7337  1.4853  1.4948
  166DOPC   O3120109   6.845   2.167   6.101  0.1018  0.0730  0.1309
  166DOPC   C3120110   6.713   2.173   6.066  0.0980  0.2022 -0.0808
  166DOPC   O3220111   6.625   2.190   6.145  0.2971  0.2603  0.3890
  166DOPC   C3220112   6.689   2.143   5.918  0.3011  0.2224 -0.4306
  166DOPC   H2X20113   6.750   2.208   5.853  0.2774 -0.3926 -1.0709
  166DOPC   H2Y20114   6.720   2.037   5.908  0.2447  0.3086 -1.6303
  166DOPC   C2320115   7.112   2.523   6.004  0.5344 -0.3177  0.1821
  166DOPC   H3R20116   7.009   2.493   6.033  0.8183 -0.7880  0.7047
  166DOPC   H3S20117   7.166   2.455   5.935  0.5447 -0.5371  0.4091
  166DOPC   C2420118   7.099   2.657   5.925 -0.5651 -0.0299  0.0460
  166DOPC   H4R20119   7.207   2.680   5.913 -1.0467  2.1361 -0.7337
  166DOPC   H4S20120   7.060   2.742   5.986 -0.9096 -0.5719  0.6013
  166DOPC   C2520121   7.004   2.640   5.806  0.7257  0.1717 -0.8252
  166DOPC   H5R20122   6.981   2.740   5.763  1.3729  0.6712 -0.0489
  166DOPC   H5S20123   6.914   2.592   5.850  2.3395 -0.1566  2.3968
  166DOPC   C2620124   7.055   2.552   5.693 -0.4853  0.1002 -0.2020
  166DOPC   H6R20125   7.086   2.454   5.735 -2.3325 -0.0017  1.0227
  166DOPC   H6S20126   7.145   2.596   5.646 -1.2725 -0.6272 -2.5238
  166DOPC   C2720127   6.950   2.530   5.577 -0.6011  0.0100  0.0092
  166DOPC   H7R20128   6.899   2.625   5.550  2.2498  1.4386 -0.8038
  166DOPC   H7S20129   6.875   2.460   5.619 -2.3007  1.4891 -0.4493
  166DOPC   C2820130   7.008   2.477   5.446  0.0070 -0.0173  0.3413
  166DOPC   H8R20131   6.926   2.477   5.372  1.2159 -4.0906 -1.3105
  166DOPC   H8S20132   7.032   2.368   5.453  0.5858  0.1801  1.8871
  166DOPC   C2920133   7.128   2.560   5.403  0.2828 -0.1843 -0.3284
  166DOPC   H9R20134   7.223   2.531   5.450  0.0821  0.2299  0.3459
  166DOPC  C21020135   7.130   2.649   5.302 -0.0133 -0.0838 -0.1948
  166DOPC  H10R20136   7.219   2.708   5.276  0.3691  0.5883  2.3567
  166DOPC  C21120137   7.011   2.703   5.222  0.5768 -0.5273 -0.0113
  166DOPC  H11R20138   7.000   2.813   5.233 -1.6097 -0.5232 -1.7006
  166DOPC  H11S20139   6.913   2.670   5.262  1.1880 -3.3737 -0.6167
  166DOPC  C21220140   7.002   2.650   5.079  0.0205 -0.0255 -0.1855
  166DOPC  H12R20141   7.086   2.684   5.014 -0.1692 -1.7960 -1.4504
  166DOPC  H12S20142   6.915   2.710   5.043 -0.0859  0.0067  0.1271
  166DOPC  C21320143   6.977   2.500   5.057 -0.7580  0.4567 -0.0337
  166DOPC  H13R20144   6.883   2.470   5.109 -0.5360 -0.0255  0.0985
  166DOPC  H13S20145   7.066   2.457   5.108  1.1151  2.5287 -1.3422
  166DOPC  C21420146   6.968   2.464   4.908  0.1577 -0.2613 -0.3452
  166DOPC  H14R20147   6.965   2.353   4.899  0.3392 -0.2139 -1.0859
  166DOPC  H14S20148   7.048   2.503   4.841 -1.8305  2.6052 -1.2060
  166DOPC  C21520149   6.838   2.514   4.845  0.0505 -0.2178 -0.0162
  166DOPC  H15R20150   6.825   2.617   4.883  0.4595 -1.3090  3.3815
  166DOPC  H15S20151   6.747   2.461   4.882  0.4394 -0.1562  1.0347
  166DOPC  C21620152   6.836   2.511   4.687  0.1506 -0.0817  0.3765
  166DOPC  H16R20153   6.865   2.408   4.655  2.6058  0.7339 -0.2877
  166DOPC  H16S20154   6.910   2.584   4.648  2.4973 -0.9225  2.8775
  166DOPC  C21720155   6.698   2.555   4.631 -0.0917  0.0595 -0.3687
  166DOPC  H17R20156   6.681   2.662   4.659  0.6634  0.4755 -1.4539
  166DOPC  H17S20157   6.617   2.500   4.684 -2.3423  3.6362  0.3316
  166DOPC  C21820158   6.672   2.539   4.479 -0.0134  0.0901  0.2603
  166DOPC  H18R20159   6.760   2.594   4.441  1.5321 -0.4993  2.7601
  166DOPC  H18S20160   6.587   2.596   4.436 -1.2046 -0.7483  1.3920
  166DOPC  H18T20161   6.679   2.431   4.455  2.2181 -0.1116  1.5959
  166DOPC   C3320162   6.540   2.132   5.877 -0.1409 -0.2094 -0.0281
  166DOPC   H3X20163   6.473   2.221   5.875  0.2568  0.0920 -0.0760
  166DOPC   H3Y20164   6.491   2.067   5.953 -0.5121  1.5895  1.3556
  166DOPC   C3420165   6.526   2.067   5.744  0.7118 -0.8237 -0.0112
  166DOPC   H4X20166   6.416   2.067   5.731  0.6357  0.7018  0.4356
  166DOPC   H4Y20167   6.558   1.962   5.762  0.9852 -1.1109 -1.9690
  166DOPC   C3520168   6.616   2.146   5.640  0.2508  0.0208 -0.1972
  166DOPC   H5X20169   6.722   2.124   5.668  0.1956 -1.2301 -0.8631
  166DOPC   H5Y20170   6.592   2.253   5.657 -0.2975 -0.1540  0.1230
  166DOPC   C3620171   6.586   2.105   5.502 -0.1287 -0.3632  0.6719
  166DOPC   H6X20172   6.639   2.011   5.478 -0.8276 -0.0412 -2.6618
  166DOPC   H6Y20173   6.478   2.088   5.480 -0.4235  1.0420  0.9397
  166DOPC   C3720174   6.646   2.204   5.395 -0.1732  0.5103 -0.2619
  166DOPC   H7X20175   6.628   2.304   5.441 -1.2057  0.8290 -1.3194
  166DOPC   H7Y20176   6.756   2.187   5.399 -0.0676  1.2375  2.9109
  166DOPC   C3820177   6.605   2.200   5.252  0.1677 -0.1177  0.5383
  166DOPC   H8X20178   6.631   2.290   5.192 -0.9354 -0.4668 -0.5088
  166DOPC   H8Y20179   6.494   2.205   5.257  0.1701  0.8786 -0.2445
  166DOPC   C3920180   6.644   2.071   5.174  0.1130 -0.0129  0.7740
  166DOPC   H9X20181   6.664   1.983   5.237  0.7387 -1.4020 -1.2281
  166DOPC  C31020182   6.643   2.051   5.039 -0.2631 -0.1648  0.4331
  166DOPC  H10X20183   6.665   1.949   5.003  2.5598  0.3152  0.5258
  166DOPC  C31120184   6.604   2.152   4.931 -0.4929  0.4356  0.2658
  166DOPC  H11X20185   6.606   2.260   4.957 -1.7984  1.1209 -2.1199
  166DOPC  H11Y20186   6.517   2.107   4.879  0.2646 -0.1045 -0.5746
  166DOPC  C31220187   6.714   2.143   4.819  0.5838 -0.5382  0.3127
  166DOPC  H12X20188   6.745   2.037   4.810  3.3538  0.0601  1.9202
  166DOPC  H12Y20189   6.806   2.200   4.844  1.3425 -0.8977 -1.4752
  166DOPC  C31320190   6.670   2.189   4.683 -0.4766  1.1496  0.7525
  166DOPC  H13X20191   6.628   2.291   4.684  0.2175  1.5507 -1.9196
  166DOPC  H13Y20192   6.759   2.189   4.615 -1.3017  1.4771 -0.3569
  166DOPC  C31420193   6.566   2.100   4.615  0.4726 -0.2635 -0.1225
  166DOPC  H14X20194   6.599   1.994   4.616  1.0697 -0.0945 -0.8447
  166DOPC  H14Y20195   6.482   2.102   4.687  1.7804  0.1364  1.4701
  166DOPC  C31520196   6.529   2.137   4.470  0.1031 -0.0020  0.8043
  166DOPC  H15X20197   6.518   2.247   4.457 -0.6466 -0.3047 -1.8459
  166DOPC  H15Y20198   6.431   2.092   4.443 -1.1153  2.5353  0.6607
  166DOPC  C31620199   6.637   2.110   4.367 -0.1345  0.0089  0.2172
  166DOPC  H16X20200   6.739   2.134   4.403 -0.5082  1.6722  0.2188
  166DOPC  H16Y20201   6.637   1.999   4.357 -1.0305  0.1496 -1.9831
  166DOPC  C31720202   6.615   2.170   4.223 -0.5307  0.3241  0.1717
  166DOPC  H17X20203   6.515   2.142   4.184  0.0424 -0.7261 -0.5861
  166DOPC  H17Y20204   6.617   2.281   4.232  2.0732  0.3474  0.1613
  166DOPC  C31820205   6.725   2.117   4.128 -0.5388 -0.0983 -0.2579
  166DOPC  H18X20206   6.715   2.171   4.032 -3.4005  0.1178  0.0664
  166DOPC  H18Y20207   6.824   2.135   4.175 -0.7770  2.0669 -0.4733
  166DOPC  H18Z20208   6.707   2.008   4.116 -1.4519  0.0875 -0.6113
  167DOPC     N20209   7.362   1.862   7.037 -0.4863  0.0790 -0.2640
  167DOPC   C1220210   7.479   1.865   6.942 -0.3256 -0.0677  0.5854
  167DOPC  H12A20211   7.526   1.960   6.965 -1.0748  0.4415  0.0796
  167DOPC  H12B20212   7.443   1.892   6.844 -1.4867  1.4783  1.4022
  167DOPC   C1320213   7.256   1.766   6.986 -0.4505 -0.3534 -0.1416
  167DOPC  H13A20214   7.193   1.804   6.907 -0.4574 -0.4192 -0.1673
  167DOPC  H13B20215   7.305   1.674   6.958 -0.9667 -1.3168  1.9180
  167DOPC  H13C20216   7.185   1.753   7.066 -0.4388  0.9165  0.0919
  167DOPC   C1420217   7.305   1.995   7.057  0.0641 -0.7309  0.1439
  167DOPC  H14A20218   7.385   2.058   7.094  0.2134  1.1500 -2.9798
  167DOPC  H14B20219   7.279   2.032   6.959  0.7173  0.2512  0.3250
  167DOPC  H14C20220   7.217   1.988   7.120 -0.4730 -0.3346 -0.5456
  167DOPC   C1520221   7.398   1.809   7.168  0.0013 -0.5989 -0.1139
  167DOPC  H15A20222   7.451   1.715   7.159  0.7561 -0.0515 -1.8331
  167DOPC  H15B20223   7.312   1.775   7.223  0.4596 -0.1447  0.9255
  167DOPC  H15C20224   7.450   1.885   7.224 -0.2781  2.8081 -4.0558
  167DOPC   C1120225   7.591   1.759   6.933 -0.5375 -0.1329 -0.3278
  167DOPC  H11A20226   7.654   1.770   6.842 -1.2730  1.0586 -0.7299
  167DOPC  H11B20227   7.645   1.786   7.026 -1.6797  0.9088  0.0660
  167DOPC     P20228   7.477   1.545   6.815 -0.0739  0.1027 -0.1059
  167DOPC   O1320229   7.338   1.523   6.852  0.4945 -0.0069 -0.0043
  167DOPC   O1420230   7.559   1.424   6.780 -0.7725 -0.4504  0.4192
  167DOPC   O1220231   7.546   1.619   6.936 -0.0849  0.1713 -0.5999
  167DOPC   O1120232   7.487   1.649   6.701  0.7094  0.6403  0.2958
  167DOPC    C120233   7.372   1.702   6.637 -0.6024 -0.8924 -0.2564
  167DOPC    HA20234   7.393   1.804   6.600 -3.0196 -0.0353  0.5300
  167DOPC    HB20235   7.284   1.710   6.704 -1.4636 -2.6100 -1.1064
  167DOPC    C220236   7.317   1.609   6.531 -1.4410  0.4081  0.2000
  167DOPC    HS20237   7.314   1.512   6.586 -0.0642  0.9939  1.3910
  167DOPC   O2120238   7.422   1.607   6.430 -0.3258 -0.5638 -0.1672
  167DOPC   C2120239   7.447   1.480   6.381 -0.2606 -0.2450  0.0310
  167DOPC   O2220240   7.400   1.373   6.424  0.4106 -0.4564  0.0090
  167DOPC   C2220241   7.554   1.482   6.260  0.0591 -0.0304  0.5423
  167DOPC   H2R20242   7.582   1.376   6.241  0.6784  0.3602 -0.8169
  167DOPC   H2S20243   7.642   1.542   6.291  1.1357 -1.6589  0.7515
  167DOPC    C320244   7.175   1.649   6.483  0.2026  0.7294  0.2072
  167DOPC    HX20245   7.180   1.752   6.442 -0.0682  0.7059  0.1109
  167DOPC    HY20246   7.104   1.657   6.569  0.2293 -1.6832  0.5137
  167DOPC   O3120247   7.124   1.559   6.382  0.2731 -0.2521 -0.0246
  167DOPC   C3120248   7.064   1.455   6.427 -0.2535  0.9897 -0.5820
  167DOPC   O3220249   7.055   1.427   6.547 -0.0559  0.2238  0.1282
  167DOPC   C3220250   6.988   1.386   6.321  0.5053  0.2810  0.1574
  167DOPC   H2X20251   6.882   1.419   6.322  0.3663 -0.1507  1.5183
  167DOPC   H2Y20252   7.015   1.405   6.215  0.0797 -0.9981 -0.2072
  167DOPC   C2320253   7.486   1.534   6.127  0.4851 -0.3269 -0.4270
  167DOPC   H3R20254   7.554   1.535   6.038 -2.6992  0.6914 -3.0569
  167DOPC   H3S20255   7.469   1.643   6.144  1.3607 -0.4211  1.2883
  167DOPC   C2420256   7.360   1.462   6.079  0.9968 -0.3328  0.1317
  167DOPC   H4R20257   7.284   1.452   6.160  1.9541 -0.8798  0.9888
  167DOPC   H4S20258   7.378   1.354   6.061 -1.6370 -0.9314  0.5381
  167DOPC   C2520259   7.297   1.524   5.950 -0.7300 -0.3552 -0.2406
  167DOPC   H5R20260   7.384   1.527   5.880 -0.3680 -1.4392  0.1501
  167DOPC   H5S20261   7.273   1.625   5.990  0.4978 -0.3851  0.6232
  167DOPC   C2620262   7.188   1.449   5.880  0.2179  0.1307  0.7371
  167DOPC   H6R20263   7.091   1.464   5.930 -0.1477 -1.3575  0.5305
  167DOPC   H6S20264   7.226   1.344   5.880  3.3900  1.1577  0.4085
  167DOPC   C2720265   7.169   1.491   5.728 -0.0637  0.0816 -0.1512
  167DOPC   H7R20266   7.093   1.425   5.682  0.4893  0.4999 -1.7380
  167DOPC   H7S20267   7.262   1.454   5.680 -0.3415  0.2416 -0.8361
  167DOPC   C2820268   7.141   1.640   5.706  0.5865  0.2300  0.7148
  167DOPC   H8R20269   7.167   1.667   5.601  1.7335 -0.5308  0.7913
  167DOPC   H8S20270   7.215   1.702   5.761  1.5022 -0.2965  0.1164
  167DOPC   C2920271   6.998   1.675   5.726  0.2812 -0.2671 -0.0207
  167DOPC   H9R20272   6.923   1.642   5.652 -1.5243 -0.8071  1.9543
  167DOPC  C21020273   6.955   1.758   5.815  0.3903  0.4177  0.2394
  167DOPC  H10R20274   6.848   1.783   5.811  0.7636  2.0639 -1.1727
  167DOPC  C21120275   7.042   1.823   5.924 -0.4204 -0.7106 -0.1224
  167DOPC  H11R20276   6.995   1.921   5.946 -1.7432 -1.7628  1.9349
  167DOPC  H11S20277   7.139   1.865   5.888 -1.3456  1.3832 -0.3528
  167DOPC  C21220278   7.053   1.765   6.064  0.1762 -0.5218  0.7799
  167DOPC  H12R20279   7.045   1.655   6.063  0.9820 -0.5774  0.1131
  167DOPC  H12S20280   7.153   1.792   6.106  1.9043  0.9371 -3.7002
  167DOPC  C21320281   6.939   1.825   6.156  0.4674 -0.0759  0.0484
  167DOPC  H13R20282   6.934   1.936   6.152 -0.1016  0.0509  2.5895
  167DOPC  H13S20283   6.967   1.803   6.261  1.3299 -1.2127 -0.3955
  167DOPC  C21420284   6.806   1.757   6.127 -0.1836 -0.9261 -0.8842
  167DOPC  H14R20285   6.824   1.647   6.123  1.4701 -0.6562 -1.8504
  167DOPC  H14S20286   6.778   1.789   6.024  3.1314 -0.5579 -1.7760
  167DOPC  C21520287   6.701   1.800   6.226  0.0836  0.2417  0.5086
  167DOPC  H15R20288   6.713   1.908   6.250  1.3725  1.1199 -3.3425
  167DOPC  H15S20289   6.714   1.748   6.323 -0.0138  0.7700  0.8077
  167DOPC  C21620290   6.568   1.761   6.169  0.4706  0.1512  0.0215
  167DOPC  H16R20291   6.562   1.652   6.153 -0.3520  0.1638  0.1942
  167DOPC  H16S20292   6.564   1.818   6.074  0.4350  2.1948  1.1829
  167DOPC  C21720293   6.447   1.792   6.256  0.3018 -0.1927  0.4353
  167DOPC  H17R20294   6.463   1.734   6.349  1.1295  1.9389  1.7023
  167DOPC  H17S20295   6.355   1.751   6.210 -0.5425  1.2996  0.7509
  167DOPC  C21820296   6.445   1.938   6.295 -0.5993 -0.2937 -0.4646
  167DOPC  H18R20297   6.345   1.962   6.337  0.2258 -0.3881  1.7053
  167DOPC  H18S20298   6.462   1.999   6.204 -0.3073 -1.6806 -1.3735
  167DOPC  H18T20299   6.519   1.961   6.374 -1.2782  0.4221 -0.0295
  167DOPC   C3320300   6.986   1.231   6.337  0.0744 -0.5036 -0.0697
  167DOPC   H3X20301   6.883   1.194   6.318 -0.9758  2.5893 -0.9398
  167DOPC   H3Y20302   7.020   1.193   6.436 -0.5557  0.0608  0.3658
  167DOPC   C3420303   7.075   1.173   6.224 -0.0808  0.9348  0.4867
  167DOPC   H4X20304   7.177   1.212   6.239  0.6451 -0.8073  0.3042
  167DOPC   H4Y20305   7.044   1.207   6.123 -4.2527 -2.7749  0.1988
  167DOPC   C3520306   7.084   1.018   6.225 -0.2433  0.0820  0.5086
  167DOPC   H5X20307   6.982   0.975   6.237 -0.1623 -0.7268 -1.3316
  167DOPC   H5Y20308   7.154   0.998   6.309  1.5316  2.2339 -0.3838
  167DOPC   C3620309   7.128   0.960   6.087 -0.3168  0.6129 -0.3733
  167DOPC   H6X20310   7.219   1.021   6.070  1.0481 -1.2329  0.0433
  167DOPC   H6Y20311   7.157   0.854   6.105 -1.1061  0.3108 -0.8212
  167DOPC   C3720312   7.021   0.969   5.976 -0.6609  0.2136  0.0370
  167DOPC   H7X20313   6.930   0.911   6.004  0.9099 -0.8696  3.5033
  167DOPC   H7Y20314   6.990   1.075   5.967 -2.7870 -0.3221  0.4772
  167DOPC   C3820315   7.083   0.921   5.844  0.4707 -0.4436 -0.2403
  167DOPC   H8X20316   7.095   0.810   5.844  1.2465 -0.3765  0.7038
  167DOPC   H8Y20317   7.172   0.982   5.820 -2.3959  3.1559 -2.7542
  167DOPC   C3920318   6.973   0.948   5.742 -0.5048  0.6963  0.2129
  167DOPC   H9X20319   6.871   0.943   5.785 -2.2636 -2.6017 -3.6673
  167DOPC  C31020320   6.995   0.984   5.620 -0.1876  0.4022 -0.2688
  167DOPC  H10X20321   6.906   1.003   5.558 -1.5732 -1.2335  1.1209
  167DOPC  C31120322   7.125   0.998   5.545 -0.2269  0.1015  0.5601
  167DOPC  H11X20323   7.215   0.971   5.604  2.0479 -1.0400 -3.0613
  167DOPC  H11Y20324   7.142   1.105   5.522  0.5409 -0.1365 -0.0098
  167DOPC  C31220325   7.145   0.901   5.426 -0.1736 -0.0055  0.0780
  167DOPC  H12X20326   7.246   0.907   5.381  0.8101 -0.4014  2.1486
  167DOPC  H12Y20327   7.060   0.911   5.355  0.9826  0.9969 -1.2262
  167DOPC  C31320328   7.146   0.753   5.469  0.3592  0.7815 -0.5915
  167DOPC  H13X20329   7.223   0.735   5.547 -0.6526 -1.2756 -0.0150
  167DOPC  H13Y20330   7.048   0.727   5.514  1.4008 -0.1878  1.2377
  167DOPC  C31420331   7.168   0.656   5.351 -0.1571 -0.4725  1.0964
  167DOPC  H14X20332   7.085   0.662   5.277  0.5866  0.7876  0.3314
  167DOPC  H14Y20333   7.260   0.691   5.299 -1.5634 -2.0833 -2.8485
  167DOPC  C31520334   7.178   0.508   5.399  0.1930 -0.7775  0.4971
  167DOPC  H15X20335   7.238   0.504   5.492 -1.1116 -1.7990  1.3198
  167DOPC  H15Y20336   7.234   0.450   5.322  1.6225  1.0542  0.0763
  167DOPC  C31620337   7.040   0.433   5.414 -0.0308 -0.2971 -0.1481
  167DOPC  H16X20338   7.046   0.338   5.471 -4.1222  0.0166  1.1540
  167DOPC  H16Y20339   6.978   0.501   5.476 -0.3191  1.0381 -1.8225
  167DOPC  C31720340   6.967   0.399   5.287 -0.0557 -0.0191  0.6228
  167DOPC  H17X20341   6.866   0.362   5.313 -0.3935 -0.7291 -1.5303
  167DOPC  H17Y20342   6.951   0.485   5.219  0.2386  0.7582  1.5164
  167DOPC  C31820343   7.030   0.286   5.201 -0.7829 -0.2617 -0.6757
  167DOPC  H18X20344   7.125   0.308   5.149 -1.2405  0.8539 -1.0571
  167DOPC  H18Y20345   7.031   0.189   5.256  2.7354 -1.0309 -1.8501
  167DOPC  H18Z20346   6.960   0.268   5.117 -0.6092 -1.5033 -0.5800
  168DOPC     N20347   1.839   7.549   6.856  0.0923  0.0272 -0.0991
  168DOPC   C1220348   1.735   7.504   6.958 -0.0439 -0.3923  0.5638
  168DOPC  H12A20349   1.642   7.559   6.947 -1.0776 -2.2425 -0.5110
  168DOPC  H12B20350   1.769   7.512   7.060 -0.0007 -3.1224  0.8410
  168DOPC   C1320351   1.958   7.464   6.877 -0.6604 -0.3610  0.5105
  168DOPC  H13A20352   2.015   7.486   6.966  2.0892 -1.6602 -0.8158
  168DOPC  H13B20353   1.915   7.365   6.872 -3.7136  0.9020 -1.0652
  168DOPC  H13C20354   2.022   7.471   6.790 -3.2142 -3.0734 -1.8350
  168DOPC   C1420355   1.875   7.694   6.875 -0.5422  0.0280 -0.4509
  168DOPC  H14A20356   1.963   7.705   6.813  0.8002 -1.1144  1.1573
  168DOPC  H14B20357   1.800   7.767   6.850  0.1252  0.7357 -0.4218
  168DOPC  H14C20358   1.907   7.717   6.975 -0.2522 -0.6488 -0.3802
  168DOPC   C1520359   1.796   7.528   6.711 -0.2661 -0.2924 -0.2121
  168DOPC  H15A20360   1.865   7.578   6.645  0.4110  0.1215  0.7866
  168DOPC  H15B20361   1.697   7.572   6.710  0.2334  1.0285  1.7750
  168DOPC  H15C20362   1.789   7.421   6.697  0.5650 -0.4330  0.3463
  168DOPC   C1120363   1.680   7.355   6.947 -0.3338  0.6666 -0.4136
  168DOPC  H11A20364   1.611   7.336   7.032 -0.1446 -0.6495 -0.5297
  168DOPC  H11B20365   1.624   7.340   6.852 -0.7348 -3.0262  0.2616
  168DOPC     P20366   1.734   7.103   6.931 -0.2468 -0.3384 -0.1222
  168DOPC   O1320367   1.735   7.043   7.065  0.1544  0.0034  0.3265
  168DOPC   O1420368   1.810   7.037   6.827 -0.3364 -0.0268  0.1968
  168DOPC   O1220369   1.781   7.253   6.948 -0.3253 -0.1767  0.4885
  168DOPC   O1120370   1.582   7.115   6.890  0.1713 -0.3062 -0.1199
  168DOPC    C120371   1.540   7.114   6.752 -0.3041 -0.2959 -0.9216
  168DOPC    HA20372   1.626   7.151   6.692 -0.8741  1.1675 -0.8777
  168DOPC    HB20373   1.455   7.185   6.742  0.3542  0.7926  0.6521
  168DOPC    C220374   1.492   6.971   6.718  0.1236 -0.0910  0.1695
  168DOPC    HS20375   1.586   6.912   6.728  0.5234  0.5631  0.3647
  168DOPC   O2120376   1.440   6.970   6.582  0.1524 -0.2235  0.4986
  168DOPC   C2120377   1.523   6.961   6.484  0.2926  0.1002 -0.1199
  168DOPC   O2220378   1.643   6.973   6.479  0.3626  0.0133 -0.5136
  168DOPC   C2220379   1.440   6.941   6.352  0.1051  0.2361 -0.1478
  168DOPC   H2R20380   1.401   7.038   6.316  0.0162 -0.3813 -1.7866
  168DOPC   H2S20381   1.346   6.886   6.372 -0.4298  0.4000 -2.0179
  168DOPC    C320382   1.382   6.933   6.824 -0.2243 -0.7426 -1.1584
  168DOPC    HX20383   1.327   7.025   6.854  1.3482 -0.6522  1.8479
  168DOPC    HY20384   1.434   6.896   6.915 -0.9961  1.9215  0.4952
  168DOPC   O3120385   1.276   6.854   6.774  0.2151  0.3749 -0.1675
  168DOPC   C3120386   1.309   6.723   6.752  0.3582 -0.4329 -0.1926
  168DOPC   O3220387   1.418   6.674   6.760 -0.0976 -0.5255  0.3453
  168DOPC   C3220388   1.185   6.653   6.710 -0.2595 -0.1608  0.3534
  168DOPC   H2X20389   1.208   6.545   6.706  0.3981 -0.0172  0.2327
  168DOPC   H2Y20390   1.112   6.659   6.795  0.2850 -0.7471  0.8664
  168DOPC   C2320391   1.507   6.872   6.235  0.7164  0.0690  0.5640
  168DOPC   H3R20392   1.577   6.793   6.271  0.9094 -0.6300 -1.2464
  168DOPC   H3S20393   1.564   6.945   6.174 -0.9157  3.0544  2.3716
  168DOPC   C2420394   1.394   6.800   6.154 -0.4837  0.2524 -0.9286
  168DOPC   H4R20395   1.303   6.863   6.148 -0.1738  0.7913 -0.1085
  168DOPC   H4S20396   1.360   6.704   6.198 -0.8285  0.6175 -0.3928
  168DOPC   C2520397   1.433   6.768   6.010  0.2608 -0.8098 -1.0731
  168DOPC   H5R20398   1.529   6.712   6.015  0.7209 -0.2487 -2.8479
  168DOPC   H5S20399   1.446   6.855   5.942 -0.4709  0.4461  0.3500
  168DOPC   C2620400   1.319   6.685   5.949  0.3912 -0.0146  0.9052
  168DOPC   H6R20401   1.231   6.753   5.947  0.2014 -0.2678  0.2620
  168DOPC   H6S20402   1.311   6.601   6.021  0.6375 -1.2493 -0.4641
  168DOPC   C2720403   1.346   6.628   5.808 -0.0266 -0.1290 -0.2966
  168DOPC   H7R20404   1.437   6.564   5.816 -0.4868 -0.9948 -1.7442
  168DOPC   H7S20405   1.379   6.707   5.736  0.1806 -0.3206 -0.4123
  168DOPC   C2820406   1.241   6.525   5.759 -0.1804 -0.4324 -0.4944
  168DOPC   H8R20407   1.232   6.465   5.852 -0.5468 -1.0032 -0.8929
  168DOPC   H8S20408   1.281   6.447   5.692 -1.7090 -3.7160  2.0972
  168DOPC   C2920409   1.112   6.582   5.722  0.1827  0.8156  0.0913
  168DOPC   H9R20410   1.094   6.688   5.747  1.0243  0.6810  1.3697
  168DOPC  C21020411   1.023   6.527   5.643 -0.9500  0.8443  0.2197
  168DOPC  H10R20412   0.925   6.577   5.643  0.3844  3.7163 -1.3353
  168DOPC  C21120413   1.032   6.387   5.574 -0.4964  0.3808 -0.6715
  168DOPC  H11R20414   0.989   6.311   5.642  1.2110  0.1493  0.2183
  168DOPC  H11S20415   1.133   6.357   5.538  0.2811  0.0238  1.6106
  168DOPC  C21220416   0.963   6.391   5.438 -0.0528 -0.8059 -0.2748
  168DOPC  H12R20417   1.026   6.468   5.388  1.4280 -0.8549  1.4147
  168DOPC  H12S20418   0.858   6.421   5.458 -0.0664 -1.4574  0.7354
  168DOPC  C21320419   0.979   6.261   5.363 -0.2060  0.1123 -0.7274
  168DOPC  H13R20420   0.902   6.190   5.401 -2.6396  2.6132 -0.6954
  168DOPC  H13S20421   1.083   6.223   5.373 -0.5649 -1.0058 -1.1094
  168DOPC  C21420422   0.949   6.281   5.208 -0.2641  0.3583 -0.4279
  168DOPC  H14R20423   0.852   6.329   5.184 -1.5512 -1.8022  0.2374
  168DOPC  H14S20424   0.946   6.178   5.166  3.4478 -0.3754  0.6959
  168DOPC  C21520425   1.051   6.363   5.134 -0.0860 -0.0503 -0.6196
  168DOPC  H15R20426   1.151   6.314   5.133  0.5634  1.2156 -0.6484
  168DOPC  H15S20427   1.069   6.462   5.181 -0.1166  1.0983 -2.8423
  168DOPC  C21620428   1.026   6.402   4.988 -0.0212  0.2044  0.4386
  168DOPC  H16R20429   0.935   6.464   4.985 -2.2593 -2.8640  0.3136
  168DOPC  H16S20430   1.019   6.310   4.926  1.0070  1.3338 -1.4598
  168DOPC  C21720431   1.136   6.494   4.929 -0.4118 -0.2167  0.0295
  168DOPC  H17R20432   1.235   6.449   4.952 -0.7493  0.1181  2.4487
  168DOPC  H17S20433   1.130   6.588   4.989  1.4182  0.2279 -0.4325
  168DOPC  C21820434   1.107   6.520   4.778  0.6698 -0.6752 -0.0327
  168DOPC  H18R20435   1.002   6.555   4.767  0.6117 -0.9692 -0.4655
  168DOPC  H18S20436   1.129   6.431   4.715  2.6414 -0.8419  0.8325
  168DOPC  H18T20437   1.176   6.602   4.749 -1.9666  1.7730  0.2204
  168DOPC   C3320438   1.122   6.701   6.580 -0.2252 -0.5298  0.5613
  168DOPC   H3X20439   1.142   6.810   6.579 -1.5541 -0.2611 -1.8507
  168DOPC   H3Y20440   1.013   6.680   6.584 -0.2586 -0.3907  0.3966
  168DOPC   C3420441   1.199   6.644   6.457  0.1941 -0.7574  0.1494
  168DOPC   H4X20442   1.308   6.655   6.476  1.0636 -0.4720 -4.1153
  168DOPC   H4Y20443   1.177   6.707   6.368 -0.6544 -0.9258  0.2407
  168DOPC   C3520444   1.167   6.495   6.421  0.8686 -0.3833 -0.0622
  168DOPC   H5X20445   1.197   6.430   6.506  0.8541  2.1781  2.0232
  168DOPC   H5Y20446   1.244   6.474   6.344  1.7416 -0.3744  0.8004
  168DOPC   C3620447   1.021   6.458   6.367  0.0286 -0.5289  0.0618
  168DOPC   H6X20448   1.032   6.350   6.345  0.8717 -0.1621 -1.4526
  168DOPC   H6Y20449   0.942   6.476   6.442  0.0667 -2.7840  0.7350
  168DOPC   C3720450   0.981   6.529   6.238  0.8153  0.2405  0.5429
  168DOPC   H7X20451   0.942   6.632   6.254 -1.2724  0.0579 -2.4703
  168DOPC   H7Y20452   1.081   6.535   6.191  1.4190 -0.8999  1.6056
  168DOPC   C3820453   0.871   6.461   6.143 -0.3275  0.5050 -0.5287
  168DOPC   H8X20454   0.836   6.545   6.080 -0.0965 -1.1739 -3.0171
  168DOPC   H8Y20455   0.794   6.415   6.209  0.2368  1.0194  0.5161
  168DOPC   C3920456   0.916   6.341   6.058  0.5436 -0.4546  0.1582
  168DOPC   H9X20457   1.026   6.349   6.055  0.7543 -1.2516  2.9191
  168DOPC  C31020458   0.849   6.222   6.042 -0.1266 -0.6627  0.0378
  168DOPC  H10X20459   0.889   6.155   5.964 -0.8903  0.4384 -1.3464
  168DOPC  C31120460   0.700   6.205   6.059  0.3297 -0.5339  0.3848
  168DOPC  H11X20461   0.655   6.280   6.127 -0.2724  0.1184 -0.7055
  168DOPC  H11Y20462   0.674   6.110   6.109 -0.2976 -1.2160 -1.1504
  168DOPC  C31220463   0.604   6.208   5.937 -0.2018  0.5661 -0.7125
  168DOPC  H12X20464   0.617   6.306   5.886  1.1152  0.8444  0.1092
  168DOPC  H12Y20465   0.495   6.200   5.960 -0.0621 -0.7044 -0.4482
  168DOPC  C31320466   0.641   6.093   5.844 -0.1593  0.6179  0.6921
  168DOPC  H13X20467   0.748   6.103   5.816 -0.4664  0.0200 -0.7778
  168DOPC  H13Y20468   0.619   5.997   5.896 -1.5618  1.0597  0.9635
  168DOPC  C31420469   0.555   6.086   5.717 -0.1941  0.0170 -0.2307
  168DOPC  H14X20470   0.447   6.088   5.744 -0.3815  0.9205 -0.9925
  168DOPC  H14Y20471   0.574   6.181   5.663 -0.3962  0.5716  0.6568
  168DOPC  C31520472   0.573   5.964   5.626 -0.3831 -0.0336 -0.8590
  168DOPC  H15X20473   0.509   5.972   5.535  0.3928 -4.2048 -1.9854
  168DOPC  H15Y20474   0.556   5.868   5.679 -1.2351 -0.9739 -2.7394
  168DOPC  C31620475   0.715   5.957   5.569 -0.5570  0.1147  0.4105
  168DOPC  H16X20476   0.736   6.062   5.538  0.9050 -0.5438 -1.0198
  168DOPC  H16Y20477   0.785   5.923   5.648 -0.4692 -2.1127 -0.5459
  168DOPC  C31720478   0.734   5.886   5.425  0.7997  0.5470 -0.4741
  168DOPC  H17X20479   0.707   5.778   5.432 -0.7185  0.9949  2.4796
  168DOPC  H17Y20480   0.658   5.931   5.357 -2.2973 -2.7096  0.5239
  168DOPC  C31820481   0.868   5.893   5.357 -0.5269 -0.0067 -0.2549
  168DOPC  H18X20482   0.947   5.867   5.431 -2.0646  2.1368  2.3078
  168DOPC  H18Y20483   0.880   5.811   5.282 -0.9076 -1.0657  0.8035
  168DOPC  H18Z20484   0.883   5.991   5.308 -1.1675  1.0781  1.6474
  169DOPC     N20485   0.253   1.417   6.942 -0.2413 -0.3717  0.0158
  169DOPC   C1220486   0.376   1.503   6.986 -0.3667  0.0905 -0.8468
  169DOPC  H12A20487   0.423   1.459   7.073 -0.6878 -1.3582 -1.3914
  169DOPC  H12B20488   0.340   1.598   7.025 -0.8556 -0.8692  1.2078
  169DOPC   C1320489   0.302   1.282   6.910  0.6588  0.2856  0.0752
  169DOPC  H13A20490   0.219   1.216   6.889 -1.2908  2.4691  0.5945
  169DOPC  H13B20491   0.381   1.291   6.837  1.4978  1.4851  1.0910
  169DOPC  H13C20492   0.353   1.237   6.994  0.4536 -0.0101  0.0422
  169DOPC   C1420493   0.188   1.492   6.831 -0.5503 -0.5753 -0.2774
  169DOPC  H14A20494   0.264   1.494   6.755 -0.1118 -1.1167  0.1447
  169DOPC  H14B20495   0.100   1.445   6.789 -0.9053  0.3533 -0.6093
  169DOPC  H14C20496   0.172   1.592   6.871 -1.1442 -1.4001  1.7072
  169DOPC   C1520497   0.156   1.405   7.053  0.7554 -0.8273  0.1819
  169DOPC  H15A20498   0.070   1.360   7.005  1.5455 -2.4434  0.2133
  169DOPC  H15B20499   0.137   1.504   7.093  2.7474 -0.4151  0.2095
  169DOPC  H15C20500   0.196   1.341   7.131  1.3726 -1.0911 -0.3480
  169DOPC   C1120501   0.486   1.520   6.878  0.0540 -0.5535  0.0470
  169DOPC  H11A20502   0.443   1.576   6.792  0.4509  0.0260  0.2169
  169DOPC  H11B20503   0.561   1.594   6.916 -1.1801  1.0470 -0.5037
  169DOPC     P20504   0.646   1.317   6.930  0.0773  0.2119 -0.1225
  169DOPC   O1320505   0.586   1.301   7.066 -0.2886  0.0766 -0.4241
  169DOPC   O1420506   0.783   1.364   6.918 -0.2603 -0.5265  0.2524
  169DOPC   O1220507   0.551   1.404   6.836  0.6835  0.1421 -0.2191
  169DOPC   O1120508   0.657   1.175   6.863  0.3059  0.0031  0.3482
  169DOPC    C120509   0.640   1.157   6.718  0.0346  0.2855 -0.1393
  169DOPC    HA20510   0.602   1.249   6.668 -2.0123 -0.4922 -0.1331
  169DOPC    HB20511   0.561   1.080   6.703 -2.4357  2.5310  0.6138
  169DOPC    C220512   0.771   1.105   6.652  0.9151 -0.3183 -0.0784
  169DOPC    HS20513   0.759   1.132   6.545  1.2340  0.8481  0.1698
  169DOPC   O2120514   0.791   0.959   6.666 -0.1647  0.5157  0.2469
  169DOPC   C2120515   0.724   0.894   6.576 -0.5356 -0.0325  0.0006
  169DOPC   O2220516   0.633   0.936   6.502 -0.2004 -0.2510  0.2894
  169DOPC   C2220517   0.773   0.748   6.568 -0.0861  0.2340 -0.5531
  169DOPC   H2R20518   0.723   0.698   6.654 -0.1038 -0.3367 -0.8903
  169DOPC   H2S20519   0.881   0.739   6.594 -0.0479  1.6971 -0.1389
  169DOPC    C320520   0.900   1.186   6.700  0.4330  0.9559 -0.0180
  169DOPC    HX20521   0.921   1.165   6.807  0.8889 -1.5316 -0.5363
  169DOPC    HY20522   0.865   1.291   6.693 -1.3652  0.5349  1.6822
  169DOPC   O3120523   1.007   1.155   6.613  0.2178 -0.6453 -0.6029
  169DOPC   C3120524   1.098   1.076   6.646  0.1117  0.2421  0.5718
  169DOPC   O3220525   1.095   0.988   6.729 -0.3018 -0.1884 -0.3300
  169DOPC   C3220526   1.218   1.105   6.554 -0.1197 -0.2955  0.7336
  169DOPC   H2X20527   1.226   1.215   6.547  0.8662 -0.3951  0.0961
  169DOPC   H2Y20528   1.314   1.067   6.595 -0.1087  1.4224  2.4158
  169DOPC   C2320529   0.739   0.689   6.435 -0.8505 -1.1086  0.6469
  169DOPC   H3R20530   0.632   0.672   6.412 -0.8608 -0.8198  0.4698
  169DOPC   H3S20531   0.766   0.581   6.437  0.0853 -0.8703  1.2645
  169DOPC   C2420532   0.807   0.759   6.310  0.0119  0.4432 -0.7199
  169DOPC   H4R20533   0.916   0.777   6.319 -0.1323  1.8271 -1.4884
  169DOPC   H4S20534   0.762   0.860   6.315 -1.0850 -0.0503 -0.1079
  169DOPC   C2520535   0.781   0.678   6.182  0.1618 -0.1274 -0.7788
  169DOPC   H5R20536   0.672   0.677   6.164  0.1674 -2.4292 -0.9193
  169DOPC   H5S20537   0.810   0.575   6.210  1.3445  1.0417  2.8999
  169DOPC   C2620538   0.868   0.721   6.065 -0.2303  0.0090  0.0447
  169DOPC   H6R20539   0.855   0.655   5.977  0.6584 -0.3546  0.1757
  169DOPC   H6S20540   0.976   0.703   6.079 -0.4669 -2.0853 -0.5578
  169DOPC   C2720541   0.843   0.869   6.027 -0.1360 -0.2765  0.5946
  169DOPC   H7R20542   0.747   0.901   6.074  0.2704 -0.1259  1.3261
  169DOPC   H7S20543   0.829   0.879   5.917  1.4759 -0.7032  0.3282
  169DOPC   C2820544   0.956   0.963   6.065 -0.5493 -0.4352  0.2310
  169DOPC   H8R20545   1.051   0.927   6.020 -0.6340 -1.9743  1.2132
  169DOPC   H8S20546   0.970   0.967   6.175 -3.0933  1.5981  0.5699
  169DOPC   C2920547   0.920   1.099   6.016 -0.1087 -0.0929  0.1272
  169DOPC   H9R20548   0.904   1.107   5.908  0.9590  2.3061  0.0859
  169DOPC  C21020549   0.884   1.214   6.081 -1.4279  0.1127  0.0983
  169DOPC  H10R20550   0.862   1.298   6.013  0.5016  1.0658  0.5761
  169DOPC  C21120551   0.860   1.234   6.226  0.4212  0.3850 -0.0087
  169DOPC  H11R20552   0.933   1.313   6.255  1.6074 -0.4734 -0.5675
  169DOPC  H11S20553   0.890   1.140   6.278 -2.1720 -0.2393  0.5175
  169DOPC  C21220554   0.710   1.265   6.276 -0.6228  0.1084 -0.1612
  169DOPC  H12R20555   0.670   1.358   6.231 -2.1924 -0.2551  0.3987
  169DOPC  H12S20556   0.712   1.285   6.385  2.5267 -1.0964  0.1159
  169DOPC  C21320557   0.611   1.155   6.251  0.3496 -0.3738 -0.3431
  169DOPC  H13R20558   0.635   1.058   6.300 -1.3820 -1.4973 -1.5797
  169DOPC  H13S20559   0.614   1.147   6.140 -0.1183 -0.3004 -0.3647
  169DOPC  C21420560   0.462   1.178   6.278 -0.1244 -0.7698 -0.3109
  169DOPC  H14R20561   0.450   1.226   6.377  0.3355  0.1915 -0.7132
  169DOPC  H14S20562   0.411   1.080   6.266 -0.8939 -0.7280  2.1158
  169DOPC  C21520563   0.394   1.268   6.172  0.3316 -0.8594 -0.2595
  169DOPC  H15R20564   0.412   1.222   6.073  1.2692  2.3274 -1.6745
  169DOPC  H15S20565   0.445   1.365   6.185  0.6758 -1.1031  0.2724
  169DOPC  C21620566   0.243   1.299   6.197  0.9119 -0.1216  0.2661
  169DOPC  H16R20567   0.235   1.334   6.302  1.1196 -0.1442  0.2907
  169DOPC  H16S20568   0.179   1.208   6.198  1.7530 -0.7283  0.4502
  169DOPC  C21720569   0.177   1.401   6.097 -0.2094  0.4783 -0.7832
  169DOPC  H17R20570   0.068   1.386   6.085 -0.4853  0.3581  1.5983
  169DOPC  H17S20571   0.230   1.387   6.000  0.7351 -0.0850 -0.2043
  169DOPC  C21820572   0.209   1.546   6.134  0.1964  0.0722 -0.1575
  169DOPC  H18R20573   0.319   1.557   6.135  0.2157 -0.0303  1.3072
  169DOPC  H18S20574   0.167   1.564   6.236 -0.1531  2.0122 -0.5885
  169DOPC  H18T20575   0.155   1.613   6.064 -0.5957 -1.9666 -1.5867
  169DOPC   C3320576   1.200   1.053   6.404  0.1701 -0.4640  0.9245
  169DOPC   H3X20577   1.292   1.068   6.343  0.6440 -0.1170  1.7046
  169DOPC   H3Y20578   1.118   1.101   6.346  0.9400 -1.3002 -0.9317
  169DOPC   C3420579   1.171   0.904   6.391  0.3399  0.7240  0.5354
  169DOPC   H4X20580   1.151   0.876   6.285  1.2536 -0.8433  0.7454
  169DOPC   H4Y20581   1.073   0.889   6.442 -1.2659  0.6546 -2.3252
  169DOPC   C3520582   1.281   0.816   6.449  0.0368 -0.3488 -0.0522
  169DOPC   H5X20583   1.310   0.854   6.550 -2.8688  1.5756  0.1856
  169DOPC   H5Y20584   1.367   0.814   6.378  0.7799 -0.1956  0.8237
  169DOPC   C3620585   1.243   0.672   6.456 -0.3325  0.3301 -0.0588
  169DOPC   H6X20586   1.316   0.608   6.510  0.3705  0.7485 -0.4977
  169DOPC   H6Y20587   1.156   0.663   6.525 -0.2638  1.6836  0.2398
  169DOPC   C3720588   1.229   0.599   6.320 -0.0119 -0.2847  0.6396
  169DOPC   H7X20589   1.178   0.668   6.249 -0.7848 -0.5464  0.9322
  169DOPC   H7Y20590   1.334   0.588   6.284 -0.2023 -0.1674  0.0353
  169DOPC   C3820591   1.178   0.461   6.324  0.7090 -0.1049 -0.5757
  169DOPC   H8X20592   1.085   0.460   6.385  0.6611  0.8939 -0.6250
  169DOPC   H8Y20593   1.247   0.384   6.366 -0.4776 -0.9815 -0.1590
  169DOPC   C3920594   1.129   0.416   6.185 -0.4478  0.2919 -0.0556
  169DOPC   H9X20595   1.038   0.469   6.153  0.9663  3.2137  0.4372
  169DOPC  C31020596   1.166   0.306   6.115  0.4572  0.5335 -0.4957
  169DOPC  H10X20597   1.096   0.285   6.033 -2.5798  0.3834  1.9140
  169DOPC  C31120598   1.266   0.199   6.149 -0.0078  0.3158 -0.4139
  169DOPC  H11X20599   1.214   0.104   6.176  1.3349 -1.0111 -2.1969
  169DOPC  H11Y20600   1.321   0.224   6.242 -0.4376  0.7512 -0.2731
  169DOPC  C31220601   1.382   0.175   6.048 -0.2677 -0.0816 -0.8490
  169DOPC  H12X20602   1.452   0.105   6.098 -1.7561  1.2610  3.5447
  169DOPC  H12Y20603   1.434   0.272   6.032  1.2878 -0.8749 -0.8031
  169DOPC  C31320604   1.329   0.112   5.917  0.5053 -0.1016  0.4396
  169DOPC  H13X20605   1.305   0.008   5.948  1.7158  0.0728  2.1424
  169DOPC  H13Y20606   1.240   0.164   5.875 -0.4887 -0.7857  1.6440
  169DOPC  C31420607   1.427   0.108   5.798 -0.3064  0.6695 -0.2859
  169DOPC  H14X20608   1.455   0.212   5.771  0.9482  0.1776 -0.9517
  169DOPC  H14Y20609   1.513   0.045   5.828 -1.0521  1.1649  3.2519
  169DOPC  C31520610   1.378   0.018   5.682  0.4535 -0.2200  0.5049
  169DOPC  H15X20611   1.283   0.055   5.639  0.7859 -0.3991 -0.3878
  169DOPC  H15Y20612   1.378  -0.084   5.727  1.3405  0.8732  3.2395
  169DOPC  C31620613   1.482   0.025   5.565  0.1777  0.9054  0.0347
  169DOPC  H16X20614   1.502   0.132   5.545 -0.9788  1.4857  1.7815
  169DOPC  H16Y20615   1.573  -0.020   5.611 -0.1154  1.4821  1.1953
  169DOPC  C31720616   1.444  -0.046   5.431 -0.6652 -0.7153  0.3871
  169DOPC  H17X20617   1.415  -0.153   5.442 -0.0501 -0.9504 -0.2126
  169DOPC  H17Y20618   1.364   0.016   5.385  1.7362  1.2996 -1.3859
  169DOPC  C31820619   1.563  -0.043   5.336  0.5153 -0.1858  1.3372
  169DOPC  H18X20620   1.539  -0.113   5.252 -1.4099  0.6423  1.1371
  169DOPC  H18Y20621   1.573   0.062   5.301 -1.6957 -0.5516 -0.6780
  169DOPC  H18Z20622   1.660  -0.075   5.378  1.4950  1.2212  0.2418
  170DOPC     N20623   5.817   7.018   7.473  0.4430  0.3314 -0.9591
  170DOPC   C1220624   5.793   7.005   7.325  0.7681  0.0643  0.6496
  170DOPC  H12A20625   5.692   7.040   7.304  0.5204 -0.3739  1.1026
  170DOPC  H12B20626   5.788   6.898   7.310  3.0036  0.1124 -0.9196
  170DOPC   C1320627   5.718   6.922   7.545  0.0330 -0.6270  0.2895
  170DOPC  H13A20628   5.712   6.949   7.650 -1.6853 -0.9161  0.2950
  170DOPC  H13B20629   5.615   6.930   7.515  0.1042 -1.0050 -0.0576
  170DOPC  H13C20630   5.752   6.819   7.544  2.4076  0.0923  0.3541
  170DOPC   C1420631   5.781   7.154   7.521 -0.2966  0.2563  0.3928
  170DOPC  H14A20632   5.791   7.166   7.628  1.5985  0.1689  0.2681
  170DOPC  H14B20633   5.843   7.233   7.481 -1.3491  0.6020 -0.5930
  170DOPC  H14C20634   5.680   7.177   7.491 -0.5207 -0.7539  0.3463
  170DOPC   C1520635   5.962   6.990   7.507 -0.4046 -0.9863 -0.4897
  170DOPC  H15A20636   5.989   6.888   7.485  1.4069 -0.4027 -1.1189
  170DOPC  H15B20637   5.982   7.010   7.611  1.8834  0.5311 -1.1578
  170DOPC  H15C20638   6.029   7.052   7.451 -1.1154 -1.0753 -1.4645
  170DOPC   C1120639   5.875   7.084   7.219 -0.5244  0.4335 -0.1844
  170DOPC  H11A20640   5.983   7.086   7.245 -0.0917  2.0077 -1.8769
  170DOPC  H11B20641   5.874   7.034   7.120 -2.3114 -0.9459  0.4813
  170DOPC     P20642   5.893   7.351   7.236 -0.1740 -0.1793 -0.0320
  170DOPC   O1320643   5.990   7.340   7.347  0.0326 -0.6059  0.2843
  170DOPC   O1420644   5.785   7.456   7.257 -0.3215  0.5711 -0.3935
  170DOPC   O1220645   5.825   7.216   7.200  0.5356  0.5839 -0.1063
  170DOPC   O1120646   5.971   7.385   7.105  0.4586  0.5929  0.0876
  170DOPC    C120647   5.919   7.386   6.978  0.0804 -0.5553  0.8821
  170DOPC    HA20648   5.886   7.487   6.948  1.5646 -0.1096  0.6658
  170DOPC    HB20649   5.833   7.318   6.960 -1.3110  1.1558  0.7880
  170DOPC    C220650   6.026   7.336   6.881 -0.0316  0.1962  0.1691
  170DOPC    HS20651   6.119   7.396   6.894  1.2130 -1.6307 -0.0659
  170DOPC   O2120652   5.981   7.338   6.745  0.4186 -0.1365 -0.0394
  170DOPC   C2120653   6.036   7.430   6.670 -0.0104 -0.5434  0.7415
  170DOPC   O2220654   6.105   7.524   6.713  0.4064 -0.3828 -0.0920
  170DOPC   C2220655   5.996   7.424   6.525  0.1162  0.8591  0.3250
  170DOPC   H2R20656   6.021   7.517   6.471  0.9449 -0.2857 -1.3711
  170DOPC   H2S20657   5.885   7.411   6.526  0.0721  1.1065 -0.3657
  170DOPC    C320658   6.067   7.197   6.920  0.4475  0.3833  0.6002
  170DOPC    HX20659   5.976   7.134   6.927  0.2313  0.3620 -1.7933
  170DOPC    HY20660   6.101   7.196   7.026 -1.7274  0.2707  1.3324
  170DOPC   O3120661   6.171   7.140   6.843 -0.6924 -0.5848 -0.3015
  170DOPC   C3120662   6.162   7.013   6.831  0.0278  0.1215  0.4270
  170DOPC   O3220663   6.075   6.940   6.888 -0.5455 -0.7155  0.4963
  170DOPC   C3220664   6.254   6.965   6.716 -1.1539 -0.3846 -0.4733
  170DOPC   H2X20665   6.347   7.025   6.727  0.9342 -3.4522 -0.0321
  170DOPC   H2Y20666   6.257   6.858   6.748 -3.4129 -0.7489 -1.3049
  170DOPC   C2320667   6.066   7.314   6.447  0.0889  0.5154 -0.3256
  170DOPC   H3R20668   6.031   7.210   6.467 -0.4603  1.1304  2.3053
  170DOPC   H3S20669   6.175   7.311   6.467 -0.4856 -2.4995  3.5310
  170DOPC   C2420670   6.044   7.343   6.297 -0.1008  0.0542 -0.6339
  170DOPC   H4R20671   6.048   7.454   6.285 -0.4936  0.1262 -0.1200
  170DOPC   H4S20672   5.942   7.326   6.258 -0.0485  1.2927 -1.3648
  170DOPC   C2520673   6.140   7.274   6.201  0.3822 -0.1982  0.2505
  170DOPC   H5R20674   6.118   7.165   6.203  1.9877 -0.5629 -0.4565
  170DOPC   H5S20675   6.242   7.303   6.232 -0.5649  2.3691  1.2267
  170DOPC   C2620676   6.134   7.330   6.060 -0.0893 -0.2035  0.5956
  170DOPC   H6R20677   6.181   7.429   6.077  1.0489 -0.8263  1.2027
  170DOPC   H6S20678   6.031   7.340   6.020  0.1347 -1.5153 -0.3680
  170DOPC   C2720679   6.217   7.240   5.964  0.3574  0.1702  0.2602
  170DOPC   H7R20680   6.167   7.140   5.966 -0.1099  0.3468 -1.2665
  170DOPC   H7S20681   6.323   7.233   5.996  0.3123 -0.3338  0.3198
  170DOPC   C2820682   6.218   7.294   5.822  0.7126 -0.0677  0.4701
  170DOPC   H8R20683   6.312   7.280   5.766 -0.0696  0.8857 -1.1371
  170DOPC   H8S20684   6.215   7.404   5.836  1.6509 -0.0511  0.6008
  170DOPC   C2920685   6.093   7.251   5.749  1.2778  0.1668 -0.4684
  170DOPC   H9R20686   6.004   7.305   5.784  0.0011 -1.2742 -1.4097
  170DOPC  C21020687   6.081   7.157   5.654  0.3619  0.0848  0.4528
  170DOPC  H10R20688   5.986   7.136   5.601  0.8720  1.3151 -1.0302
  170DOPC  C21120689   6.196   7.072   5.612 -0.0757  0.3536 -0.1136
  170DOPC  H11R20690   6.290   7.129   5.596 -0.0258  0.2194 -0.2953
  170DOPC  H11S20691   6.177   7.024   5.514 -1.9810  2.3468 -0.8228
  170DOPC  C21220692   6.209   6.957   5.709 -0.2795  0.0050 -0.0102
  170DOPC  H12R20693   6.117   6.899   5.731 -0.1718  0.1551  0.8579
  170DOPC  H12S20694   6.250   6.993   5.806 -0.3057 -1.1168  0.4370
  170DOPC  C21320695   6.313   6.861   5.659 -0.4351  0.0412 -0.7613
  170DOPC  H13R20696   6.329   6.785   5.739 -0.8017  1.7652  1.0334
  170DOPC  H13S20697   6.406   6.921   5.660 -1.5667  1.8920  0.2433
  170DOPC  C21420698   6.281   6.794   5.529 -0.3175  0.1720 -0.1490
  170DOPC  H14R20699   6.381   6.760   5.496 -0.4496 -1.5945  1.1516
  170DOPC  H14S20700   6.238   6.858   5.449 -3.2250  1.4867  2.2331
  170DOPC  C21520701   6.196   6.668   5.557  0.5668 -0.3645 -0.3987
  170DOPC  H15R20702   6.097   6.682   5.605  0.3466 -0.6791 -0.7537
  170DOPC  H15S20703   6.254   6.596   5.619  1.2732  1.9177  1.7862
  170DOPC  C21620704   6.163   6.605   5.417 -0.1709  0.1441 -0.0833
  170DOPC  H16R20705   6.258   6.598   5.359 -0.6412 -1.8321 -0.6926
  170DOPC  H16S20706   6.103   6.682   5.364 -0.4395  0.3613  0.5284
  170DOPC  C21720707   6.094   6.467   5.413  0.5286 -0.2169 -0.9980
  170DOPC  H17R20708   6.103   6.434   5.307  1.3479 -0.8372 -0.7492
  170DOPC  H17S20709   5.989   6.481   5.445  0.8321  0.3792 -0.2344
  170DOPC  C21820710   6.142   6.365   5.509  0.2013  0.5231  0.0468
  170DOPC  H18R20711   6.116   6.385   5.615 -0.3067  0.2465 -0.0222
  170DOPC  H18S20712   6.250   6.338   5.512 -0.4877 -2.7032  3.0655
  170DOPC  H18T20713   6.098   6.265   5.490 -1.0035  1.1727 -0.7122
  170DOPC   C3320714   6.194   6.963   6.579  0.3321 -0.5545 -0.8037
  170DOPC   H3X20715   6.117   7.041   6.560  0.6077 -0.5475 -1.9433
  170DOPC   H3Y20716   6.171   6.860   6.546 -0.9075 -0.1620 -1.2427
  170DOPC   C3420717   6.301   7.017   6.479 -0.7126  0.4522 -0.0824
  170DOPC   H4X20718   6.334   7.114   6.521 -0.1109  0.7690 -1.2279
  170DOPC   H4Y20719   6.238   7.037   6.390  0.5921  0.3173 -1.0717
  170DOPC   C3520720   6.413   6.923   6.438  0.1013 -0.4457  0.5520
  170DOPC   H5X20721   6.371   6.825   6.405 -1.4736  0.7747 -1.2290
  170DOPC   H5Y20722   6.481   6.905   6.525  0.9787 -2.1264 -0.4230
  170DOPC   C3620723   6.501   6.992   6.326 -0.8630 -0.7556 -0.4248
  170DOPC   H6X20724   6.532   7.094   6.356 -0.5433 -0.9949  0.0622
  170DOPC   H6Y20725   6.587   6.922   6.325 -0.2940 -0.0662 -0.2842
  170DOPC   C3720726   6.436   6.978   6.191  0.0295 -0.2028  0.7302
  170DOPC   H7X20727   6.391   6.877   6.182 -2.8003  1.1452 -1.9926
  170DOPC   H7Y20728   6.359   7.056   6.172 -0.0359 -0.8885 -2.3640
  170DOPC   C3820729   6.547   6.995   6.076 -0.0709  0.4480 -1.1254
  170DOPC   H8X20730   6.501   6.972   5.977  1.0751 -1.7901 -1.2056
  170DOPC   H8Y20731   6.625   6.920   6.101 -0.1902  1.1522  1.6991
  170DOPC   C3920732   6.608   7.129   6.070  0.7314 -0.0577  0.5037
  170DOPC   H9X20733   6.549   7.203   6.126 -0.1713 -0.9231  0.7312
  170DOPC  C31020734   6.720   7.154   5.998 -0.4459 -0.0662 -0.2057
  170DOPC  H10X20735   6.753   7.259   5.993  0.4334 -0.1788  1.9686
  170DOPC  C31120736   6.799   7.053   5.913 -0.5399 -0.6405 -0.1438
  170DOPC  H11X20737   6.754   6.952   5.924  2.4184 -1.9780  0.5448
  170DOPC  H11Y20738   6.896   7.043   5.966  0.2525 -0.8132 -1.5846
  170DOPC  C31220739   6.819   7.095   5.762 -0.4257 -0.1428 -0.7117
  170DOPC  H12X20740   6.887   7.019   5.716  1.5484  1.3862 -0.4305
  170DOPC  H12Y20741   6.880   7.186   5.746  0.3364 -0.6738 -0.9019
  170DOPC  C31320742   6.683   7.101   5.681 -0.4318  0.8507 -0.1743
  170DOPC  H13X20743   6.624   7.008   5.695  0.7175 -0.0225 -0.9513
  170DOPC  H13Y20744   6.621   7.172   5.740 -2.2851 -0.4356 -0.4760
  170DOPC  C31420745   6.691   7.146   5.544  0.7056 -0.1515  0.7880
  170DOPC  H14X20746   6.671   7.255   5.532  2.6362  0.3765  1.9168
  170DOPC  H14Y20747   6.789   7.120   5.497  0.9537  0.8517  0.7351
  170DOPC  C31520748   6.579   7.086   5.444 -0.2270 -0.2017 -0.9086
  170DOPC  H15X20749   6.481   7.113   5.489  0.1621 -1.3909  0.7524
  170DOPC  H15Y20750   6.581   6.976   5.459 -0.9240  0.0262  1.0948
  170DOPC  C31620751   6.588   7.122   5.296  0.5147 -0.0764 -0.3076
  170DOPC  H16X20752   6.556   7.228   5.291  2.4618  0.5486 -0.5143
  170DOPC  H16Y20753   6.697   7.128   5.273  0.3698  1.9371 -0.6455
  170DOPC  C31720754   6.501   7.044   5.197  0.3688  0.5661 -0.7151
  170DOPC  H17X20755   6.397   7.048   5.235  0.8011  2.2563  0.4271
  170DOPC  H17Y20756   6.505   7.099   5.101 -1.7263  0.5818 -0.8337
  170DOPC  C31820757   6.528   6.890   5.186  0.3166  0.3369 -0.0411
  170DOPC  H18X20758   6.575   6.858   5.282  1.3483  1.7743 -0.0298
  170DOPC  H18Y20759   6.432   6.838   5.167  0.1824  0.7726 -0.5691
  170DOPC  H18Z20760   6.597   6.871   5.100 -0.3693 -2.4709 -0.0801
  171DOPC     N20761   4.041   3.721   2.612 -0.1345  0.4455  0.3016
  171DOPC   C1220762   4.059   3.626   2.732  0.5989 -0.4654  0.0596
  171DOPC  H12A20763   4.162   3.622   2.765  0.8037 -1.0635 -0.6307
  171DOPC  H12B20764   4.040   3.525   2.701 -0.2188 -0.7603  1.4922
  171DOPC   C1320765   4.113   3.665   2.493 -0.5047  0.4744 -0.0479
  171DOPC  H13A20766   4.083   3.724   2.408 -2.0187  0.2840  0.3326
  171DOPC  H13B20767   4.220   3.665   2.511 -0.3720 -2.4997 -0.3988
  171DOPC  H13C20768   4.091   3.562   2.471  0.0201  0.7011 -1.7894
  171DOPC   C1420769   4.093   3.859   2.636 -0.2482 -0.0651  0.3374
  171DOPC  H14A20770   4.122   3.902   2.541  2.0179 -1.1018  0.4820
  171DOPC  H14B20771   4.023   3.917   2.694 -1.3909 -0.5020 -0.5768
  171DOPC  H14C20772   4.183   3.854   2.695 -0.3616 -1.9898  0.4029
  171DOPC   C1520773   3.888   3.732   2.580 -0.9747  0.0222 -0.6322
  171DOPC  H15A20774   3.842   3.791   2.658 -2.2995 -1.2671 -0.4060
  171DOPC  H15B20775   3.829   3.642   2.572  0.5930 -1.4202  2.4774
  171DOPC  H15C20776   3.881   3.787   2.487  0.2102  2.5354  0.6642
  171DOPC   C1120777   3.970   3.648   2.855 -0.1195 -0.2553 -0.3873
  171DOPC  H11A20778   3.860   3.657   2.839 -0.6428 -0.9290  2.2841
  171DOPC  H11B20779   3.973   3.552   2.911  0.0274  0.7545  1.4102
  171DOPC     P20780   4.132   3.757   3.031 -0.1923  0.6006 -0.4512
  171DOPC   O1320781   4.142   3.890   3.096  0.6839 -0.3562  0.0443
  171DOPC   O1420782   4.252   3.700   2.968 -0.0459  0.1469  0.2579
  171DOPC   O1220783   4.016   3.765   2.926 -0.4251  0.1588 -0.5244
  171DOPC   O1120784   4.068   3.661   3.139  0.1647  0.2607 -0.2310
  171DOPC    C120785   3.958   3.689   3.227  0.0569  0.1436  0.0901
  171DOPC    HA20786   3.914   3.590   3.251  0.1485 -0.3862 -1.7492
  171DOPC    HB20787   3.884   3.761   3.186  0.6482  0.8899  0.3033
  171DOPC    C220788   4.013   3.763   3.363 -0.1182 -0.2757 -0.3390
  171DOPC    HS20789   3.925   3.753   3.430  0.3072 -0.1783  0.2434
  171DOPC   O2120790   4.051   3.902   3.352 -0.0146 -0.4590  0.5367
  171DOPC   C2120791   3.957   3.991   3.316  0.9899 -0.4392  0.6306
  171DOPC   O2220792   3.841   3.960   3.286 -0.2985  0.0759 -0.4991
  171DOPC   C2220793   4.021   4.138   3.315  0.5275 -0.4838  0.2344
  171DOPC   H2R20794   4.058   4.140   3.210  4.2556 -0.6507  1.4057
  171DOPC   H2S20795   4.104   4.145   3.389 -0.1193  0.8648  0.8723
  171DOPC    C320796   4.124   3.667   3.427  0.6119  0.0196  0.1958
  171DOPC    HX20797   4.216   3.696   3.372  0.5065  1.9340  0.9462
  171DOPC    HY20798   4.100   3.561   3.404  2.1697  0.1739 -2.5165
  171DOPC   O3120799   4.138   3.698   3.566  0.0100 -0.7353 -0.3064
  171DOPC   C3120800   4.270   3.684   3.598 -0.9623  0.3333 -0.5399
  171DOPC   O3220801   4.362   3.635   3.535  0.1263  0.1476 -0.4949
  171DOPC   C3220802   4.285   3.734   3.743  0.2221  0.3184  0.0358
  171DOPC   H2X20803   4.367   3.809   3.744  3.5147 -2.9716  1.2183
  171DOPC   H2Y20804   4.189   3.776   3.780 -0.4438 -2.5423  1.8821
  171DOPC   C2320805   3.919   4.249   3.336  0.2992 -0.4254 -0.2461
  171DOPC   H3R20806   3.814   4.221   3.314  0.1436  0.0886 -0.1812
  171DOPC   H3S20807   3.943   4.335   3.269 -0.6042 -0.0416 -0.0849
  171DOPC   C2420808   3.920   4.305   3.479  0.2088  0.3314  0.9922
  171DOPC   H4R20809   3.866   4.401   3.491 -1.8036 -0.0599 -3.0572
  171DOPC   H4S20810   4.023   4.315   3.518  0.5178 -1.9830  0.9281
  171DOPC   C2520811   3.852   4.208   3.574 -0.2702  0.3414 -0.1329
  171DOPC   H5R20812   3.897   4.107   3.562 -0.7742 -0.0140  0.8669
  171DOPC   H5S20813   3.747   4.197   3.539 -0.6384  0.8976  0.7527
  171DOPC   C2620814   3.839   4.252   3.720  0.1588  0.0214 -0.0815
  171DOPC   H6R20815   3.786   4.350   3.716  1.5593  0.7872 -0.4548
  171DOPC   H6S20816   3.942   4.278   3.753  0.2034 -1.0980  0.6888
  171DOPC   C2720817   3.775   4.149   3.816 -0.3719  0.3854  0.1406
  171DOPC   H7R20818   3.842   4.060   3.815 -0.1731  0.5350 -0.1613
  171DOPC   H7S20819   3.676   4.115   3.778 -1.2875 -0.7830  3.2503
  171DOPC   C2820820   3.750   4.194   3.962 -0.3455 -0.2467  0.4090
  171DOPC   H8R20821   3.847   4.201   4.015 -0.1327 -0.4181  0.0446
  171DOPC   H8S20822   3.684   4.116   4.007 -2.0551  1.0428  0.2460
  171DOPC   C2920823   3.675   4.321   3.974  0.5159 -0.8212  0.7481
  171DOPC   H9R20824   3.694   4.394   3.894 -1.3517 -0.3122  0.7141
  171DOPC  C21020825   3.605   4.367   4.082  0.8865 -0.1140 -0.2621
  171DOPC  H10R20826   3.579   4.473   4.078  0.2624 -0.2937 -1.5039
  171DOPC  C21120827   3.562   4.281   4.200 -0.3933  0.0501  0.9110
  171DOPC  H11R20828   3.617   4.315   4.290  0.3228  1.4869 -0.0381
  171DOPC  H11S20829   3.588   4.176   4.175 -2.1391 -0.0507 -0.6925
  171DOPC  C21220830   3.415   4.278   4.237 -0.1376 -0.2991 -0.1673
  171DOPC  H12R20831   3.401   4.197   4.312 -0.6326 -0.3848 -0.3429
  171DOPC  H12S20832   3.355   4.242   4.151 -1.3177 -0.5186  0.7245
  171DOPC  C21320833   3.357   4.407   4.294  0.2398 -0.0015 -0.3088
  171DOPC  H13R20834   3.254   4.389   4.330  1.2060 -0.0221  2.7517
  171DOPC  H13S20835   3.343   4.490   4.222  1.8551  1.2006  0.6945
  171DOPC  C21420836   3.445   4.471   4.407  0.3080 -0.4301  0.2101
  171DOPC  H14R20837   3.547   4.503   4.376  0.2248  0.1099  0.4784
  171DOPC  H14S20838   3.463   4.399   4.490 -0.9301  0.6651  1.4686
  171DOPC  C21520839   3.362   4.589   4.469  0.3518  0.2116 -0.5485
  171DOPC  H15R20840   3.276   4.534   4.514 -0.7176  2.1006 -0.1549
  171DOPC  H15S20841   3.326   4.651   4.384  0.6237  2.1690  0.7011
  171DOPC  C21620842   3.438   4.674   4.574  0.1597  0.5688  0.4505
  171DOPC  H16R20843   3.533   4.718   4.537  0.1589 -0.6349 -1.1007
  171DOPC  H16S20844   3.464   4.619   4.667 -0.9753 -2.1807 -0.7542
  171DOPC  C21720845   3.346   4.789   4.625 -0.2598 -0.4532 -0.3542
  171DOPC  H17R20846   3.256   4.747   4.674  1.4654 -3.5232  0.4708
  171DOPC  H17S20847   3.306   4.840   4.535 -3.5872 -1.7880  0.2033
  171DOPC  C21820848   3.426   4.894   4.701 -0.4964 -1.0273  0.8538
  171DOPC  H18R20849   3.382   4.995   4.692  0.1820 -0.7660  0.3920
  171DOPC  H18S20850   3.531   4.892   4.666 -1.3199 -0.2160 -1.8976
  171DOPC  H18T20851   3.413   4.878   4.810  1.2477  0.1069  1.2795
  171DOPC   C3320852   4.307   3.622   3.857 -0.5851 -0.3207  0.2092
  171DOPC   H3X20853   4.405   3.573   3.841 -0.0919  0.7400 -0.1182
  171DOPC   H3Y20854   4.221   3.551   3.852 -1.2534  0.5606 -1.6967
  171DOPC   C3420855   4.324   3.688   3.998 -0.2525 -0.2384  0.9926
  171DOPC   H4X20856   4.235   3.754   4.012  0.1009  1.6452 -3.6557
  171DOPC   H4Y20857   4.417   3.749   3.999  0.7148 -1.2504 -3.7915
  171DOPC   C3520858   4.352   3.590   4.114  0.1846 -0.3659  0.3218
  171DOPC   H5X20859   4.431   3.513   4.104 -0.8099 -1.5386  1.1798
  171DOPC   H5Y20860   4.261   3.529   4.128  1.2005 -1.7339  1.2307
  171DOPC   C3620861   4.390   3.673   4.233  0.2042  0.2703  0.2558
  171DOPC   H6X20862   4.500   3.687   4.240  0.6700 -2.6737  0.4439
  171DOPC   H6Y20863   4.342   3.772   4.221  0.2003  0.3110  0.6117
  171DOPC   C3720864   4.348   3.611   4.370  0.0942 -0.6175 -0.2190
  171DOPC   H7X20865   4.366   3.685   4.451 -1.1534 -0.8726  0.3001
  171DOPC   H7Y20866   4.239   3.595   4.370 -0.6099  3.1067  0.7208
  171DOPC   C3820867   4.424   3.486   4.401  0.0638 -0.1605 -0.4385
  171DOPC   H8X20868   4.402   3.428   4.309  0.1943  1.9697 -1.8728
  171DOPC   H8Y20869   4.368   3.436   4.483  0.8787  0.2605  0.3914
  171DOPC   C3920870   4.573   3.506   4.429 -0.1260  0.2630 -0.5330
  171DOPC   H9X20871   4.631   3.512   4.336 -1.3059 -1.1939 -1.4003
  171DOPC  C31020872   4.628   3.523   4.556  0.4262  1.0454  0.8116
  171DOPC  H10X20873   4.736   3.538   4.565  0.3269  0.4256  3.9482
  171DOPC  C31120874   4.543   3.533   4.683 -0.2936 -0.0892 -0.2938
  171DOPC  H11X20875   4.437   3.521   4.652 -0.1822 -2.2398  0.0308
  171DOPC  H11Y20876   4.553   3.640   4.713 -0.9472 -0.5452  1.6883
  171DOPC  C31220877   4.582   3.446   4.802 -0.0399  0.0944 -0.1143
  171DOPC  H12X20878   4.533   3.490   4.891 -0.2709  2.1369 -1.1993
  171DOPC  H12Y20879   4.690   3.465   4.818  0.2212 -0.1643 -1.4682
  171DOPC  C31320880   4.569   3.296   4.788  0.1447 -0.7509  0.5714
  171DOPC  H13X20881   4.464   3.278   4.756 -0.0626  0.8359  0.2305
  171DOPC  H13Y20882   4.641   3.260   4.712  0.6165  1.5895 -0.2006
  171DOPC  C31420883   4.602   3.216   4.917 -0.7016 -0.2570 -0.0840
  171DOPC  H14X20884   4.610   3.110   4.884  1.1229  0.3574 -1.8010
  171DOPC  H14Y20885   4.702   3.247   4.954 -1.7713  1.2448  1.7856
  171DOPC  C31520886   4.488   3.228   5.028 -0.3819 -0.1128 -0.3624
  171DOPC  H15X20887   4.410   3.170   4.975  0.2173  0.2939 -1.7228
  171DOPC  H15Y20888   4.461   3.335   5.039  0.4923  0.1278 -0.4793
  171DOPC  C31620889   4.535   3.172   5.166  0.2622  0.3387 -0.3698
  171DOPC  H16X20890   4.450   3.159   5.236 -0.9114 -1.3281 -2.0230
  171DOPC  H16Y20891   4.583   3.075   5.145  2.0184  1.0578  0.1407
  171DOPC  C31720892   4.631   3.252   5.250 -0.2070  0.2579 -0.0575
  171DOPC  H17X20893   4.725   3.269   5.193  1.0601  0.7050  2.0796
  171DOPC  H17Y20894   4.572   3.346   5.254  0.8769  1.1103 -2.1863
  171DOPC  C31820895   4.666   3.186   5.389  0.0538  0.1388 -0.4826
  171DOPC  H18X20896   4.580   3.182   5.459 -1.4870  0.3880 -2.2759
  171DOPC  H18Y20897   4.694   3.079   5.381  0.5151  0.0593  1.7705
  171DOPC  H18Z20898   4.747   3.242   5.440 -1.0433  1.4210 -0.0947
  172DOPC     N20899   3.625   5.584   2.850 -0.2057 -0.2747  0.9711
  172DOPC   C1220900   3.532   5.701   2.867 -0.7197 -0.2928 -0.3576
  172DOPC  H12A20901   3.530   5.763   2.778 -0.7903 -2.6188 -2.0533
  172DOPC  H12B20902   3.572   5.764   2.946  1.1464  0.7171 -1.9964
  172DOPC   C1320903   3.614   5.486   2.956  0.2613 -0.3178  0.0562
  172DOPC  H13A20904   3.676   5.398   2.952 -0.1264 -0.6128  0.4294
  172DOPC  H13B20905   3.621   5.542   3.049  0.5779  0.7121 -0.5707
  172DOPC  H13C20906   3.513   5.448   2.955 -0.9193  2.5185  0.1586
  172DOPC   C1420907   3.769   5.641   2.851 -0.0609 -0.0686 -0.2871
  172DOPC  H14A20908   3.839   5.566   2.819  0.1761  0.3659 -0.8118
  172DOPC  H14B20909   3.778   5.726   2.784  0.8184  0.4440  0.4689
  172DOPC  H14C20910   3.797   5.664   2.953  0.1721 -2.6528  0.3042
  172DOPC   C1520911   3.606   5.520   2.707  0.1437 -0.3196 -0.6571
  172DOPC  H15A20912   3.684   5.451   2.682  0.1988 -0.5929  0.2143
  172DOPC  H15B20913   3.606   5.600   2.634 -3.3223 -0.1089 -0.5734
  172DOPC  H15C20914   3.514   5.466   2.691 -0.8820  0.8661  0.8024
  172DOPC   C1120915   3.384   5.663   2.897  0.5100 -0.3570 -0.1860
  172DOPC  H11A20916   3.360   5.610   2.991 -0.6194  2.4667  1.2552
  172DOPC  H11B20917   3.341   5.766   2.904  1.3223 -0.0261  0.1613
  172DOPC     P20918   3.220   5.480   2.801 -0.1177  0.5505  0.2208
  172DOPC   O1320919   3.291   5.345   2.803 -0.3440  0.2342 -0.4800
  172DOPC   O1420920   3.119   5.490   2.696  0.1885 -0.3579  0.4716
  172DOPC   O1220921   3.328   5.598   2.782  0.2596 -0.2188 -0.9820
  172DOPC   O1120922   3.159   5.497   2.945  1.2542  0.3053 -0.8099
  172DOPC    C120923   3.064   5.599   2.975  0.5045  0.3597 -0.2686
  172DOPC    HA20924   2.977   5.539   3.006  0.9793 -1.3616 -2.0486
  172DOPC    HB20925   3.035   5.662   2.888 -0.4736  0.2946  0.0064
  172DOPC    C220926   3.107   5.702   3.090 -0.6706 -0.5326  0.4320
  172DOPC    HS20927   3.179   5.764   3.034  0.1819 -1.2152  0.7373
  172DOPC   O2120928   3.180   5.634   3.193  0.2848  0.0389  0.2545
  172DOPC   C2120929   3.253   5.723   3.263 -0.2558 -0.4372  0.2272
  172DOPC   O2220930   3.279   5.834   3.220 -0.3241 -0.1900 -0.9300
  172DOPC   C2220931   3.299   5.677   3.401 -0.4299  0.3601  0.4121
  172DOPC   H2R20932   3.403   5.711   3.416 -0.7540  0.8315  1.6680
  172DOPC   H2S20933   3.303   5.566   3.408 -2.2234  0.1639 -0.9722
  172DOPC    C320934   2.978   5.771   3.148 -0.6089  0.2881 -0.0211
  172DOPC    HX20935   2.928   5.815   3.060  0.4443  1.1481 -0.2171
  172DOPC    HY20936   3.003   5.859   3.211  0.9642  1.3064 -1.9601
  172DOPC   O3120937   2.894   5.667   3.211  0.2134  0.2684 -0.2916
  172DOPC   C3120938   2.825   5.711   3.316 -0.4168 -0.6222  0.4197
  172DOPC   O3220939   2.825   5.818   3.370  0.0836 -0.3449  0.5980
  172DOPC   C3220940   2.739   5.602   3.361  0.5099 -0.5903  0.4195
  172DOPC   H2X20941   2.643   5.636   3.407 -0.4952 -3.2039  0.4456
  172DOPC   H2Y20942   2.719   5.532   3.277  2.5483 -1.1780  0.3931
  172DOPC   C2320943   3.190   5.728   3.502  0.2372  0.5200  0.3908
  172DOPC   H3R20944   3.087   5.708   3.466  0.6611  1.0420 -1.1729
  172DOPC   H3S20945   3.205   5.838   3.505  0.4353  0.4822  0.8082
  172DOPC   C2420946   3.219   5.691   3.648 -0.9902 -0.1304 -0.2284
  172DOPC   H4R20947   3.326   5.717   3.665 -0.5211 -1.6455 -0.7684
  172DOPC   H4S20948   3.203   5.582   3.660 -1.2319 -0.2549 -1.5342
  172DOPC   C2520949   3.133   5.766   3.748 -0.0643 -0.2014  0.1463
  172DOPC   H5R20950   3.030   5.725   3.742 -1.4323  2.8541  0.6304
  172DOPC   H5S20951   3.128   5.867   3.701 -0.7283 -1.1776 -2.0058
  172DOPC   C2620952   3.180   5.771   3.894 -0.2183  0.0765  0.1426
  172DOPC   H6R20953   3.289   5.793   3.885  0.2273 -2.1984 -0.6120
  172DOPC   H6S20954   3.160   5.672   3.939  0.9350 -0.1087  0.2815
  172DOPC   C2720955   3.127   5.887   3.972 -0.2585  0.5667 -0.0565
  172DOPC   H7R20956   3.017   5.900   3.960 -0.7756 -2.5769  0.2931
  172DOPC   H7S20957   3.171   5.979   3.927 -1.0806  1.7245  1.4133
  172DOPC   C2820958   3.169   5.881   4.118  0.4263 -0.0405  0.0112
  172DOPC   H8R20959   3.167   5.985   4.157  1.3128  0.0537 -0.1861
  172DOPC   H8S20960   3.273   5.845   4.133 -0.3365 -3.6727 -2.2063
  172DOPC   C2920961   3.072   5.787   4.190 -0.1806  0.1822 -0.4987
  172DOPC   H9R20962   3.053   5.692   4.139  0.0753  0.0485 -0.3521
  172DOPC  C21020963   3.022   5.803   4.313  0.1451  0.2686  0.0092
  172DOPC  H10R20964   2.954   5.726   4.353  1.5841  0.4723  3.0999
  172DOPC  C21120965   3.052   5.912   4.413  0.0603 -0.2357 -1.1782
  172DOPC  H11R20966   3.077   6.006   4.360 -0.8046  1.1717  0.7984
  172DOPC  H11S20967   3.137   5.891   4.481  0.8583  3.0252 -1.0143
  172DOPC  C21220968   2.929   5.933   4.509 -0.2062  0.4706 -0.1472
  172DOPC  H12R20969   2.834   5.932   4.452  0.1165  1.4818 -0.7382
  172DOPC  H12S20970   2.940   6.033   4.557 -1.7834  0.7395 -0.2963
  172DOPC  C21320971   2.908   5.821   4.611 -0.4550  0.5904  0.3699
  172DOPC  H13R20972   2.983   5.837   4.691  0.4077  0.5437 -0.4063
  172DOPC  H13S20973   2.949   5.732   4.560 -0.7809 -0.0059  1.1291
  172DOPC  C21420974   2.764   5.795   4.654  0.2034  0.3342  1.3159
  172DOPC  H14R20975   2.714   5.755   4.563  1.8447 -0.6540  0.8161
  172DOPC  H14S20976   2.706   5.885   4.686 -0.0050  1.4222 -1.7483
  172DOPC  C21520977   2.745   5.699   4.771  0.1983 -0.0997 -0.0010
  172DOPC  H15R20978   2.782   5.748   4.864 -1.1531 -0.2369  0.6468
  172DOPC  H15S20979   2.809   5.610   4.756  2.2391  1.2873  0.0657
  172DOPC  C21620980   2.595   5.669   4.805 -0.0802  0.2070 -0.3158
  172DOPC  H16R20981   2.544   5.604   4.730 -0.4442  1.4680 -1.1984
  172DOPC  H16S20982   2.546   5.769   4.810  2.3329  1.4834 -0.6921
  172DOPC  C21720983   2.564   5.619   4.950 -0.1302  0.1101  0.0418
  172DOPC  H17R20984   2.454   5.625   4.962 -0.0322 -0.8465  1.9268
  172DOPC  H17S20985   2.607   5.688   5.026  1.4950 -0.8522  0.0376
  172DOPC  C21820986   2.609   5.469   4.969 -0.7417 -0.5680  0.2965
  172DOPC  H18R20987   2.717   5.465   4.943 -0.7307  0.1585  0.2199
  172DOPC  H18S20988   2.562   5.401   4.895 -3.2349  0.7219  0.5937
  172DOPC  H18T20989   2.588   5.437   5.073  0.1890 -0.6142  0.4717
  172DOPC   C3320990   2.811   5.533   3.481  0.1814 -0.3758  0.0225
  172DOPC   H3X20991   2.916   5.506   3.459  0.2544  0.4769 -0.7470
  172DOPC   H3Y20992   2.748   5.442   3.492 -2.3576  1.1361 -1.1162
  172DOPC   C3420993   2.815   5.613   3.613 -0.2400  0.2936  0.0045
  172DOPC   H4X20994   2.711   5.634   3.645  0.5702  4.8638  0.4440
  172DOPC   H4Y20995   2.857   5.716   3.625  0.3900 -0.2358  3.2940
  172DOPC   C3520996   2.876   5.517   3.721 -0.3716  0.0940 -0.0353
  172DOPC   H5X20997   2.987   5.509   3.719 -0.2381 -0.0443  3.3233
  172DOPC   H5Y20998   2.839   5.417   3.687  1.7364 -0.0996 -2.0117
  172DOPC   C3620999   2.829   5.563   3.859  0.2034 -0.6679  0.5982
  172DOPC   H6X21000   2.859   5.667   3.885  1.4697 -0.9570  0.3463
  172DOPC   H6Y21001   2.718   5.554   3.857  0.2148 -1.1984  1.6854
  172DOPC   C3721002   2.868   5.470   3.974  0.2803 -0.2890 -0.1334
  172DOPC   H7X21003   2.857   5.364   3.943  0.7190 -0.8046  1.3849
  172DOPC   H7Y21004   2.973   5.505   3.989 -0.6345  1.7500  2.1880
  172DOPC   C3821005   2.786   5.494   4.108  0.0839  0.3415 -0.6186
  172DOPC   H8X21006   2.681   5.469   4.081  0.2641 -1.1588 -0.0230
  172DOPC   H8Y21007   2.798   5.597   4.148  0.1375  0.0482  0.1384
  172DOPC   C3921008   2.823   5.397   4.216 -0.5399 -0.3066  0.2993
  172DOPC   H9X21009   2.925   5.393   4.257 -1.7572  0.3525  3.7433
  172DOPC  C31021010   2.751   5.287   4.248  0.0170 -0.2379 -0.3490
  172DOPC  H10X21011   2.804   5.226   4.322  4.0239  2.6656 -0.5179
  172DOPC  C31121012   2.608   5.242   4.200 -0.4150 -0.4687 -0.0857
  172DOPC  H11X21013   2.591   5.137   4.168 -0.5779  0.1626 -2.2116
  172DOPC  H11Y21014   2.575   5.300   4.112  2.0188 -2.2932 -2.3825
  172DOPC  C31221015   2.504   5.262   4.315  0.2811 -0.6398  0.3309
  172DOPC  H12X21016   2.402   5.260   4.270  0.2926  2.0066  0.0425
  172DOPC  H12Y21017   2.515   5.365   4.354 -0.5242 -0.6154  0.5026
  172DOPC  C31321018   2.491   5.152   4.418 -0.6477  0.7203 -0.2374
  172DOPC  H13X21019   2.460   5.056   4.371 -1.7484  0.9611 -0.0246
  172DOPC  H13Y21020   2.594   5.140   4.458 -0.3768  0.2550 -1.0422
  172DOPC  C31421021   2.396   5.169   4.536 -0.2691 -0.5906  0.1204
  172DOPC  H14X21022   2.403   5.071   4.589  0.5944 -0.4037  0.3620
  172DOPC  H14Y21023   2.434   5.251   4.600 -0.8038 -1.2435  1.3135
  172DOPC  C31521024   2.256   5.178   4.478  0.0038  0.5783  0.5497
  172DOPC  H15X21025   2.253   5.103   4.397 -1.2262  0.1078  1.0199
  172DOPC  H15Y21026   2.244   5.275   4.426 -0.0148 -0.0229 -0.5866
  172DOPC  C31621027   2.148   5.138   4.576 -0.1479  0.2322 -0.2732
  172DOPC  H16X21028   2.158   5.028   4.585  1.7496  0.5093  2.7079
  172DOPC  H16Y21029   2.163   5.182   4.677  0.0345  2.2309 -1.1198
  172DOPC  C31721030   2.013   5.165   4.526 -1.2169  0.5272  0.6883
  172DOPC  H17X21031   1.942   5.121   4.598 -1.3573  0.6332  0.6150
  172DOPC  H17Y21032   1.992   5.274   4.528  0.6712  0.9460  3.1678
  172DOPC  C31821033   1.981   5.118   4.375  0.1800  0.5688 -0.4310
  172DOPC  H18X21034   1.880   5.148   4.342  0.4184  2.5478  0.4970
  172DOPC  H18Y21035   2.058   5.164   4.308 -1.0597  2.3364 -0.6828
  172DOPC  H18Z21036   1.998   5.008   4.367  1.9706  0.6736  1.1416
  173DOPC     N21037   1.986   3.939   2.749  0.2753  0.0395 -0.0004
  173DOPC   C1221038   2.102   4.033   2.793  0.0234  0.1285 -0.4465
  173DOPC  H12A21039   2.104   4.056   2.898  0.5727  1.0279 -0.6351
  173DOPC  H12B21040   2.090   4.127   2.740 -0.6172  1.7825  2.4220
  173DOPC   C1321041   1.858   4.019   2.791 -0.1890 -0.1538 -0.3051
  173DOPC  H13A21042   1.766   3.970   2.762 -0.2507 -0.8629  1.0194
  173DOPC  H13B21043   1.867   4.035   2.897 -0.6496 -0.4169 -0.2227
  173DOPC  H13C21044   1.866   4.116   2.744  2.5742 -0.7737 -1.2960
  173DOPC   C1421045   1.974   3.811   2.817 -0.7374 -0.1271  0.2603
  173DOPC  H14A21046   2.072   3.765   2.827 -1.1449 -1.1249 -0.2007
  173DOPC  H14B21047   1.945   3.818   2.921  0.8124  0.0958  0.7086
  173DOPC  H14C21048   1.908   3.743   2.767 -0.5821 -1.2488  1.5158
  173DOPC   C1521049   1.979   3.918   2.600 -0.0248 -0.0905  0.1428
  173DOPC  H15A21050   2.010   4.007   2.548  0.7476 -1.5404 -2.0555
  173DOPC  H15B21051   1.877   3.892   2.575  0.3654  0.2220 -1.9569
  173DOPC  H15C21052   2.040   3.833   2.570 -0.1557  0.5232 -2.0547
  173DOPC   C1121053   2.246   3.980   2.762  0.5721  0.0276  0.3756
  173DOPC  H11A21054   2.270   3.980   2.654  2.2935 -0.6803  0.7265
  173DOPC  H11B21055   2.308   4.063   2.804 -0.4766 -0.0165  2.0908
  173DOPC     P21056   2.303   3.832   2.981  0.2741  0.1881 -0.3079
  173DOPC   O1321057   2.454   3.823   3.005 -0.2804 -0.0899 -0.0765
  173DOPC   O1421058   2.206   3.731   3.037 -0.3125  0.1154  0.0826
  173DOPC   O1221059   2.282   3.851   2.824 -0.3324 -0.2431  0.1666
  173DOPC   O1121060   2.267   3.974   3.043  0.9008 -0.6208  0.1874
  173DOPC    C121061   2.347   4.088   3.041 -0.7091  0.2284 -0.1618
  173DOPC    HA21062   2.291   4.177   3.006  2.3600  2.3415 -0.0676
  173DOPC    HB21063   2.437   4.074   2.977  0.1396 -0.7107  1.1620
  173DOPC    C221064   2.413   4.123   3.177 -0.4547  0.1787  0.3453
  173DOPC    HS21065   2.456   4.030   3.221  0.4820  0.5048  0.1233
  173DOPC   O2121066   2.326   4.190   3.274  0.3282 -0.5026  0.2881
  173DOPC   C2121067   2.284   4.113   3.371  0.8783 -0.1740 -0.3504
  173DOPC   O2221068   2.301   3.995   3.377  0.2128  0.5379  0.0275
  173DOPC   C2221069   2.244   4.209   3.478  0.4405 -0.2957  0.7323
  173DOPC   H2R21070   2.169   4.279   3.436  2.7191  1.7226 -0.2564
  173DOPC   H2S21071   2.327   4.279   3.504  1.0824 -0.2654 -1.2441
  173DOPC    C321072   2.541   4.213   3.143 -1.3562  0.5954  0.2310
  173DOPC    HX21073   2.516   4.319   3.117  1.0615  0.7075 -2.0010
  173DOPC    HY21074   2.598   4.179   3.054 -0.3786  2.4438  0.1008
  173DOPC   O3121075   2.634   4.228   3.257  0.6322 -0.0799  0.4754
  173DOPC   C3121076   2.704   4.113   3.282 -0.5372 -0.6514 -1.7226
  173DOPC   O3221077   2.680   4.009   3.229 -0.2550  0.2169  0.4211
  173DOPC   C3221078   2.809   4.137   3.388  0.1245 -0.2686  0.0848
  173DOPC   H2X21079   2.859   4.039   3.406  1.6727  0.4121 -0.3115
  173DOPC   H2Y21080   2.885   4.217   3.373 -0.3598  0.4411  1.2451
  173DOPC   C2321081   2.184   4.144   3.612  0.5921 -0.0558 -0.4719
  173DOPC   H3R21082   2.260   4.094   3.676  0.4220 -0.5008 -0.6140
  173DOPC   H3S21083   2.118   4.067   3.566  0.6387 -1.8751  2.3179
  173DOPC   C2421084   2.093   4.235   3.690 -0.8464 -0.1707 -0.2637
  173DOPC   H4R21085   2.013   4.271   3.621 -1.0760 -1.5943 -0.7739
  173DOPC   H4S21086   2.148   4.320   3.736 -0.0359 -1.4879  1.2948
  173DOPC   C2521087   2.024   4.157   3.807 -0.3711 -0.8272 -0.0069
  173DOPC   H5R21088   2.102   4.125   3.879  0.7569  1.1717 -0.2550
  173DOPC   H5S21089   1.966   4.071   3.767 -1.6026  1.4364 -3.6207
  173DOPC   C2621090   1.916   4.246   3.887  0.0679 -0.6481  0.4155
  173DOPC   H6R21091   1.852   4.297   3.811  1.1550  1.2620  0.7116
  173DOPC   H6S21092   1.987   4.324   3.922  2.1846 -1.5141 -1.6356
  173DOPC   C2721093   1.850   4.163   3.994  0.3556 -0.0195 -0.1665
  173DOPC   H7R21094   1.923   4.108   4.057 -0.4814  1.7296  2.4905
  173DOPC   H7S21095   1.784   4.088   3.946 -0.3716  1.0648 -0.9054
  173DOPC   C2821096   1.773   4.247   4.100 -0.3100  0.6408 -0.1919
  173DOPC   H8R21097   1.856   4.300   4.151  0.5320 -1.7391  1.0319
  173DOPC   H8S21098   1.721   4.184   4.174 -1.3019 -0.7492 -1.9894
  173DOPC   C2921099   1.677   4.345   4.053  0.2100 -0.1818  0.2552
  173DOPC   H9R21100   1.728   4.415   3.985 -0.0557 -2.0550 -2.0436
  173DOPC  C21021101   1.547   4.361   4.081  0.3538 -0.3591 -0.1137
  173DOPC  H10R21102   1.485   4.438   4.034 -1.0568 -1.3682  0.0049
  173DOPC  C21121103   1.456   4.283   4.175  0.5089 -0.4873 -0.3595
  173DOPC  H11R21104   1.488   4.178   4.191  0.6357 -0.6397 -1.5193
  173DOPC  H11S21105   1.356   4.267   4.129 -0.1480 -1.3619  1.3063
  173DOPC  C21221106   1.435   4.351   4.316  0.1930  0.2873  0.0474
  173DOPC  H12R21107   1.379   4.268   4.364 -0.3637  0.5434 -0.1583
  173DOPC  H12S21108   1.369   4.438   4.300  0.9064  1.0953  1.2964
  173DOPC  C21321109   1.560   4.371   4.397 -0.2184  0.6725 -0.3868
  173DOPC  H13R21110   1.608   4.464   4.359 -1.5889  0.6102 -2.4324
  173DOPC  H13S21111   1.622   4.281   4.375 -2.5300 -1.5910  1.7590
  173DOPC  C21421112   1.524   4.376   4.546 -0.0066  0.3332 -0.0803
  173DOPC  H14R21113   1.471   4.281   4.567  0.5235  0.1058  0.2427
  173DOPC  H14S21114   1.452   4.460   4.548  0.2639  0.5961 -0.8134
  173DOPC  C21521115   1.644   4.403   4.645  0.2650  0.3671  0.0938
  173DOPC  H15R21116   1.589   4.451   4.729 -3.0026 -0.1312 -1.6198
  173DOPC  H15S21117   1.718   4.464   4.588 -1.0102  1.4386 -0.4498
  173DOPC  C21621118   1.716   4.276   4.693  0.4910  0.3765  0.7115
  173DOPC  H16R21119   1.799   4.308   4.759  1.9585  1.2524 -1.4229
  173DOPC  H16S21120   1.767   4.226   4.608  0.0925 -2.3731  1.9921
  173DOPC  C21721121   1.636   4.170   4.774 -1.0404 -0.2101  0.0261
  173DOPC  H17R21122   1.533   4.163   4.732 -1.2744  1.2513  0.2750
  173DOPC  H17S21123   1.622   4.215   4.875 -0.1767  1.0167 -0.3798
  173DOPC  C21821124   1.707   4.035   4.787 -0.0211 -0.0515  0.2918
  173DOPC  H18R21125   1.777   4.030   4.873 -1.8069 -0.8249  1.7734
  173DOPC  H18S21126   1.751   4.012   4.687  0.5459  1.4139  0.1935
  173DOPC  H18T21127   1.629   3.961   4.817  0.7445 -1.2636 -0.5941
  173DOPC   C3321128   2.740   4.169   3.521 -0.4769  0.0993  0.4655
  173DOPC   H3X21129   2.671   4.255   3.507 -0.7083 -0.2094 -0.3906
  173DOPC   H3Y21130   2.819   4.201   3.592 -0.7821  2.6531 -0.2371
  173DOPC   C3421131   2.658   4.047   3.575 -1.2200 -0.3447 -0.0010
  173DOPC   H4X21132   2.713   3.952   3.558 -2.1171 -0.4848 -2.5241
  173DOPC   H4Y21133   2.568   4.026   3.514 -0.7541 -3.9618  0.3339
  173DOPC   C3521134   2.625   4.064   3.722  0.2185  0.2786 -0.7432
  173DOPC   H5X21135   2.569   4.160   3.728  1.6362  1.0670  0.3815
  173DOPC   H5Y21136   2.722   4.073   3.774  0.5661 -0.6770 -1.2084
  173DOPC   C3621137   2.548   3.948   3.777 -0.2503 -0.1657 -0.2019
  173DOPC   H6X21138   2.513   3.982   3.877 -2.5038  1.4717 -1.4218
  173DOPC   H6Y21139   2.452   3.921   3.727 -0.7966  0.7283  0.3372
  173DOPC   C3721140   2.628   3.822   3.799  0.5252  0.4434 -0.8816
  173DOPC   H7X21141   2.664   3.781   3.703  2.5303  2.7334 -1.2014
  173DOPC   H7Y21142   2.712   3.856   3.863 -1.5142  3.5900  0.3739
  173DOPC   C3821143   2.560   3.711   3.893  0.4696 -0.7813 -0.8393
  173DOPC   H8X21144   2.639   3.637   3.913  0.1621 -0.9761 -0.3204
  173DOPC   H8Y21145   2.482   3.668   3.826 -0.7308 -1.5917  0.9895
  173DOPC   C3921146   2.498   3.750   4.024  0.5964 -0.5697  0.1192
  173DOPC   H9X21147   2.408   3.814   4.018  0.8119 -0.3882 -3.1107
  173DOPC  C31021148   2.529   3.710   4.149  0.5664  0.6447 -0.0711
  173DOPC  H10X21149   2.478   3.743   4.241  1.3076 -2.3894  1.5540
  173DOPC  C31121150   2.646   3.620   4.179  0.3052  0.3515  0.1676
  173DOPC  H11X21151   2.685   3.557   4.096  1.1212  1.7867 -0.5695
  173DOPC  H11Y21152   2.609   3.537   4.244  0.3539 -1.0436 -1.5132
  173DOPC  C31221153   2.768   3.678   4.251  0.1353 -0.0907 -0.0214
  173DOPC  H12X21154   2.835   3.592   4.271  0.2242 -0.3386 -1.3013
  173DOPC  H12Y21155   2.742   3.735   4.343  0.5381  1.7484 -0.9898
  173DOPC  C31321156   2.859   3.757   4.156 -0.3657 -0.8038 -0.0430
  173DOPC  H13X21157   2.868   3.699   4.062  1.5441 -0.4005 -0.1553
  173DOPC  H13Y21158   2.807   3.850   4.124  0.4304 -0.7023 -1.0800
  173DOPC  C31421159   2.986   3.800   4.226 -0.6232 -0.0217  0.8873
  173DOPC  H14X21160   3.033   3.711   4.275 -1.1116 -1.3080 -0.8742
  173DOPC  H14Y21161   3.057   3.824   4.144 -0.5724  0.0292  0.9468
  173DOPC  C31521162   2.983   3.912   4.331 -0.5312  0.1329 -0.8389
  173DOPC  H15X21163   2.914   3.885   4.414  1.6360 -0.7095  0.7820
  173DOPC  H15Y21164   2.963   4.007   4.276  0.5035 -0.4791 -2.3248
  173DOPC  C31621165   3.120   3.942   4.394 -0.1708 -1.0251 -0.2539
  173DOPC  H16X21166   3.153   3.856   4.456  1.2739  0.3850  1.0263
  173DOPC  H16Y21167   3.208   3.971   4.333 -0.8239  1.4634 -0.1407
  173DOPC  C31721168   3.106   4.060   4.496  0.4284  0.2949 -0.1964
  173DOPC  H17X21169   3.076   4.158   4.452  1.3659  0.3997 -0.6247
  173DOPC  H17Y21170   3.024   4.040   4.568 -0.0370  1.6415 -0.3293
  173DOPC  C31821171   3.235   4.082   4.581  0.2808  0.4569 -0.0949
  173DOPC  H18X21172   3.269   3.980   4.607 -0.0174  0.1318 -0.9471
  173DOPC  H18Y21173   3.313   4.133   4.520 -0.0160  1.4389  0.3217
  173DOPC  H18Z21174   3.220   4.150   4.668  1.5709 -2.3212  2.4681
  174DOPC     N21175   5.753   2.445   2.343 -0.6490 -0.0856 -0.1649
  174DOPC   C1221176   5.796   2.418   2.487 -0.4401  0.6893 -0.0263
  174DOPC  H12A21177   5.880   2.479   2.518 -0.1818  0.8931 -1.0991
  174DOPC  H12B21178   5.836   2.318   2.483 -2.0300  0.0242  0.1678
  174DOPC   C1321179   5.651   2.346   2.296 -0.1677 -0.5383 -0.0579
  174DOPC  H13A21180   5.689   2.247   2.320 -0.0514 -0.2599  0.9234
  174DOPC  H13B21181   5.554   2.366   2.339 -0.5036  1.2301 -1.5151
  174DOPC  H13C21182   5.647   2.336   2.188 -0.4095 -0.9370 -0.0158
  174DOPC   C1421183   5.873   2.438   2.251  0.1791  0.2783  0.1598
  174DOPC  H14A21184   5.843   2.471   2.152 -0.3143 -1.0503 -0.1562
  174DOPC  H14B21185   5.953   2.500   2.287 -0.2649 -0.1186  1.9392
  174DOPC  H14C21186   5.910   2.338   2.233  1.5908  1.0711 -1.6175
  174DOPC   C1521187   5.684   2.578   2.333  0.3254 -0.4043  0.4036
  174DOPC  H15A21188   5.668   2.606   2.230 -0.4894  1.8895  1.1103
  174DOPC  H15B21189   5.734   2.660   2.382  0.1410 -0.2013  0.2486
  174DOPC  H15C21190   5.585   2.572   2.376  0.1448  3.7564  0.9461
  174DOPC   C1121191   5.684   2.438   2.600 -0.4435  0.0902  0.3823
  174DOPC  H11A21192   5.594   2.386   2.562 -1.6200  0.5922  2.3433
  174DOPC  H11B21193   5.715   2.390   2.695  3.1591  1.5951  0.1138
  174DOPC     P21194   5.744   2.676   2.702  0.4281 -0.0933 -0.1760
  174DOPC   O1321195   5.660   2.792   2.745  0.1938 -0.3135  0.3588
  174DOPC   O1421196   5.861   2.708   2.616  0.3716 -0.3775 -0.4334
  174DOPC   O1221197   5.647   2.574   2.623  0.2312 -0.0598  0.0493
  174DOPC   O1121198   5.804   2.600   2.832  0.2785 -0.0110 -0.1722
  174DOPC    C121199   5.705   2.578   2.935 -0.3717  0.1844 -0.3621
  174DOPC    HA21200   5.654   2.482   2.913 -0.8492  0.1643  0.7649
  174DOPC    HB21201   5.628   2.659   2.941 -0.1406  0.3738  0.1013
  174DOPC    C221202   5.770   2.577   3.073  0.0767 -0.0056 -0.1488
  174DOPC    HS21203   5.700   2.553   3.156  0.3803 -0.1669  0.0645
  174DOPC   O2121204   5.842   2.705   3.099  0.0621  0.4443  0.1133
  174DOPC   C2121205   5.761   2.800   3.127  0.7291  0.8942  0.4429
  174DOPC   O2221206   5.638   2.788   3.148 -0.0728 -0.3081  0.0334
  174DOPC   C2221207   5.848   2.920   3.161  0.1212  0.8258 -0.5221
  174DOPC   H2R21208   5.798   3.017   3.140  1.2224  2.1680  2.4357
  174DOPC   H2S21209   5.937   2.919   3.094  0.0299  0.2305 -0.6397
  174DOPC    C321210   5.869   2.456   3.085 -1.4529 -0.2354 -0.4850
  174DOPC    HX21211   5.959   2.479   3.025 -0.5762 -0.4287  0.7266
  174DOPC    HY21212   5.818   2.373   3.032  1.8983 -1.0669 -2.6970
  174DOPC   O3121213   5.910   2.425   3.217 -0.0147  0.5836 -0.0236
  174DOPC   C3121214   6.043   2.434   3.256  0.3045  0.1950 -0.0005
  174DOPC   O3221215   6.132   2.470   3.181  0.3400  0.0582 -0.2003
  174DOPC   C3221216   6.058   2.386   3.403 -0.1526  0.5883  0.0186
  174DOPC   H2X21217   5.967   2.405   3.463  0.4550  0.1448  1.1244
  174DOPC   H2Y21218   6.074   2.276   3.396 -1.0242  0.2554  2.4169
  174DOPC   C2321219   5.891   2.913   3.302 -0.0834  0.0695 -0.1578
  174DOPC   H3R21220   5.932   2.811   3.317  0.9007  0.4162 -0.4534
  174DOPC   H3S21221   5.805   2.895   3.371 -0.5717 -2.0569 -1.2271
  174DOPC   C2421222   5.999   3.018   3.352  0.4246  0.3207  0.4315
  174DOPC   H4R21223   5.982   3.118   3.307  0.6802  1.3353  2.4664
  174DOPC   H4S21224   6.098   2.984   3.314  0.4670  0.7307  0.1788
  174DOPC   C2521225   6.008   3.032   3.501 -0.6770 -0.1424  0.0995
  174DOPC   H5R21226   5.912   3.065   3.545 -0.1298 -0.5125  1.6341
  174DOPC   H5S21227   6.083   3.110   3.525  0.1812 -0.8825 -0.0727
  174DOPC   C2621228   6.073   2.906   3.568  0.2926  0.7797  0.0722
  174DOPC   H6R21229   6.169   2.879   3.519  0.2528  0.9169 -0.0830
  174DOPC   H6S21230   6.006   2.820   3.548  0.1296  0.8823  0.1746
  174DOPC   C2721231   6.089   2.926   3.720  0.1672 -0.9996  0.9382
  174DOPC   H7R21232   5.990   2.969   3.745 -0.1781 -1.0614 -0.2466
  174DOPC   H7S21233   6.165   3.006   3.732  0.8411 -1.7683  2.0558
  174DOPC   C2821234   6.121   2.800   3.800  0.6601 -0.1626 -0.5129
  174DOPC   H8R21235   6.147   2.841   3.900  1.1384 -0.3261 -0.5679
  174DOPC   H8S21236   6.213   2.759   3.754  1.0320 -1.1632  1.0616
  174DOPC   C2921237   6.006   2.705   3.810 -0.0250 -0.2048  0.1525
  174DOPC   H9R21238   5.969   2.668   3.713 -0.5386  1.2297 -0.2254
  174DOPC  C21021239   5.933   2.685   3.918  0.3295 -1.0264  0.3682
  174DOPC  H10R21240   5.839   2.628   3.919 -1.4525  1.6678  1.9169
  174DOPC  C21121241   5.957   2.753   4.054  0.2942 -0.2416  0.9072
  174DOPC  H11R21242   5.857   2.776   4.096  0.7988 -1.9931  3.3086
  174DOPC  H11S21243   6.016   2.847   4.055  1.1977 -0.7392 -0.5148
  174DOPC  C21221244   6.032   2.660   4.148 -0.5145  0.7066  0.3286
  174DOPC  H12R21245   6.135   2.657   4.107 -0.5365  2.5980  0.0191
  174DOPC  H12S21246   5.993   2.556   4.144 -0.2228  0.5554  1.1576
  174DOPC  C21321247   6.022   2.692   4.296  0.7711 -0.2472  0.0266
  174DOPC  H13R21248   5.919   2.670   4.330  0.9923 -2.7080 -0.6523
  174DOPC  H13S21249   6.035   2.801   4.308 -3.0321  0.3666 -0.2442
  174DOPC  C21421250   6.130   2.619   4.379  0.0786  0.1268  0.2378
  174DOPC  H14R21251   6.122   2.512   4.351 -0.8165  0.5725 -1.2903
  174DOPC  H14S21252   6.103   2.634   4.486  1.8290  1.5903  0.5354
  174DOPC  C21521253   6.278   2.668   4.367 -0.2772 -0.5087  0.2575
  174DOPC  H15R21254   6.322   2.669   4.265 -0.8554 -0.2460  0.0034
  174DOPC  H15S21255   6.331   2.599   4.435  1.9966  1.1965  0.3268
  174DOPC  C21621256   6.293   2.814   4.411  0.4891 -0.0166 -0.5804
  174DOPC  H16R21257   6.237   2.821   4.507 -2.2329 -1.6322 -1.8961
  174DOPC  H16S21258   6.251   2.884   4.335 -1.2332 -1.7815 -1.3508
  174DOPC  C21721259   6.442   2.846   4.433  0.0283 -0.2315 -0.5988
  174DOPC  H17R21260   6.494   2.822   4.338 -0.5195 -1.8823 -0.5287
  174DOPC  H17S21261   6.482   2.771   4.504  0.3067  0.1530 -0.3464
  174DOPC  C21821262   6.484   2.985   4.484 -0.1116  0.0259  0.3579
  174DOPC  H18R21263   6.593   3.001   4.471 -0.5388  1.0436 -2.5373
  174DOPC  H18S21264   6.454   2.992   4.591 -1.1976  2.1552 -0.0136
  174DOPC  H18T21265   6.421   3.054   4.424  1.9634  0.4180 -1.4465
  174DOPC   C3321266   6.176   2.454   3.477  0.5899 -0.5566 -1.1154
  174DOPC   H3X21267   6.161   2.564   3.484 -0.1867 -0.7121 -0.1276
  174DOPC   H3Y21268   6.272   2.426   3.428  0.3351  0.1365 -2.0271
  174DOPC   C3421269   6.196   2.414   3.624 -0.4362  0.3972 -0.3109
  174DOPC   H4X21270   6.173   2.305   3.624 -2.6566  0.8024  0.4909
  174DOPC   H4Y21271   6.106   2.455   3.675 -1.8614 -0.3985 -2.0361
  174DOPC   C3521272   6.318   2.453   3.698 -0.6040  0.4122  0.4523
  174DOPC   H5X21273   6.341   2.560   3.676 -2.0606  0.8501  0.9671
  174DOPC   H5Y21274   6.407   2.396   3.665  0.7820  2.4803  0.3725
  174DOPC   C3621275   6.302   2.450   3.854 -0.4014  0.0968  0.7853
  174DOPC   H6X21276   6.215   2.514   3.878  0.2830  1.0190  0.8454
  174DOPC   H6Y21277   6.286   2.352   3.903 -0.3657  0.2208  1.0456
  174DOPC   C3721278   6.416   2.518   3.930 -0.1649 -0.1477  0.2304
  174DOPC   H7X21279   6.467   2.611   3.895  0.4061  0.6305  2.8945
  174DOPC   H7Y21280   6.366   2.544   4.025 -1.0649  1.4390 -0.6405
  174DOPC   C3821281   6.538   2.424   3.971  0.5483  0.5510 -0.0747
  174DOPC   H8X21282   6.496   2.322   3.985  1.5895  0.3685  2.1008
  174DOPC   H8Y21283   6.580   2.457   4.068 -1.8994  0.8309  0.9668
  174DOPC   C3921284   6.638   2.414   3.862 -0.2344 -0.7215 -0.1153
  174DOPC   H9X21285   6.599   2.374   3.768 -0.8104 -1.5322  0.4531
  174DOPC  C31021286   6.766   2.465   3.855  0.1725  0.6828 -0.2307
  174DOPC  H10X21287   6.813   2.456   3.757  1.9792  2.5456  0.3902
  174DOPC  C31121288   6.832   2.554   3.964  0.2369  0.1104  0.3326
  174DOPC  H11X21289   6.936   2.570   3.929 -0.3545  0.2067 -1.4857
  174DOPC  H11Y21290   6.822   2.500   4.061  2.5221  2.0638  1.7661
  174DOPC  C31221291   6.770   2.686   3.983  0.1478  0.5688 -0.5676
  174DOPC  H12X21292   6.659   2.690   3.975 -0.0487  2.4265  1.8646
  174DOPC  H12Y21293   6.802   2.758   3.904  0.2404  0.0614 -1.0006
  174DOPC  C31321294   6.818   2.755   4.112  0.3144 -0.7520  0.0641
  174DOPC  H13X21295   6.799   2.702   4.208 -2.4964 -2.3609 -1.2439
  174DOPC  H13Y21296   6.927   2.776   4.112  0.0848  0.5319 -0.2215
  174DOPC  C31421297   6.752   2.892   4.142  0.9090 -0.4286  0.1056
  174DOPC  H14X21298   6.776   2.952   4.051  0.5880  1.1352  1.0090
  174DOPC  H14Y21299   6.643   2.876   4.153  1.0095 -1.7643 -0.6343
  174DOPC  C31521300   6.812   2.977   4.256 -0.3690 -0.6067 -0.1514
  174DOPC  H15X21301   6.917   2.951   4.278 -0.3393  0.0134  0.4875
  174DOPC  H15Y21302   6.753   2.956   4.348 -0.1982 -1.7989 -0.3079
  174DOPC  C31621303   6.809   3.127   4.233  0.2103  0.2584 -0.0888
  174DOPC  H16X21304   6.860   3.163   4.141 -0.0374  0.2915 -0.2138
  174DOPC  H16Y21305   6.700   3.150   4.229 -0.0860 -0.9349  0.4746
  174DOPC  C31721306   6.875   3.221   4.344  0.5260  0.6426  0.2561
  174DOPC  H17X21307   6.983   3.198   4.358  0.4161 -0.3263 -0.3913
  174DOPC  H17Y21308   6.866   3.323   4.302 -0.1994  0.8915  0.9883
  174DOPC  C31821309   6.795   3.215   4.477  0.4548 -0.5344 -0.5482
  174DOPC  H18X21310   6.801   3.119   4.533 -0.7262 -0.2034  0.1701
  174DOPC  H18Y21311   6.830   3.295   4.546 -0.5277 -0.5481 -0.0151
  174DOPC  H18Z21312   6.690   3.233   4.448  0.2508  0.2992  0.6525
  175DOPC     N21313   4.590   5.728   2.702  0.3603  0.2173  0.0146
  175DOPC   C1221314   4.671   5.833   2.626 -0.3655 -0.5817  0.5809
  175DOPC  H12A21315   4.669   5.809   2.521 -0.5239  1.7241 -0.0135
  175DOPC  H12B21316   4.774   5.816   2.652  0.3650 -2.8541 -3.0487
  175DOPC   C1321317   4.594   5.751   2.851  0.8661  0.2336  0.2058
  175DOPC  H13A21318   4.574   5.856   2.863  0.4198  0.1145  0.5500
  175DOPC  H13B21319   4.517   5.698   2.906 -1.7973  3.8679  0.3398
  175DOPC  H13C21320   4.694   5.743   2.891  0.6943  0.8042  0.7610
  175DOPC   C1421321   4.646   5.590   2.680  0.1519  0.7266  1.0637
  175DOPC  H14A21322   4.749   5.588   2.713  0.3723 -0.6057  0.3844
  175DOPC  H14B21323   4.585   5.521   2.737  0.6839 -0.8203 -0.1685
  175DOPC  H14C21324   4.642   5.561   2.576  2.0514  0.1682  1.1105
  175DOPC   C1521325   4.444   5.744   2.666 -0.3671  0.4265  0.2315
  175DOPC  H15A21326   4.382   5.667   2.708 -1.4883  1.2058  0.0603
  175DOPC  H15B21327   4.432   5.732   2.560  0.1804 -0.9158  0.3049
  175DOPC  H15C21328   4.401   5.842   2.686  0.3650  0.6045  1.0096
  175DOPC   C1121329   4.647   5.989   2.648  0.3924 -0.2566 -0.0880
  175DOPC  H11A21330   4.724   6.035   2.583  0.1029  1.7864  0.9226
  175DOPC  H11B21331   4.545   6.006   2.607  0.2725 -1.9051 -0.5649
  175DOPC     P21332   4.651   6.174   2.821  0.6569  0.1995  0.5026
  175DOPC   O1321333   4.519   6.199   2.883 -0.6504 -0.1282  0.0071
  175DOPC   O1421334   4.680   6.251   2.698 -0.1046 -0.6505  0.4101
  175DOPC   O1221335   4.659   6.022   2.783  0.0417 -0.5663 -0.5177
  175DOPC   O1121336   4.769   6.199   2.922  0.1726 -0.5883  0.3054
  175DOPC    C121337   4.862   6.103   2.964  0.5248 -0.0731  0.6401
  175DOPC    HA21338   4.942   6.163   3.012  0.6686  1.0035 -0.9055
  175DOPC    HB21339   4.904   6.039   2.884 -1.0383 -0.6258  0.2112
  175DOPC    C221340   4.817   6.007   3.069 -0.2364 -0.8142 -0.4033
  175DOPC    HS21341   4.738   5.936   3.035 -1.5063  0.3308  0.0373
  175DOPC   O2121342   4.780   6.078   3.189 -0.0817  0.0172 -0.0503
  175DOPC   C2121343   4.646   6.084   3.213 -0.2092 -0.2519  0.1407
  175DOPC   O2221344   4.563   6.010   3.168  0.3574  0.7281 -0.3354
  175DOPC   C2221345   4.620   6.214   3.282  0.5260  0.3893 -0.5482
  175DOPC   H2R21346   4.584   6.294   3.214 -2.4606  0.1185  0.5282
  175DOPC   H2S21347   4.712   6.254   3.331 -0.5770  1.6326  0.6218
  175DOPC    C321348   4.931   5.912   3.106  0.1141 -0.2971  1.3366
  175DOPC    HX21349   5.026   5.968   3.101  0.4487 -0.9045 -2.8410
  175DOPC    HY21350   4.941   5.829   3.033 -0.3619 -0.3055  1.2748
  175DOPC   O3121351   4.908   5.864   3.245 -0.2978 -0.2524  0.1215
  175DOPC   C3121352   4.852   5.747   3.265 -0.4178  0.6441  0.0312
  175DOPC   O3221353   4.802   5.681   3.176 -0.0640  0.2719 -0.7478
  175DOPC   C3221354   4.855   5.700   3.409 -0.3341 -0.0747  0.1051
  175DOPC   H2X21355   4.828   5.592   3.411  0.6319 -0.3338 -0.3911
  175DOPC   H2Y21356   4.960   5.709   3.445  0.3258 -0.5288 -1.5869
  175DOPC   C2321357   4.513   6.185   3.391 -0.8106 -0.3453 -0.1952
  175DOPC   H3R21358   4.423   6.140   3.344 -1.2767 -0.1611  0.5064
  175DOPC   H3S21359   4.477   6.288   3.414 -1.8480 -0.6376 -0.4507
  175DOPC   C2421360   4.554   6.122   3.518 -0.3984  0.4740 -0.5787
  175DOPC   H4R21361   4.591   6.020   3.497  0.7818  1.1147 -1.7512
  175DOPC   H4S21362   4.470   6.123   3.591  1.5967  1.8651  1.9209
  175DOPC   C2521363   4.670   6.200   3.588  0.1365  0.0083 -0.1029
  175DOPC   H5R21364   4.657   6.311   3.583 -0.3655 -0.1036 -2.6520
  175DOPC   H5S21365   4.758   6.177   3.525 -1.2700  0.4448 -2.3386
  175DOPC   C2621366   4.677   6.172   3.740 -0.5398 -0.0003 -0.5171
  175DOPC   H6R21367   4.787   6.167   3.761 -0.6278 -2.0180 -0.3500
  175DOPC   H6S21368   4.617   6.083   3.766 -3.1780  1.2953 -1.7480
  175DOPC   C2721369   4.626   6.286   3.832  0.5023  0.1593  0.4683
  175DOPC   H7R21370   4.518   6.306   3.817  0.4795 -0.9446 -1.1226
  175DOPC   H7S21371   4.671   6.380   3.794 -2.5827  2.1379  1.3473
  175DOPC   C2821372   4.664   6.264   3.979  0.5422 -0.0952  0.2583
  175DOPC   H8R21373   4.770   6.232   3.985  0.9195  1.2138  1.1969
  175DOPC   H8S21374   4.601   6.183   4.021 -0.3630  0.3210 -0.2803
  175DOPC   C2921375   4.638   6.393   4.052 -0.4203 -0.6218 -0.0467
  175DOPC   H9R21376   4.544   6.446   4.030  0.0848  0.1404 -0.4261
  175DOPC  C21021377   4.729   6.459   4.137  0.0176 -0.0329 -0.4139
  175DOPC  H10R21378   4.692   6.548   4.190 -0.5515 -0.5200  0.0400
  175DOPC  C21121379   4.871   6.412   4.162  0.4912 -0.0607  0.2538
  175DOPC  H11R21380   4.917   6.442   4.065 -1.6796 -0.1647 -0.8472
  175DOPC  H11S21381   4.869   6.302   4.177  0.0448 -0.1528 -0.4527
  175DOPC  C21221382   4.935   6.487   4.281  0.2030 -0.0731 -0.9559
  175DOPC  H12R21383   4.928   6.596   4.263 -0.8617 -0.0276 -0.4020
  175DOPC  H12S21384   5.045   6.477   4.274  0.2979  1.0867 -1.2974
  175DOPC  C21321385   4.869   6.456   4.417 -0.3037 -0.1321 -0.1663
  175DOPC  H13R21386   4.866   6.346   4.437 -2.9831 -0.3248 -1.1898
  175DOPC  H13S21387   4.760   6.473   4.433 -0.6273 -3.4178  2.2912
  175DOPC  C21421388   4.942   6.534   4.525 -0.0161  0.4188 -0.5569
  175DOPC  H14R21389   4.953   6.638   4.486 -2.0697  1.1198  0.6321
  175DOPC  H14S21390   5.041   6.484   4.537 -0.6756 -0.9856 -0.7909
  175DOPC  C21521391   4.877   6.519   4.666  0.0878 -0.1503  0.1356
  175DOPC  H15R21392   4.900   6.422   4.716  2.0886 -0.3403 -1.0539
  175DOPC  H15S21393   4.767   6.527   4.651  0.1807 -0.8006 -1.0029
  175DOPC  C21621394   4.925   6.639   4.750 -0.3936 -0.2963 -0.4396
  175DOPC  H16R21395   4.893   6.728   4.691  0.8052  0.6385  0.2417
  175DOPC  H16S21396   5.036   6.628   4.746 -0.3713 -0.5019  0.4940
  175DOPC  C21721397   4.878   6.630   4.894 -0.4737  0.0978  0.7506
  175DOPC  H17R21398   4.892   6.526   4.930 -1.2219 -1.5678 -3.2204
  175DOPC  H17S21399   4.769   6.651   4.898  0.0027  3.2821 -0.0253
  175DOPC  C21821400   4.944   6.724   4.990 -0.3637 -0.2860  0.0477
  175DOPC  H18R21401   4.916   6.703   5.095 -1.9467 -1.2762 -0.5311
  175DOPC  H18S21402   4.907   6.827   4.976  0.5104  0.1602  0.9024
  175DOPC  H18T21403   5.055   6.728   4.981 -0.3661 -0.2398  0.0377
  175DOPC   C3321404   4.754   5.781   3.492 -0.2988 -1.0527 -0.1215
  175DOPC   H3X21405   4.653   5.757   3.453 -0.3906  0.4460 -0.8847
  175DOPC   H3Y21406   4.775   5.888   3.471  0.8041 -1.1417  0.4363
  175DOPC   C3421407   4.758   5.750   3.645  0.6175 -0.1818  0.4904
  175DOPC   H4X21408   4.676   5.807   3.693 -0.8018  0.7588 -2.8037
  175DOPC   H4Y21409   4.857   5.780   3.686  0.6985  0.9352 -0.4838
  175DOPC   C3521410   4.750   5.602   3.679 -0.2958 -0.0506  0.8079
  175DOPC   H5X21411   4.840   5.547   3.643 -0.7096 -0.7672  0.8428
  175DOPC   H5Y21412   4.665   5.555   3.624 -0.1961  0.1548  0.4800
  175DOPC   C3621413   4.739   5.577   3.828 -0.0209 -0.1470 -0.5779
  175DOPC   H6X21414   4.658   5.635   3.877 -0.0180 -1.5380  1.1873
  175DOPC   H6Y21415   4.711   5.470   3.842  0.3139 -0.1354  0.2483
  175DOPC   C3721416   4.878   5.589   3.894 -0.4557 -0.2677 -0.0104
  175DOPC   H7X21417   4.898   5.495   3.950  0.4306 -1.2530 -1.8783
  175DOPC   H7Y21418   4.960   5.594   3.819  1.3775  0.9919  1.9986
  175DOPC   C3821419   4.879   5.704   4.000 -0.2508 -0.0163  0.5689
  175DOPC   H8X21420   4.865   5.801   3.948  0.9786 -0.8749 -1.5103
  175DOPC   H8Y21421   4.979   5.714   4.048 -0.5268  0.4801  1.0469
  175DOPC   C3921422   4.792   5.665   4.114 -0.1789  0.6487  0.2821
  175DOPC   H9X21423   4.798   5.561   4.151 -1.9768  0.1598 -0.7010
  175DOPC  C31021424   4.717   5.753   4.183 -0.0437  0.0217  0.1933
  175DOPC  H10X21425   4.662   5.710   4.267 -1.1944 -2.1288 -1.5470
  175DOPC  C31121426   4.700   5.901   4.165  0.1860 -0.3520  0.3337
  175DOPC  H11X21427   4.593   5.931   4.165  0.3681  0.3405 -0.9583
  175DOPC  H11Y21428   4.732   5.937   4.065 -0.4999 -0.3590  0.0997
  175DOPC  C31221429   4.782   5.985   4.260 -0.0302  0.2531 -0.3116
  175DOPC  H12X21430   4.763   6.090   4.230  2.9185  0.9094 -0.1941
  175DOPC  H12Y21431   4.892   5.971   4.250  0.1784  0.7541  1.0548
  175DOPC  C31321432   4.756   5.955   4.412 -0.9509 -0.0692  0.4305
  175DOPC  H13X21433   4.645   5.954   4.424 -0.9200 -1.2119  0.7529
  175DOPC  H13Y21434   4.787   5.855   4.449 -0.7571 -0.0698  0.2664
  175DOPC  C31421435   4.809   6.061   4.506  0.2339  0.0105  0.3378
  175DOPC  H14X21436   4.918   6.069   4.483 -0.0166 -1.9957 -1.9936
  175DOPC  H14Y21437   4.764   6.156   4.471  3.6017  1.3477 -0.8252
  175DOPC  C31521438   4.778   6.044   4.654 -0.0729 -1.2908 -0.1613
  175DOPC  H15X21439   4.824   5.953   4.698 -0.3761 -1.4430 -0.1527
  175DOPC  H15Y21440   4.669   6.022   4.658 -0.1357 -0.9979 -0.2595
  175DOPC  C31621441   4.824   6.161   4.749 -0.0882 -0.0271  0.1886
  175DOPC  H16X21442   4.934   6.177   4.739 -0.4049  1.8971 -0.5807
  175DOPC  H16Y21443   4.773   6.252   4.711  0.4616  0.0043 -0.4872
  175DOPC  C31721444   4.797   6.127   4.903 -0.0023  0.7454  0.1849
  175DOPC  H17X21445   4.687   6.112   4.898 -0.0432  0.7352  1.0004
  175DOPC  H17Y21446   4.841   6.026   4.914 -0.7880  0.4657  0.9415
  175DOPC  C31821447   4.831   6.237   4.999 -0.5923  0.6521 -0.6757
  175DOPC  H18X21448   4.940   6.259   5.001 -0.4356 -0.1322 -0.4825
  175DOPC  H18Y21449   4.778   6.330   4.968 -1.0979  0.4471 -0.4387
  175DOPC  H18Z21450   4.802   6.218   5.105  1.6236  0.6675 -0.0043
  176DOPC     N21451   2.951   1.550   2.722 -0.7467 -0.6908 -0.3493
  176DOPC   C1221452   2.934   1.471   2.853  0.2368  0.1033  0.3132
  176DOPC  H12A21453   2.890   1.376   2.826 -1.0125  0.0264  2.3928
  176DOPC  H12B21454   2.849   1.513   2.905  1.6438  2.8572  0.6029
  176DOPC   C1321455   2.822   1.545   2.648  0.0944  0.8197  0.1206
  176DOPC  H13A21456   2.809   1.448   2.601  0.8724  0.5448  0.4479
  176DOPC  H13B21457   2.737   1.559   2.712 -1.3142 -0.3543 -1.4059
  176DOPC  H13C21458   2.815   1.627   2.578 -2.1915 -1.3613 -2.4911
  176DOPC   C1421459   3.049   1.481   2.634  0.1978 -0.5924  1.0914
  176DOPC  H14A21460   3.046   1.526   2.536 -0.5729 -0.0651  1.3512
  176DOPC  H14B21461   3.144   1.488   2.685  1.6802  2.8675 -1.7297
  176DOPC  H14C21462   3.030   1.375   2.623  1.6136 -0.7874  0.3006
  176DOPC   C1521463   2.994   1.691   2.752 -0.2380 -0.2853  0.5935
  176DOPC  H15A21464   2.971   1.758   2.671  1.8336 -1.2102 -0.8547
  176DOPC  H15B21465   3.099   1.691   2.779 -0.0054  0.7908 -0.2403
  176DOPC  H15C21466   2.937   1.726   2.837 -1.6567 -1.4507  0.1576
  176DOPC   C1121467   3.059   1.446   2.941 -0.5093  0.1143 -0.1344
  176DOPC  H11A21468   3.112   1.543   2.955 -1.3846  0.8635 -1.7189
  176DOPC  H11B21469   3.023   1.413   3.041  0.3793  0.1138  0.1955
  176DOPC     P21470   3.097   1.195   2.885 -0.3405 -0.1783 -0.5875
  176DOPC   O1321471   3.215   1.115   2.851 -0.3775  0.5484  0.0162
  176DOPC   O1421472   2.984   1.177   2.794  0.3319 -0.9904  0.1045
  176DOPC   O1221473   3.144   1.351   2.883  0.0820  0.3021  0.6420
  176DOPC   O1121474   3.056   1.182   3.034  0.1708  0.2844 -0.0739
  176DOPC    C121475   3.118   1.108   3.136 -0.3467 -0.1067  0.2253
  176DOPC    HA21476   3.158   1.015   3.092 -0.0487  0.5236 -0.8698
  176DOPC    HB21477   3.035   1.079   3.203 -0.7890 -0.1704 -0.3461
  176DOPC    C221478   3.233   1.187   3.214  0.3315 -0.2398 -0.5143
  176DOPC    HS21479   3.276   1.133   3.301  2.7650  1.2398 -0.7146
  176DOPC   O2121480   3.194   1.324   3.257 -0.4963 -0.0831  0.3926
  176DOPC   C2121481   3.086   1.332   3.326  0.6596 -0.1906  0.1103
  176DOPC   O2221482   3.026   1.240   3.383  0.6597  0.3307 -0.1122
  176DOPC   C2221483   3.054   1.484   3.359 -0.4727  0.0318 -0.4873
  176DOPC   H2R21484   2.945   1.503   3.345 -0.1345  0.9284 -2.1762
  176DOPC   H2S21485   3.095   1.546   3.276  0.1443  1.3083  0.7265
  176DOPC    C321486   3.361   1.209   3.124 -0.0370  0.4851 -0.5434
  176DOPC    HX21487   3.337   1.284   3.046 -2.7501  1.2736  0.9160
  176DOPC    HY21488   3.384   1.118   3.065  0.0577  0.5149 -0.5521
  176DOPC   O3121489   3.471   1.255   3.203  0.1247  0.6865 -0.1950
  176DOPC   C3121490   3.578   1.180   3.210  0.5224  0.4361 -0.0393
  176DOPC   O3221491   3.579   1.066   3.169 -0.6138  0.6257  0.1827
  176DOPC   C3221492   3.702   1.244   3.279 -0.8225 -0.3335  0.7694
  176DOPC   H2X21493   3.771   1.160   3.301  0.6145  1.1489  2.1792
  176DOPC   H2Y21494   3.760   1.308   3.209  0.2400 -2.3905 -0.3072
  176DOPC   C2321495   3.098   1.538   3.499 -0.0977 -0.1388  0.1202
  176DOPC   H3R21496   3.057   1.470   3.577 -2.7335  0.8977 -0.2548
  176DOPC   H3S21497   3.058   1.640   3.517 -1.6768 -0.5448 -0.8725
  176DOPC   C2421498   3.254   1.555   3.515 -0.3662 -0.7877 -0.0816
  176DOPC   H4R21499   3.286   1.640   3.451 -0.2564  0.5762  1.6993
  176DOPC   H4S21500   3.304   1.460   3.486  2.4609  0.1233  1.4551
  176DOPC   C2521501   3.305   1.598   3.650  0.4980 -0.4408 -0.1209
  176DOPC   H5R21502   3.279   1.706   3.662 -2.6694 -1.2441  1.5331
  176DOPC   H5S21503   3.415   1.581   3.647  0.3114 -1.6259 -0.9199
  176DOPC   C2621504   3.245   1.523   3.774 -0.1641 -0.1889 -0.0575
  176DOPC   H6R21505   3.139   1.557   3.774 -0.0989  0.0130  0.1375
  176DOPC   H6S21506   3.292   1.556   3.869 -2.4618  0.4623  0.9312
  176DOPC   C2721507   3.260   1.369   3.769 -0.5198  0.0280 -0.0516
  176DOPC   H7R21508   3.368   1.346   3.774 -0.1453  1.8091  0.7292
  176DOPC   H7S21509   3.217   1.333   3.673 -0.9842 -1.5494  0.7190
  176DOPC   C2821510   3.205   1.297   3.891  0.2130 -0.0871 -0.3325
  176DOPC   H8R21511   3.238   1.348   3.984 -0.1954  0.4565 -0.4771
  176DOPC   H8S21512   3.248   1.195   3.896  0.0966 -0.1692 -0.9483
  176DOPC   C2921513   3.057   1.278   3.897  0.2110 -0.7158 -0.2378
  176DOPC   H9R21514   3.008   1.249   3.802  0.4558 -2.5353  0.1617
  176DOPC  C21021515   2.975   1.284   4.006 -0.2557  0.2322  0.4228
  176DOPC  H10R21516   2.868   1.270   3.987 -0.3269  2.3656 -1.0767
  176DOPC  C21121517   3.017   1.314   4.145 -0.1580 -0.3957 -0.8220
  176DOPC  H11R21518   2.956   1.395   4.192  0.5608  0.2944 -1.0492
  176DOPC  H11S21519   3.119   1.354   4.164 -0.6877 -0.6425  3.5734
  176DOPC  C21221520   2.991   1.193   4.235 -0.5731  0.1729  0.7364
  176DOPC  H12R21521   3.060   1.121   4.187 -0.3053  1.7547 -1.4223
  176DOPC  H12S21522   2.884   1.165   4.222  0.0765 -1.6556 -1.0961
  176DOPC  C21321523   3.017   1.209   4.385 -0.8473 -0.5523  0.3857
  176DOPC  H13R21524   2.929   1.270   4.418 -1.6878 -0.8942 -1.1508
  176DOPC  H13S21525   3.110   1.266   4.410 -0.6730 -1.2637  1.4494
  176DOPC  C21421526   3.028   1.076   4.471  0.4532  0.1532 -0.3637
  176DOPC  H14R21527   3.130   1.071   4.516  0.4674 -1.2453 -0.5066
  176DOPC  H14S21528   3.024   0.985   4.407  1.6785 -1.1283  1.2964
  176DOPC  C21521529   2.923   1.061   4.584  0.7328  0.2224 -0.3997
  176DOPC  H15R21530   2.818   1.072   4.552  0.6642  1.7656  0.2917
  176DOPC  H15S21531   2.939   1.140   4.660  2.0045 -0.1229 -0.2702
  176DOPC  C21621532   2.910   0.919   4.654 -0.0852 -0.0953  0.2279
  176DOPC  H16R21533   2.867   0.850   4.578 -0.3599 -0.3965  0.6546
  176DOPC  H16S21534   2.830   0.930   4.730 -1.5545 -1.5478 -1.0247
  176DOPC  C21721535   3.030   0.846   4.719  0.0232 -0.2230  0.4927
  176DOPC  H17R21536   3.109   0.829   4.643  0.1906  0.8663  0.4087
  176DOPC  H17S21537   2.994   0.753   4.768  1.1633 -0.5507  0.7329
  176DOPC  C21821538   3.108   0.938   4.823  0.6231  0.8907  0.3672
  176DOPC  H18R21539   3.058   0.925   4.921  0.6296  3.0516  0.7060
  176DOPC  H18S21540   3.114   1.042   4.786 -0.6778  0.3747 -1.4791
  176DOPC  H18T21541   3.208   0.894   4.842  0.0468 -0.3860  0.5363
  176DOPC   C3321542   3.685   1.331   3.410  0.4093  1.0106  0.8339
  176DOPC   H3X21543   3.623   1.415   3.373 -0.6345 -0.8267 -1.9398
  176DOPC   H3Y21544   3.788   1.352   3.446  0.5411 -0.3580  1.3391
  176DOPC   C3421545   3.603   1.252   3.521 -0.5374 -0.4375  0.2775
  176DOPC   H4X21546   3.626   1.146   3.497  2.7708  0.4598 -1.1093
  176DOPC   H4Y21547   3.493   1.266   3.511 -0.3622  1.6078  0.7230
  176DOPC   C3521548   3.636   1.291   3.665  0.5836 -0.2443 -0.2546
  176DOPC   H5X21549   3.581   1.385   3.686  1.3733 -0.0292  0.9440
  176DOPC   H5Y21550   3.745   1.309   3.673  0.5368 -0.5036  1.2219
  176DOPC   C3621551   3.596   1.183   3.769 -0.0771 -0.4421 -1.1548
  176DOPC   H6X21552   3.492   1.154   3.745 -0.5594  0.5473 -0.3441
  176DOPC   H6Y21553   3.672   1.105   3.747  0.6756 -0.1701  0.3241
  176DOPC   C3721554   3.612   1.222   3.924  0.0810  0.2919  0.4179
  176DOPC   H7X21555   3.716   1.242   3.956  0.5239 -0.7760 -0.3053
  176DOPC   H7Y21556   3.544   1.309   3.934  1.5495  1.4319  0.8061
  176DOPC   C3821557   3.575   1.092   4.007  0.4714  0.2760 -0.6810
  176DOPC   H8X21558   3.639   1.005   3.978 -1.3385 -0.7789 -1.6669
  176DOPC   H8Y21559   3.468   1.070   3.990 -0.1445  2.0228  0.6433
  176DOPC   C3921560   3.607   1.123   4.154 -0.3136  0.3137  0.0770
  176DOPC   H9X21561   3.708   1.156   4.183  0.1155  0.7732 -1.7748
  176DOPC  C31021562   3.510   1.138   4.249  0.1248 -0.3380  0.9684
  176DOPC  H10X21563   3.540   1.170   4.350 -0.6250 -0.2768  1.1783
  176DOPC  C31121564   3.367   1.106   4.223  0.4647  0.2728  0.1230
  176DOPC  H11X21565   3.320   1.140   4.128 -0.3379  0.1494  0.4668
  176DOPC  H11Y21566   3.308   1.146   4.308  0.2238 -0.0444  0.1086
  176DOPC  C31221567   3.355   0.949   4.230 -0.3570 -0.1655 -0.2043
  176DOPC  H12X21568   3.414   0.903   4.148 -1.5585 -0.7677 -0.7451
  176DOPC  H12Y21569   3.246   0.927   4.229 -0.4508  0.2874 -1.1899
  176DOPC  C31321570   3.412   0.890   4.361  0.6917  0.1310  0.1624
  176DOPC  H13X21571   3.522   0.907   4.361  1.2129 -2.5103 -1.9633
  176DOPC  H13Y21572   3.367   0.942   4.448 -0.3045 -0.4519  0.0191
  176DOPC  C31421573   3.385   0.744   4.385 -0.4235  0.1231  0.2602
  176DOPC  H14X21574   3.435   0.684   4.306 -3.5453 -2.0003 -0.2999
  176DOPC  H14Y21575   3.414   0.698   4.482 -1.5083 -2.1855 -0.4418
  176DOPC  C31521576   3.235   0.703   4.374  0.4815 -0.1315 -0.3636
  176DOPC  H15X21577   3.199   0.715   4.269 -0.7427  2.6247  0.2756
  176DOPC  H15Y21578   3.177   0.787   4.417 -0.6726 -0.1901 -1.7084
  176DOPC  C31621579   3.188   0.571   4.436  0.5252 -0.7003 -1.1667
  176DOPC  H16X21580   3.246   0.490   4.385  0.1199 -1.2386 -0.7882
  176DOPC  H16Y21581   3.222   0.560   4.541  2.2054 -0.4022 -1.6449
  176DOPC  C31721582   3.037   0.544   4.431 -0.0827  0.3152  0.6946
  176DOPC  H17X21583   3.019   0.460   4.502 -2.1921 -0.6790 -0.9085
  176DOPC  H17Y21584   2.986   0.635   4.469  2.0883  0.8169  2.6354
  176DOPC  C31821585   2.997   0.508   4.289  0.5131 -0.4922 -0.1482
  176DOPC  H18X21586   2.889   0.482   4.281 -0.2870  2.3789 -0.0659
  176DOPC  H18Y21587   3.012   0.590   4.215 -0.3332 -0.1867  0.0080
  176DOPC  H18Z21588   3.053   0.415   4.266  0.5298 -0.6919  0.6728
  177DOPC     N21589   5.895   5.987   2.959  0.3209 -0.1160 -0.6555
  177DOPC   C1221590   5.811   5.943   3.086 -0.0350  0.0725  0.8481
  177DOPC  H12A21591   5.834   5.839   3.107  1.6081  0.5496  1.5128
  177DOPC  H12B21592   5.706   5.946   3.060  0.2725 -0.5947 -0.5960
  177DOPC   C1321593   6.037   5.978   2.991  0.0809 -0.4399  0.4456
  177DOPC  H13A21594   6.080   5.879   2.987  0.1481 -0.3691 -2.2045
  177DOPC  H13B21595   6.105   6.033   2.928 -0.2067 -0.7298 -0.1249
  177DOPC  H13C21596   6.058   6.018   3.089 -1.1313 -0.2536  0.6471
  177DOPC   C1421597   5.854   6.125   2.918  0.2873 -0.1793 -0.2688
  177DOPC  H14A21598   5.852   6.187   3.006 -1.5209  1.5378 -1.4486
  177DOPC  H14B21599   5.927   6.161   2.848 -0.6805  1.0157 -0.6922
  177DOPC  H14C21600   5.753   6.133   2.882  0.2372 -1.1711 -0.3691
  177DOPC   C1521601   5.865   5.898   2.843  0.0487  0.0494  0.2976
  177DOPC  H15A21602   5.905   5.799   2.854 -1.9567 -0.8909 -0.4112
  177DOPC  H15B21603   5.908   5.944   2.755  0.8211 -1.5007 -0.1727
  177DOPC  H15C21604   5.759   5.893   2.821  0.3247 -0.4069 -1.0481
  177DOPC   C1121605   5.825   6.020   3.222  0.0950  0.6067  0.8462
  177DOPC  H11A21606   5.794   5.945   3.298 -1.4526 -0.1070 -0.4569
  177DOPC  H11B21607   5.929   6.057   3.234 -0.2107  1.7086  0.2387
  177DOPC     P21608   5.591   6.143   3.251  0.1931 -0.1116 -0.0288
  177DOPC   O1321609   5.518   6.048   3.159 -0.9629 -0.0977 -0.5425
  177DOPC   O1421610   5.546   6.281   3.236 -0.1411 -0.1047  0.2905
  177DOPC   O1221611   5.743   6.136   3.208 -0.3047 -0.4649 -0.8295
  177DOPC   O1121612   5.583   6.094   3.396  0.3263 -0.1873 -0.1420
  177DOPC    C121613   5.583   6.176   3.515  0.6923  0.2282  0.3672
  177DOPC    HA21614   5.551   6.103   3.593 -0.4107  0.2802 -0.0183
  177DOPC    HB21615   5.508   6.257   3.510  1.0099  0.4470 -2.1750
  177DOPC    C221616   5.723   6.235   3.538 -0.5649 -1.0792 -0.0495
  177DOPC    HS21617   5.738   6.304   3.453 -0.1750 -1.1199 -0.0172
  177DOPC   O2121618   5.821   6.132   3.535 -1.3641  0.5339 -0.3633
  177DOPC   C2121619   5.940   6.160   3.487 -0.2127 -0.0151 -0.5918
  177DOPC   O2221620   5.971   6.274   3.449  0.1814 -0.0932  0.3759
  177DOPC   C2221621   6.034   6.042   3.501  0.2453 -0.9505  0.4925
  177DOPC   H2R21622   6.071   6.021   3.398 -1.4472 -0.5166 -0.2405
  177DOPC   H2S21623   5.976   5.956   3.540 -2.6919  0.0598 -1.3284
  177DOPC    C321624   5.722   6.318   3.674 -0.8092 -0.0857  0.6980
  177DOPC    HX21625   5.813   6.379   3.688 -0.8123  0.0316  0.2159
  177DOPC    HY21626   5.728   6.239   3.752 -0.4217  0.8643  1.6531
  177DOPC   O3121627   5.603   6.394   3.689  0.1894 -0.5689 -0.1744
  177DOPC   C3121628   5.607   6.515   3.638 -0.1822 -0.3226 -0.2806
  177DOPC   O3221629   5.704   6.560   3.581  0.1712 -1.1434 -0.5265
  177DOPC   C3221630   5.481   6.589   3.672  0.7043  0.1930  0.4505
  177DOPC   H2X21631   5.503   6.697   3.679 -1.7542  0.8261 -0.4870
  177DOPC   H2Y21632   5.413   6.570   3.586 -0.7951  1.4511  1.3239
  177DOPC   C2321633   6.151   6.094   3.597  0.2970  0.0733 -0.5317
  177DOPC   H3R21634   6.217   6.162   3.540  0.3119  0.7312  0.2634
  177DOPC   H3S21635   6.212   6.006   3.625 -0.8054 -1.0118 -1.4132
  177DOPC   C2421636   6.116   6.157   3.732 -0.0551  0.0832  0.5502
  177DOPC   H4R21637   6.057   6.250   3.716 -0.9682 -0.4928  0.5001
  177DOPC   H4S21638   6.206   6.196   3.784  0.7307 -0.4593 -0.3837
  177DOPC   C2521639   6.030   6.064   3.819 -0.1219  0.5541 -0.3677
  177DOPC   H5R21640   6.081   5.975   3.862 -0.6123  0.2740 -0.3534
  177DOPC   H5S21641   5.941   6.027   3.763 -1.2180  1.6690  0.5801
  177DOPC   C2621642   5.981   6.136   3.947  0.5166 -0.2677  0.0386
  177DOPC   H6R21643   5.913   6.076   4.013  0.8550  0.7095  1.2999
  177DOPC   H6S21644   5.927   6.231   3.928  1.6867  0.3518 -0.2125
  177DOPC   C2721645   6.094   6.179   4.050  0.1081 -0.5502  0.0180
  177DOPC   H7R21646   6.179   6.224   3.994 -1.0517 -0.7288 -2.0025
  177DOPC   H7S21647   6.129   6.082   4.091  1.9318 -0.4171 -1.1087
  177DOPC   C2821648   6.040   6.268   4.159 -0.1791  0.4452 -0.1750
  177DOPC   H8R21649   6.105   6.251   4.247  0.0500 -1.9317 -0.7219
  177DOPC   H8S21650   5.939   6.228   4.180 -0.2488  0.5142 -0.3762
  177DOPC   C2921651   6.039   6.410   4.120 -0.4703  0.0399  0.0034
  177DOPC   H9R21652   6.132   6.463   4.094 -0.7671  0.0975 -0.9915
  177DOPC  C21021653   5.922   6.478   4.105  0.6916  0.0781 -0.8270
  177DOPC  H10R21654   5.927   6.586   4.089  0.1034  0.1884 -0.3096
  177DOPC  C21121655   5.779   6.420   4.101 -0.5165 -0.6061  0.8871
  177DOPC  H11R21656   5.775   6.323   4.047 -2.4674 -1.1022  1.8150
  177DOPC  H11S21657   5.703   6.491   4.062  0.3915  0.7324  1.5216
  177DOPC  C21221658   5.739   6.390   4.246 -0.1051 -0.2538 -0.3530
  177DOPC  H12R21659   5.821   6.326   4.284  2.4490  1.6487 -2.2657
  177DOPC  H12S21660   5.639   6.340   4.248 -0.8421  1.1770 -0.0295
  177DOPC  C21321661   5.710   6.518   4.327 -0.1217  0.2490 -0.5942
  177DOPC  H13R21662   5.603   6.547   4.314 -0.9086 -1.6068  1.2069
  177DOPC  H13S21663   5.775   6.607   4.312 -1.6210  1.4588 -0.2038
  177DOPC  C21421664   5.718   6.486   4.475 -0.0660  0.3941  0.6366
  177DOPC  H14R21665   5.825   6.471   4.500 -0.3234  0.1479  1.6520
  177DOPC  H14S21666   5.666   6.391   4.501  1.0984 -1.0238 -1.8669
  177DOPC  C21521667   5.656   6.583   4.577  0.2600  0.0585  0.8319
  177DOPC  H15R21668   5.679   6.543   4.678  0.0953 -0.0300  0.8342
  177DOPC  H15S21669   5.545   6.590   4.572  0.3358  0.9761  0.1484
  177DOPC  C21621670   5.717   6.719   4.553 -0.3464 -0.3117 -0.2721
  177DOPC  H16R21671   5.676   6.778   4.468  0.9351 -1.2640 -1.5930
  177DOPC  H16S21672   5.825   6.708   4.534 -0.1048  1.0445  0.1974
  177DOPC  C21721673   5.692   6.804   4.685 -0.2986  0.2187  0.0838
  177DOPC  H17R21674   5.750   6.752   4.764  0.4574  1.0811  0.1136
  177DOPC  H17S21675   5.583   6.793   4.702  0.2193 -2.6188  2.2764
  177DOPC  C21821676   5.748   6.939   4.654  0.2017  0.3743 -0.2538
  177DOPC  H18R21677   5.677   6.995   4.590  0.5206  0.0062 -0.9441
  177DOPC  H18S21678   5.849   6.936   4.606 -0.5639  0.3144 -1.9386
  177DOPC  H18T21679   5.760   7.005   4.742  3.9520  0.4966 -0.6667
  177DOPC   C3321680   5.410   6.549   3.808  0.1506 -0.8976  0.3456
  177DOPC   H3X21681   5.366   6.637   3.859  1.2519  1.8001 -3.0602
  177DOPC   H3Y21682   5.490   6.535   3.884 -0.1192 -2.1567  0.4318
  177DOPC   C3421683   5.311   6.434   3.801  0.0051  0.4949 -0.2360
  177DOPC   H4X21684   5.272   6.415   3.904  0.1403 -1.9535 -0.5781
  177DOPC   H4Y21685   5.359   6.338   3.773  0.3879 -0.5021  3.3367
  177DOPC   C3521686   5.196   6.442   3.696 -0.1689 -0.4982  0.0676
  177DOPC   H5X21687   5.162   6.338   3.682 -2.6555 -0.1056  2.4161
  177DOPC   H5Y21688   5.223   6.480   3.594 -0.2943 -1.7214 -0.4329
  177DOPC   C3621689   5.076   6.517   3.743  0.9214 -0.3147 -0.0631
  177DOPC   H6X21690   5.052   6.480   3.845  1.2927  0.3367  0.2649
  177DOPC   H6Y21691   5.112   6.621   3.759  0.3696  0.0150 -0.8799
  177DOPC   C3721692   4.947   6.510   3.652 -0.4225  0.7806  0.1999
  177DOPC   H7X21693   4.979   6.517   3.545 -4.3494 -0.7131 -1.2522
  177DOPC   H7Y21694   4.899   6.410   3.656 -1.1240  1.1619  2.3152
  177DOPC   C3821695   4.836   6.614   3.679  0.0288  0.4889  0.0859
  177DOPC   H8X21696   4.808   6.598   3.785 -2.6109 -1.0091 -0.7408
  177DOPC   H8Y21697   4.747   6.582   3.620 -0.2130  0.9698  0.1770
  177DOPC   C3921698   4.871   6.756   3.648 -0.1240 -0.4574  0.0401
  177DOPC   H9X21699   4.967   6.771   3.597  0.0514  0.7712  0.6997
  177DOPC  C31021700   4.796   6.862   3.687 -0.2120  0.4230  0.3155
  177DOPC  H10X21701   4.834   6.959   3.651 -0.2219 -0.2776 -1.6737
  177DOPC  C31121702   4.663   6.861   3.756  0.2773  0.1481  0.3692
  177DOPC  H11X21703   4.621   6.761   3.782 -1.1476  0.3876 -0.8745
  177DOPC  H11Y21704   4.582   6.906   3.694 -2.3075 -1.8117  2.1126
  177DOPC  C31221705   4.653   6.945   3.887 -0.5409  0.0015  0.2315
  177DOPC  H12X21706   4.556   6.930   3.940  0.4059  0.3697  2.1852
  177DOPC  H12Y21707   4.643   7.048   3.846 -2.9559 -0.6959 -1.1179
  177DOPC  C31321708   4.775   6.936   3.981 -0.0071  0.4604  0.6855
  177DOPC  H13X21709   4.782   6.831   4.017  1.6229 -0.1787 -1.3362
  177DOPC  H13Y21710   4.872   6.951   3.929  0.9491 -2.2676  1.5330
  177DOPC  C31421711   4.766   7.027   4.096  0.1715 -0.9279 -0.6060
  177DOPC  H14X21712   4.765   7.136   4.073  1.5390 -0.0212  2.9258
  177DOPC  H14Y21713   4.676   7.000   4.154  2.0464 -1.1099  2.4599
  177DOPC  C31521714   4.882   7.004   4.195 -0.2468 -0.1672 -0.0683
  177DOPC  H15X21715   4.969   7.072   4.179 -0.8934  0.3647 -1.6359
  177DOPC  H15Y21716   4.910   6.897   4.199 -3.5417 -1.2063 -1.3134
  177DOPC  C31621717   4.842   7.045   4.341  0.1720  0.5434  0.4116
  177DOPC  H16X21718   4.831   7.155   4.350  0.9254  0.8632 -2.0311
  177DOPC  H16Y21719   4.739   7.004   4.356 -0.8365  2.1708 -1.6439
  177DOPC  C31721720   4.928   6.990   4.454  0.2141  0.8246  0.2229
  177DOPC  H17X21721   4.902   6.882   4.460  1.5562  0.5024  0.5686
  177DOPC  H17Y21722   5.035   7.011   4.437  0.7115 -0.2326  1.8194
  177DOPC  C31821723   4.907   7.049   4.594 -0.3693 -0.7308 -0.1862
  177DOPC  H18X21724   4.986   7.002   4.656 -1.3269  0.3901  1.9992
  177DOPC  H18Y21725   4.921   7.159   4.589 -1.6219 -0.5891 -1.1839
  177DOPC  H18Z21726   4.806   7.023   4.631 -0.1964 -0.5048  0.4503
  178DOPC     N21727   4.244   7.041   3.145 -0.0560 -0.4569  0.1566
  178DOPC   C1221728   4.109   6.978   3.104 -0.1660  0.2728 -0.4686
  178DOPC  H12A21729   4.113   6.969   2.996 -1.4226  1.7436 -0.6737
  178DOPC  H12B21730   4.036   7.056   3.122  1.8272  2.1957 -0.2860
  178DOPC   C1321731   4.269   7.159   3.067 -0.5371  0.0652  0.5641
  178DOPC  H13A21732   4.276   7.139   2.961 -1.3564 -0.3787  0.5855
  178DOPC  H13B21733   4.183   7.222   3.081 -0.0539  1.4365 -1.9604
  178DOPC  H13C21734   4.357   7.209   3.105  0.9114 -0.6613 -1.6475
  178DOPC   C1421735   4.352   6.939   3.129 -0.1574 -0.2080  0.2043
  178DOPC  H14A21736   4.438   6.975   3.183  1.7042 -2.9000 -0.7965
  178DOPC  H14B21737   4.324   6.841   3.163  0.6814 -1.1228 -1.5745
  178DOPC  H14C21738   4.378   6.936   3.024 -2.3622  1.3274 -0.4457
  178DOPC   C1521739   4.233   7.091   3.287 -0.3057  0.0126 -0.1317
  178DOPC  H15A21740   4.322   7.150   3.303 -0.6070  0.9758 -1.7830
  178DOPC  H15B21741   4.218   7.009   3.356 -4.0427 -1.1221 -2.0224
  178DOPC  H15C21742   4.146   7.154   3.297 -1.1434 -0.5149 -3.0529
  178DOPC   C1121743   4.074   6.841   3.166  0.3625 -0.5702 -0.0321
  178DOPC  H11A21744   4.069   6.853   3.276 -1.7677  0.3885 -0.1926
  178DOPC  H11B21745   3.972   6.824   3.127  0.2537 -0.8747  0.3881
  178DOPC     P21746   4.161   6.652   3.002 -0.2236  0.0390  0.4737
  178DOPC   O1321747   4.269   6.700   2.908  0.8033  1.0513 -0.2927
  178DOPC   O1421748   4.027   6.651   2.948 -0.3758 -0.1727 -0.2222
  178DOPC   O1221749   4.160   6.741   3.135 -0.5149  0.1609  0.1576
  178DOPC   O1121750   4.198   6.505   3.047  0.0883  0.1665  0.4925
  178DOPC    C121751   4.174   6.448   3.173 -0.8607  0.8612  0.0462
  178DOPC    HA21752   4.140   6.518   3.253 -0.0707 -2.4926  3.6376
  178DOPC    HB21753   4.279   6.418   3.196 -0.7882  0.2216 -1.0734
  178DOPC    C221754   4.091   6.317   3.162 -0.1319 -0.5498  1.4324
  178DOPC    HS21755   4.099   6.285   3.056  2.1250  2.8667  0.3861
  178DOPC   O2121756   3.958   6.343   3.208 -0.3141 -0.2523 -0.5419
  178DOPC   C2121757   3.867   6.249   3.162  0.1849  0.5171 -0.5361
  178DOPC   O2221758   3.894   6.154   3.085  0.4541  0.1396 -0.0246
  178DOPC   C2221759   3.731   6.279   3.222 -0.3902  0.0103  0.6096
  178DOPC   H2R21760   3.656   6.256   3.144  0.4060  3.6653 -1.4909
  178DOPC   H2S21761   3.734   6.389   3.240  1.8180 -0.0650  1.0460
  178DOPC    C321762   4.170   6.211   3.243  0.4555 -0.0706 -0.5711
  178DOPC    HX21763   4.270   6.212   3.194 -0.1708  2.8357 -2.0625
  178DOPC    HY21764   4.131   6.109   3.223 -0.6998  0.6952 -2.5822
  178DOPC   O3121765   4.194   6.248   3.380  0.1291  0.1452  0.6803
  178DOPC   C3121766   4.120   6.176   3.464 -0.4059 -0.2624  0.0001
  178DOPC   O3221767   4.037   6.086   3.437  0.1223 -0.4157  0.5051
  178DOPC   C3221768   4.155   6.233   3.601 -0.1292  0.5899  0.1862
  178DOPC   H2X21769   4.264   6.244   3.616 -0.1268  1.4133 -0.4252
  178DOPC   H2Y21770   4.114   6.336   3.593  1.1578  1.0532 -0.5986
  178DOPC   C2321771   3.706   6.203   3.356 -0.5767 -0.2578 -0.1556
  178DOPC   H3R21772   3.616   6.254   3.399  2.3221  2.0906  3.7666
  178DOPC   H3S21773   3.767   6.232   3.444 -2.1985  2.4467  0.2164
  178DOPC   C2421774   3.669   6.059   3.353 -0.3035 -0.0211 -0.4016
  178DOPC   H4R21775   3.763   6.005   3.377 -0.0575 -0.1680 -1.6237
  178DOPC   H4S21776   3.630   6.015   3.259 -1.6927  0.7645 -0.2306
  178DOPC   C2521777   3.573   6.019   3.464 -0.2517 -0.8256 -0.0582
  178DOPC   H5R21778   3.566   5.908   3.460  0.6095 -0.8498 -1.1593
  178DOPC   H5S21779   3.471   6.061   3.449  0.6645  2.8974  2.6494
  178DOPC   C2621780   3.623   6.058   3.609  0.1978  0.1308  0.6305
  178DOPC   H6R21781   3.593   6.165   3.614  0.1952  0.3751 -2.4701
  178DOPC   H6S21782   3.734   6.061   3.616  0.1844 -0.9870  1.4949
  178DOPC   C2721783   3.547   5.967   3.701  0.8414  0.1148  0.0878
  178DOPC   H7R21784   3.584   5.864   3.683  0.7140  0.1334 -0.2827
  178DOPC   H7S21785   3.438   5.969   3.679  0.9683  1.4123 -0.5185
  178DOPC   C2821786   3.547   6.011   3.844 -0.1229 -0.2753 -0.8886
  178DOPC   H8R21787   3.472   5.948   3.898  1.0723  0.0514  1.2881
  178DOPC   H8S21788   3.524   6.119   3.853  1.1824  0.1448 -2.1535
  178DOPC   C2921789   3.683   5.982   3.902  0.4032 -0.1150 -0.9874
  178DOPC   H9R21790   3.760   5.971   3.824 -0.1448 -0.4090 -1.4931
  178DOPC  C21021791   3.723   5.946   4.025 -0.2296 -0.8256  0.2426
  178DOPC  H10R21792   3.828   5.931   4.054 -0.3357  0.7673  1.6355
  178DOPC  C21121793   3.619   5.937   4.134  0.2885  0.6776  0.1387
  178DOPC  H11R21794   3.587   5.831   4.140 -0.6316  1.0017  1.6390
  178DOPC  H11S21795   3.525   5.991   4.112 -2.3628 -3.6920 -0.3984
  178DOPC  C21221796   3.652   5.987   4.277 -0.3540 -0.1217  0.0163
  178DOPC  H12R21797   3.701   6.087   4.275 -1.6153  0.5164 -2.3137
  178DOPC  H12S21798   3.724   5.912   4.316 -0.0741 -0.5850 -1.3406
  178DOPC  C21321799   3.528   5.977   4.364  0.4724  0.2806 -0.0167
  178DOPC  H13R21800   3.494   5.873   4.382 -1.0604  1.1086  2.3814
  178DOPC  H13S21801   3.435   6.025   4.327 -0.8878 -1.7220  0.6807
  178DOPC  C21421802   3.556   6.027   4.510 -0.2118  0.9516  0.3210
  178DOPC  H14R21803   3.601   6.129   4.506  1.7835  0.2055  1.9436
  178DOPC  H14S21804   3.631   5.967   4.566 -0.7868 -0.9886 -0.9229
  178DOPC  C21521805   3.430   6.047   4.605 -0.2247 -0.1043 -0.6211
  178DOPC  H15R21806   3.361   5.964   4.581  0.7796 -0.3687 -2.8207
  178DOPC  H15S21807   3.383   6.142   4.571  1.0484  0.7851  0.0003
  178DOPC  C21621808   3.458   6.070   4.756  0.8932  0.6856  0.1386
  178DOPC  H16R21809   3.495   5.980   4.809  0.6379  1.1064  1.0415
  178DOPC  H16S21810   3.363   6.097   4.807 -0.7094 -1.4295 -1.5242
  178DOPC  C21721811   3.556   6.185   4.785 -0.6174 -0.8349  0.7440
  178DOPC  H17R21812   3.509   6.267   4.726 -1.1642 -0.7858  1.2365
  178DOPC  H17S21813   3.651   6.163   4.732 -0.7524 -0.3589  0.2954
  178DOPC  C21821814   3.593   6.220   4.928  0.0063  0.6892 -0.9657
  178DOPC  H18R21815   3.654   6.135   4.964 -1.4273  0.0276 -0.0505
  178DOPC  H18S21816   3.515   6.242   5.004  2.8114  1.6227  1.8659
  178DOPC  H18T21817   3.651   6.315   4.916  3.4736 -1.2017 -0.5590
  178DOPC   C3321818   4.097   6.152   3.718  0.1405 -0.2599 -0.0957
  178DOPC   H3X21819   4.117   6.043   3.710 -0.1498 -0.1838 -2.3086
  178DOPC   H3Y21820   3.991   6.185   3.726  0.3509  0.4898 -0.2974
  178DOPC   C3421821   4.159   6.190   3.855 -0.4787  0.3456 -0.2807
  178DOPC   H4X21822   4.131   6.297   3.863 -1.8792  0.2824 -3.0735
  178DOPC   H4Y21823   4.269   6.178   3.845 -0.5941 -0.4987 -0.6176
  178DOPC   C3521824   4.113   6.117   3.987 -0.3187  0.0909 -0.3858
  178DOPC   H5X21825   4.145   6.011   3.991  0.8234  0.3268 -2.1776
  178DOPC   H5Y21826   4.003   6.123   3.972 -0.0828 -1.1616 -3.0493
  178DOPC   C3621827   4.164   6.180   4.115  0.6970  0.5629 -0.2009
  178DOPC   H6X21828   4.271   6.159   4.132  0.9101  1.0263 -0.9314
  178DOPC   H6Y21829   4.145   6.289   4.118  2.6020  0.9126  0.7785
  178DOPC   C3721830   4.092   6.133   4.241 -0.0950 -0.5268  0.0541
  178DOPC   H7X21831   3.986   6.168   4.238 -0.0924 -0.1044  2.6727
  178DOPC   H7Y21832   4.096   6.023   4.256 -0.6639 -0.6261 -0.4521
  178DOPC   C3821833   4.145   6.191   4.377 -0.2890 -0.3746  0.2327
  178DOPC   H8X21834   4.069   6.158   4.451  0.2915  0.1535  1.0919
  178DOPC   H8Y21835   4.151   6.302   4.384  0.7007 -0.3812 -0.3666
  178DOPC   C3921836   4.289   6.137   4.408  0.3226  0.7068  0.6786
  178DOPC   H9X21837   4.372   6.202   4.376  0.9911 -0.4482 -0.0102
  178DOPC  C31021838   4.310   6.032   4.485 -0.9017  0.1402 -0.2764
  178DOPC  H10X21839   4.415   6.004   4.502 -1.8533 -1.4210  5.0619
  178DOPC  C31121840   4.217   5.947   4.563  0.6155 -0.6653  0.5069
  178DOPC  H11X21841   4.237   5.839   4.545  1.8345 -0.3976  0.1668
  178DOPC  H11Y21842   4.109   5.966   4.544 -0.2906 -4.4260  1.0752
  178DOPC  C31221843   4.242   5.978   4.709  0.6314  0.3035 -0.4442
  178DOPC  H12X21844   4.163   5.926   4.766  1.2192  1.0923  1.1486
  178DOPC  H12Y21845   4.239   6.087   4.729  0.8979  0.1202  0.6505
  178DOPC  C31321846   4.371   5.915   4.769  0.8500 -0.3076 -0.5344
  178DOPC  H13X21847   4.388   5.811   4.732  0.9764 -0.8315  0.9329
  178DOPC  H13Y21848   4.454   5.981   4.736  0.3195  0.2557 -0.7708
  178DOPC  C31421849   4.364   5.919   4.922  0.0746 -0.3864  0.3289
  178DOPC  H14X21850   4.356   6.025   4.955  2.5157 -0.4343  1.3636
  178DOPC  H14Y21851   4.273   5.862   4.949 -0.1619 -1.7574 -2.9856
  178DOPC  C31521852   4.494   5.859   4.979  0.0786 -0.1122  0.2880
  178DOPC  H15X21853   4.582   5.915   4.938  1.8089 -0.8848  2.7272
  178DOPC  H15Y21854   4.494   5.755   4.940  0.1570 -0.4066  1.0668
  178DOPC  C31621855   4.491   5.851   5.128  0.2430 -0.1918 -0.3012
  178DOPC  H16X21856   4.420   5.774   5.166 -0.9046  0.7996 -0.4025
  178DOPC  H16Y21857   4.591   5.825   5.169  0.1368 -0.2713 -0.0940
  178DOPC  C31721858   4.433   5.968   5.203  0.1330  0.8592  0.4144
  178DOPC  H17X21859   4.329   5.965   5.164 -0.0982  1.6684  0.9514
  178DOPC  H17Y21860   4.425   5.938   5.309  3.4734 -1.7826  0.0747
  178DOPC  C31821861   4.505   6.098   5.180  0.6994  0.3351  0.0047
  178DOPC  H18X21862   4.527   6.110   5.072  1.4079 -0.8132  0.0028
  178DOPC  H18Y21863   4.452   6.187   5.220 -1.4069 -0.8230 -0.0632
  178DOPC  H18Z21864   4.598   6.091   5.240 -0.5301 -0.1100  1.9688
  179DOPC     N21865   6.679   6.830   2.885  0.1820  0.3212 -0.2037
  179DOPC   C1221866   6.530   6.817   2.845  0.1504  0.0299  0.0036
  179DOPC  H12A21867   6.529   6.763   2.751  0.4936 -1.1105  0.6396
  179DOPC  H12B21868   6.497   6.919   2.832  0.2274  0.2391  1.3465
  179DOPC   C1321869   6.672   6.912   3.009 -0.1032 -0.0267 -0.3898
  179DOPC  H13A21870   6.623   7.006   2.993 -0.5858  0.1790  1.8677
  179DOPC  H13B21871   6.620   6.864   3.091 -1.5229  0.6194 -0.8786
  179DOPC  H13C21872   6.766   6.938   3.056  1.0636 -0.7691 -2.2002
  179DOPC   C1421873   6.756   6.895   2.776 -0.0272  0.9640  0.0704
  179DOPC  H14A21874   6.856   6.893   2.818 -1.2230  0.5023  3.1646
  179DOPC  H14B21875   6.750   6.832   2.689  1.1244 -0.4670  0.9791
  179DOPC  H14C21876   6.720   6.991   2.743 -1.9401 -0.4743 -2.3388
  179DOPC   C1521877   6.741   6.696   2.901 -0.0975 -1.1871 -0.5180
  179DOPC  H15A21878   6.849   6.700   2.908  0.0346 -2.2829 -1.5615
  179DOPC  H15B21879   6.714   6.635   2.816 -2.0994  1.3980 -1.8818
  179DOPC  H15C21880   6.701   6.644   2.987  0.5748  1.2211  1.3604
  179DOPC   C1121881   6.433   6.758   2.949 -0.4825 -0.6772  0.2090
  179DOPC  H11A21882   6.430   6.832   3.032  0.5348  1.3592 -1.4478
  179DOPC  H11B21883   6.337   6.765   2.894  0.4091 -2.3789 -1.6881
  179DOPC     P21884   6.390   6.568   3.120 -0.0742  0.5088  0.1589
  179DOPC   O1321885   6.483   6.459   3.164  0.1426  0.0290 -0.3138
  179DOPC   O1421886   6.250   6.527   3.083 -0.2124 -0.0146 -0.0746
  179DOPC   O1221887   6.472   6.632   2.998 -0.2385  0.4963  0.0928
  179DOPC   O1121888   6.384   6.680   3.234  0.2977 -0.1312  0.1737
  179DOPC    C121889   6.498   6.731   3.308 -0.1465  0.0742  0.3596
  179DOPC    HA21890   6.493   6.841   3.322 -0.3774  0.1904 -0.5622
  179DOPC    HB21891   6.583   6.702   3.243 -1.7080  0.7576 -2.1591
  179DOPC    C221892   6.500   6.650   3.438 -0.0411 -0.0048  0.5772
  179DOPC    HS21893   6.483   6.545   3.407 -0.5090  0.0220  0.7365
  179DOPC   O2121894   6.396   6.689   3.529 -0.4210  0.5095 -0.1181
  179DOPC   C2121895   6.282   6.622   3.521  0.1022 -0.3018 -0.0591
  179DOPC   O2221896   6.262   6.520   3.453  0.1581 -0.1504 -0.8238
  179DOPC   C2221897   6.181   6.680   3.616 -0.1352  1.0324  0.1714
  179DOPC   H2R21898   6.097   6.727   3.561 -0.7799  0.1738  0.4083
  179DOPC   H2S21899   6.231   6.762   3.672  1.4617  0.5788 -0.5346
  179DOPC    C321900   6.640   6.652   3.505 -0.2789  0.4698 -0.2366
  179DOPC    HX21901   6.669   6.755   3.536  0.0126  0.4464 -0.4303
  179DOPC    HY21902   6.712   6.617   3.428  0.5185 -1.4806  1.2849
  179DOPC   O3121903   6.637   6.561   3.625  0.4779 -0.4078  0.0779
  179DOPC   C3121904   6.649   6.431   3.599 -0.2399  0.0916  0.9718
  179DOPC   O3221905   6.674   6.377   3.491  0.5545  0.1234  0.1576
  179DOPC   C3221906   6.591   6.348   3.719  0.2735  0.3524  0.5357
  179DOPC   H2X21907   6.540   6.259   3.675 -2.0626  1.7160  0.3083
  179DOPC   H2Y21908   6.677   6.313   3.781  1.0372 -1.1055 -1.2691
  179DOPC   C2321909   6.124   6.583   3.718 -0.0128 -0.0576  1.3010
  179DOPC   H3R21910   6.202   6.549   3.790  0.3470 -0.5102  0.7161
  179DOPC   H3S21911   6.093   6.488   3.668 -1.1318  0.8288  0.2515
  179DOPC   C2421912   5.999   6.636   3.776  0.8117  0.2963 -0.2341
  179DOPC   H4R21913   5.927   6.558   3.811  0.5702  0.6474  0.0609
  179DOPC   H4S21914   5.944   6.672   3.687 -1.2268 -2.2889 -0.1422
  179DOPC   C2521915   6.012   6.750   3.882  0.6089  0.2310  0.1857
  179DOPC   H5R21916   6.086   6.824   3.845  0.7747 -0.9469 -2.0072
  179DOPC   H5S21917   6.041   6.695   3.975 -3.6621 -0.5392  1.2610
  179DOPC   C2621918   5.878   6.826   3.899 -0.3779  0.2965 -0.0545
  179DOPC   H6R21919   5.794   6.756   3.921 -1.0068  0.9791 -0.2293
  179DOPC   H6S21920   5.851   6.875   3.803 -1.6811 -0.5443 -0.1447
  179DOPC   C2721921   5.887   6.938   4.003  0.2578  0.5227 -0.4192
  179DOPC   H7R21922   5.798   7.005   3.994 -0.3761  0.0218  1.6727
  179DOPC   H7S21923   5.988   6.982   3.990  1.9329 -2.7169  0.6570
  179DOPC   C2821924   5.870   6.869   4.144 -0.1854 -0.4232  0.1663
  179DOPC   H8R21925   5.942   6.789   4.170 -0.7367 -0.5227  1.4686
  179DOPC   H8S21926   5.775   6.813   4.133  0.4234 -1.7166  1.2360
  179DOPC   C2921927   5.860   6.973   4.256 -0.2246 -0.1663 -0.4598
  179DOPC   H9R21928   5.954   6.990   4.311 -1.3978  0.9358  1.2969
  179DOPC  C21021929   5.747   7.038   4.302 -0.4117  0.6045  0.1794
  179DOPC  H10R21930   5.773   7.126   4.363 -0.1621  0.4263  0.3330
  179DOPC  C21121931   5.612   7.035   4.242  0.6273  0.4573 -0.5473
  179DOPC  H11R21932   5.532   7.019   4.317  1.5357 -2.2403 -0.0162
  179DOPC  H11S21933   5.603   6.952   4.168 -1.8283  0.5001 -0.3759
  179DOPC  C21221934   5.592   7.163   4.153  1.1007  0.4505 -0.6919
  179DOPC  H12R21935   5.682   7.184   4.092  0.4829 -1.1423 -2.2385
  179DOPC  H12S21936   5.568   7.251   4.217 -1.1692 -2.1783  2.4402
  179DOPC  C21321937   5.470   7.140   4.061 -0.7371  0.1687  0.1866
  179DOPC  H13R21938   5.381   7.140   4.128 -0.7521 -1.1381  0.1905
  179DOPC  H13S21939   5.467   7.043   4.007 -0.3140  0.4369 -0.3206
  179DOPC  C21421940   5.452   7.253   3.952  0.3472  0.3404  0.4387
  179DOPC  H14R21941   5.540   7.256   3.885 -1.4946 -0.1423 -2.1595
  179DOPC  H14S21942   5.446   7.357   3.989  1.4891  0.7853 -0.5419
  179DOPC  C21521943   5.340   7.217   3.857  0.6935 -0.2322 -0.2359
  179DOPC  H15R21944   5.317   7.309   3.799  0.0198 -0.4309 -0.2928
  179DOPC  H15S21945   5.247   7.200   3.917  1.1747  3.7175  2.0273
  179DOPC  C21621946   5.364   7.102   3.761  0.2027  0.1844  0.4188
  179DOPC  H16R21947   5.402   7.007   3.804  1.3979  0.3413 -0.2447
  179DOPC  H16S21948   5.427   7.135   3.676  0.6564  2.2310  1.4916
  179DOPC  C21721949   5.234   7.055   3.685  0.1229 -0.5020 -0.3614
  179DOPC  H17R21950   5.216   7.122   3.599 -1.9410  0.8165  1.0022
  179DOPC  H17S21951   5.141   7.058   3.746 -0.7129 -1.4331 -1.5420
  179DOPC  C21821952   5.252   6.916   3.627  0.6789 -0.0854  0.5294
  179DOPC  H18R21953   5.168   6.894   3.559  0.2089 -0.9588  1.3634
  179DOPC  H18S21954   5.252   6.840   3.708 -1.1348 -0.1124  0.5395
  179DOPC  H18T21955   5.349   6.913   3.573  0.2764  1.2320 -0.2962
  179DOPC   C3321956   6.491   6.424   3.800  0.0084  0.4356 -0.0850
  179DOPC   H3X21957   6.406   6.457   3.737 -1.0725  0.0127  1.0952
  179DOPC   H3Y21958   6.530   6.522   3.835 -1.0601  1.1505 -0.8194
  179DOPC   C3421959   6.440   6.343   3.917 -0.3641 -0.6922 -0.1939
  179DOPC   H4X21960   6.426   6.239   3.880  1.7475 -0.7000 -1.1111
  179DOPC   H4Y21961   6.339   6.381   3.945  0.0301 -0.0810  0.4160
  179DOPC   C3521962   6.530   6.353   4.039 -0.6853  0.0363  0.1434
  179DOPC   H5X21963   6.531   6.462   4.062  0.7392  0.2774 -0.8861
  179DOPC   H5Y21964   6.634   6.331   4.005 -0.7837 -0.9702  0.4657
  179DOPC   C3621965   6.491   6.267   4.161  0.0820  1.2828  0.2516
  179DOPC   H6X21966   6.554   6.280   4.251  4.0700 -0.4818 -2.0455
  179DOPC   H6Y21967   6.382   6.280   4.179 -0.3329 -0.7925 -0.4611
  179DOPC   C3721968   6.505   6.115   4.126  0.4929  0.1056  0.5648
  179DOPC   H7X21969   6.470   6.056   4.214  0.0271  0.7285  0.8042
  179DOPC   H7Y21970   6.436   6.089   4.044  1.2957  0.4752 -0.2446
  179DOPC   C3821971   6.651   6.075   4.091 -0.2192  0.7164  0.1618
  179DOPC   H8X21972   6.699   6.066   4.190 -0.8980  0.6399  0.4874
  179DOPC   H8Y21973   6.712   6.154   4.042  0.8017 -0.4557 -0.5209
  179DOPC   C3921974   6.667   5.941   4.023 -0.7241 -0.3013  0.1853
  179DOPC   H9X21975   6.639   5.850   4.078  1.6669 -0.9977  0.3769
  179DOPC  C31021976   6.706   5.917   3.900  0.1128  0.0210  0.0014
  179DOPC  H10X21977   6.708   5.817   3.855 -0.9164 -0.0047 -0.0238
  179DOPC  C31121978   6.744   6.018   3.794 -0.4986  0.5130  0.2233
  179DOPC  H11X21979   6.661   6.091   3.782 -0.0761  0.8620 -0.6406
  179DOPC  H11Y21980   6.747   5.978   3.690 -3.3861  2.2424 -0.6305
  179DOPC  C31221981   6.879   6.084   3.822 -0.2843 -0.7426 -0.3124
  179DOPC  H12X21982   6.945   5.999   3.848 -1.0363 -2.1101 -2.5865
  179DOPC  H12Y21983   6.881   6.160   3.904  1.2830 -1.4094  0.3156
  179DOPC  C31321984   6.941   6.162   3.703 -0.6289  0.7112 -0.5987
  179DOPC  H13X21985   6.964   6.092   3.621 -1.1586  1.1999 -1.1820
  179DOPC  H13Y21986   6.863   6.227   3.658 -1.1115 -0.8944 -2.1417
  179DOPC  C31421987   7.071   6.239   3.725 -0.2510  0.1757 -0.3450
  179DOPC  H14X21988   7.050   6.322   3.795  0.8093 -0.0234  0.2350
  179DOPC  H14Y21989   7.149   6.173   3.768 -1.5010 -2.2389 -1.5733
  179DOPC  C31521990   7.140   6.300   3.598  0.3248  0.4677 -0.3526
  179DOPC  H15X21991   7.153   6.219   3.522 -0.1909 -0.1012  0.1580
  179DOPC  H15Y21992   7.240   6.337   3.630  0.0641  1.2994 -0.4724
  179DOPC  C31621993   7.074   6.432   3.538 -0.1557  0.1233  0.5217
  179DOPC  H16X21994   6.993   6.404   3.467  0.3011  0.1398 -0.0159
  179DOPC  H16Y21995   7.023   6.484   3.622 -0.7138  1.4093 -0.5757
  179DOPC  C31721996   7.157   6.519   3.444 -0.4708  0.0714 -0.2374
  179DOPC  H17X21997   7.250   6.547   3.498  0.0780  0.6668 -1.4595
  179DOPC  H17Y21998   7.193   6.470   3.351  0.3008  0.1281  0.0234
  179DOPC  C31821999   7.075   6.652   3.421 -0.4376  0.5390  0.5980
  179DOPC  H18X22000   7.106   6.705   3.328  0.5376  0.3635  0.8166
  179DOPC  H18Y22001   6.967   6.631   3.403  0.0304 -0.2732 -1.6619
  179DOPC  H18Z22002   7.093   6.721   3.506  0.9303  1.9554 -0.7755
  180DOPC     N22003   7.203   2.766   2.864  0.8800  0.5051  0.1493
  180DOPC   C1222004   7.252   2.847   2.986  0.3780 -0.2966 -0.0117
  180DOPC  H12A22005   7.290   2.941   2.946  0.8170 -0.1037  0.8409
  180DOPC  H12B22006   7.337   2.792   3.022  1.0624 -1.6550 -3.3355
  180DOPC   C1322007   7.322   2.759   2.777  0.6513 -0.3847 -0.2922
  180DOPC  H13A22008   7.388   2.686   2.821  0.1637  0.2804  1.6306
  180DOPC  H13B22009   7.295   2.723   2.679 -1.1630 -0.0366  0.0542
  180DOPC  H13C22010   7.356   2.862   2.767 -0.9121  0.4519  2.0888
  180DOPC   C1422011   7.095   2.832   2.787  0.0367 -0.7284 -0.5701
  180DOPC  H14A22012   7.016   2.864   2.853  1.0324 -1.3040  0.9612
  180DOPC  H14B22013   7.130   2.918   2.731 -2.9711  2.1507  1.5773
  180DOPC  H14C22014   7.046   2.764   2.719  1.5108 -1.3259 -1.0730
  180DOPC   C1522015   7.158   2.630   2.911  0.5473  0.7084  0.2574
  180DOPC  H15A22016   7.098   2.641   3.000 -1.3995 -2.4237 -0.5052
  180DOPC  H15B22017   7.236   2.566   2.947 -0.4912 -1.0419 -0.4404
  180DOPC  H15C22018   7.094   2.574   2.844 -1.0519  0.7401  1.6784
  180DOPC   C1122019   7.149   2.862   3.102 -0.7930 -0.0697  0.1884
  180DOPC  H11A22020   7.168   2.949   3.168 -1.4363  0.2234  0.0036
  180DOPC  H11B22021   7.051   2.883   3.054  0.1017  1.3578 -1.1234
  180DOPC     P22022   7.282   2.711   3.270 -0.4597 -0.2050 -0.3712
  180DOPC   O1322023   7.396   2.796   3.227 -0.1251 -0.6243  0.2993
  180DOPC   O1422024   7.297   2.564   3.266  0.2749 -0.8329 -0.0282
  180DOPC   O1222025   7.150   2.747   3.179  0.1598 -0.1408 -0.5704
  180DOPC   O1122026   7.246   2.759   3.421 -0.2718  0.7273 -0.1686
  180DOPC    C122027   7.112   2.737   3.471 -0.3201 -0.0945  0.0768
  180DOPC    HA22028   7.086   2.630   3.480  0.9971 -0.4914 -0.5979
  180DOPC    HB22029   7.036   2.784   3.404  0.8362  2.6970  0.5968
  180DOPC    C222030   7.098   2.790   3.618  0.0307 -0.2282 -0.2250
  180DOPC    HS22031   7.156   2.884   3.612 -2.1710  1.3656  1.7608
  180DOPC   O2122032   7.153   2.697   3.708  0.3416  0.8104 -0.0880
  180DOPC   C2122033   7.210   2.757   3.817  0.0305 -0.1232 -0.3313
  180DOPC   O2222034   7.233   2.877   3.827 -0.0348  0.4348  0.2235
  180DOPC   C2222035   7.251   2.660   3.920  0.5587 -0.1532  0.3838
  180DOPC   H2R22036   7.315   2.585   3.869 -0.5129 -1.1765  0.4878
  180DOPC   H2S22037   7.158   2.607   3.949  1.3821 -0.6191  2.2774
  180DOPC    C322038   6.949   2.824   3.655  1.2683 -0.1978 -0.5869
  180DOPC    HX22039   6.899   2.726   3.667  0.8296  0.2116  1.2849
  180DOPC    HY22040   6.901   2.877   3.570  1.2716  0.1931 -0.3473
  180DOPC   O3122041   6.939   2.901   3.783 -0.5341  0.2652  0.5781
  180DOPC   C3122042   6.995   3.029   3.768 -0.1725 -0.2948  0.0044
  180DOPC   O3222043   7.028   3.074   3.662  0.1202  0.1557  0.3870
  180DOPC   C3222044   7.004   3.100   3.902 -0.4349 -0.2587 -0.0418
  180DOPC   H2X22045   6.899   3.104   3.939 -0.1050  1.8781  0.8136
  180DOPC   H2Y22046   7.072   3.056   3.978  1.6140 -0.3050 -1.7986
  180DOPC   C2322047   7.318   2.713   4.048  0.2038 -0.1761 -0.9757
  180DOPC   H3R22048   7.390   2.793   4.020  1.9720 -1.6692 -0.8568
  180DOPC   H3S22049   7.379   2.629   4.087 -1.1022 -0.3337  0.8617
  180DOPC   C2422050   7.218   2.763   4.154  0.1008 -0.3744 -0.1320
  180DOPC   H4R22051   7.143   2.682   4.170  1.6564 -1.9617 -0.5546
  180DOPC   H4S22052   7.172   2.859   4.124 -4.4477 -1.3950  2.5301
  180DOPC   C2522053   7.289   2.780   4.293 -0.4209  0.2230  0.3894
  180DOPC   H5R22054   7.366   2.860   4.289  1.3411 -1.4050 -0.6763
  180DOPC   H5S22055   7.337   2.680   4.307 -0.3770  0.4314  1.8595
  180DOPC   C2622056   7.194   2.792   4.408  0.4968 -0.2604 -0.6389
  180DOPC   H6R22057   7.102   2.736   4.382 -1.2646  1.8663  0.7388
  180DOPC   H6S22058   7.161   2.898   4.410 -0.0696 -0.4388 -0.5245
  180DOPC   C2722059   7.254   2.744   4.540  0.3230 -0.2468 -0.0572
  180DOPC   H7R22060   7.359   2.780   4.547  0.0265  0.5040  0.6018
  180DOPC   H7S22061   7.256   2.633   4.532 -2.2779 -0.3160 -0.7169
  180DOPC   C2822062   7.176   2.780   4.666  0.0216  0.0967 -0.6879
  180DOPC   H8R22063   7.233   2.753   4.758 -1.1037  0.3115  0.0938
  180DOPC   H8S22064   7.084   2.717   4.664  0.9307 -1.2489 -1.4830
  180DOPC   C2922065   7.160   2.928   4.681 -0.2538  0.3973 -0.3153
  180DOPC   H9R22066   7.254   2.984   4.669  0.5153 -1.1910 -2.2164
  180DOPC  C21022067   7.042   2.993   4.697  0.5109  0.4794 -0.5272
  180DOPC  H10R22068   7.052   3.102   4.711  1.2841  0.8144 -3.1572
  180DOPC  C21122069   6.911   2.923   4.722 -0.2361 -0.3716  0.6721
  180DOPC  H11R22070   6.931   2.816   4.743 -1.6607 -1.1132 -1.3986
  180DOPC  H11S22071   6.847   2.931   4.631  1.0384  2.0728 -0.0906
  180DOPC  C21222072   6.833   2.988   4.842  0.2394 -0.3844 -0.5524
  180DOPC  H12R22073   6.830   3.099   4.829 -1.7575 -0.1415  1.3159
  180DOPC  H12S22074   6.895   2.964   4.931 -0.3833  0.1468  0.0381
  180DOPC  C21322075   6.684   2.954   4.856 -0.1166 -0.6005  0.0798
  180DOPC  H13R22076   6.677   2.844   4.836  1.6938 -0.5465 -1.1001
  180DOPC  H13S22077   6.624   3.005   4.779 -1.3113  0.5012  1.6935
  180DOPC  C21422078   6.628   2.979   5.002  0.1312 -0.2092  0.4935
  180DOPC  H14R22079   6.628   3.089   5.013  0.8342 -0.0514 -0.9293
  180DOPC  H14S22080   6.700   2.938   5.076  0.9730  1.1008  0.4204
  180DOPC  C21522081   6.481   2.922   5.017 -0.3832  0.1235  0.0738
  180DOPC  H15R22082   6.459   2.953   5.122  0.2256  1.1438 -0.0914
  180DOPC  H15S22083   6.477   2.812   4.998  1.0883  0.1901 -0.7670
  180DOPC  C21622084   6.392   2.983   4.921  0.0957  0.0119  0.3986
  180DOPC  H16R22085   6.417   2.956   4.817  0.9862 -0.5460  0.7485
  180DOPC  H16S22086   6.404   3.093   4.920  1.1864 -0.0338  2.6044
  180DOPC  C21722087   6.240   2.960   4.938  0.8780  0.3408  0.5444
  180DOPC  H17R22088   6.206   2.992   5.038 -1.9640  0.3609 -0.3459
  180DOPC  H17S22089   6.226   2.853   4.914 -1.2024  1.0749 -2.0691
  180DOPC  C21822090   6.167   3.024   4.826 -0.1859  0.5833 -0.4311
  180DOPC  H18R22091   6.197   3.131   4.815  1.0490  0.1735 -1.3850
  180DOPC  H18S22092   6.056   3.022   4.826 -0.1922  0.5172  0.5187
  180DOPC  H18T22093   6.197   2.971   4.733  0.0130  2.5030 -1.5182
  180DOPC   C3322094   7.052   3.252   3.889 -0.0558  0.5738  0.2526
  180DOPC   H3X22095   6.983   3.312   3.827 -0.4727  1.2373  1.3277
  180DOPC   H3Y22096   7.149   3.257   3.835 -0.5941  0.3063 -0.7555
  180DOPC   C3422097   7.095   3.321   4.021 -0.2498  0.3000  0.3070
  180DOPC   H4X22098   7.171   3.261   4.076  1.5619  0.2941 -2.0057
  180DOPC   H4Y22099   7.006   3.334   4.085 -0.5468  1.1959 -0.2755
  180DOPC   C3522100   7.147   3.465   4.010 -0.3081 -0.0197  0.1360
  180DOPC   H5X22101   7.101   3.513   3.920 -0.7701  1.7205  1.2459
  180DOPC   H5Y22102   7.255   3.467   3.987 -0.6738  0.5551 -1.7903
  180DOPC   C3622103   7.132   3.558   4.128 -0.4292 -0.0302 -0.7230
  180DOPC   H6X22104   7.147   3.494   4.217 -1.0902 -3.5601 -2.9534
  180DOPC   H6Y22105   7.215   3.632   4.139  1.9807 -2.8867  2.1656
  180DOPC   C3722106   6.994   3.622   4.147 -0.5226 -1.0089 -0.7687
  180DOPC   H7X22107   6.961   3.686   4.063  1.0001  0.6753 -0.1516
  180DOPC   H7Y22108   6.920   3.538   4.148 -1.6962 -0.1262 -3.5813
  180DOPC   C3822109   7.000   3.699   4.285 -0.0543 -0.6018  0.3009
  180DOPC   H8X22110   7.053   3.796   4.270  0.0615 -0.9352 -1.7611
  180DOPC   H8Y22111   7.063   3.646   4.361  1.6369  0.0010 -0.6314
  180DOPC   C3922112   6.859   3.731   4.332  0.2729 -0.1373  0.3048
  180DOPC   H9X22113   6.792   3.775   4.256  0.8906 -0.1231 -0.2375
  180DOPC  C31022114   6.805   3.711   4.452 -0.3065  0.3521 -0.9509
  180DOPC  H10X22115   6.700   3.741   4.466 -0.6595 -0.8984 -0.8199
  180DOPC  C31122116   6.862   3.631   4.566  0.1910  0.0206  0.4006
  180DOPC  H11X22117   6.966   3.604   4.540  0.1631 -0.4585  0.7835
  180DOPC  H11Y22118   6.796   3.543   4.575  0.6919 -0.2377  1.7255
  180DOPC  C31222119   6.856   3.693   4.705  0.7935  0.6028  0.0923
  180DOPC  H12X22120   6.762   3.740   4.740 -0.3634 -1.1987 -0.4300
  180DOPC  H12Y22121   6.927   3.778   4.712 -0.7411  1.8067  2.3147
  180DOPC  C31322122   6.888   3.588   4.826 -0.0342  0.4522  0.6965
  180DOPC  H13X22123   6.925   3.499   4.770 -0.2989  0.7617  0.0184
  180DOPC  H13Y22124   6.972   3.632   4.884 -0.9274  1.4231  1.2855
  180DOPC  C31422125   6.769   3.567   4.917 -0.2989  0.1701  0.5146
  180DOPC  H14X22126   6.794   3.559   5.025 -1.3439  1.3726  0.8680
  180DOPC  H14Y22127   6.687   3.642   4.911  0.2419  0.7265 -0.0772
  180DOPC  C31522128   6.695   3.435   4.876  0.5958 -0.0243  0.4354
  180DOPC  H15X22129   6.763   3.348   4.863 -0.8051 -1.2834  1.1794
  180DOPC  H15Y22130   6.649   3.452   4.776 -0.8087 -0.6452  0.9489
  180DOPC  C31622131   6.580   3.396   4.971  0.4781 -0.6185 -0.3712
  180DOPC  H16X22132   6.507   3.480   4.977 -0.9845 -1.7720 -1.5421
  180DOPC  H16Y22133   6.521   3.312   4.931 -0.7352  0.0617 -0.0713
  180DOPC  C31722134   6.611   3.354   5.118 -0.4755  0.2811 -0.1923
  180DOPC  H17X22135   6.685   3.271   5.108 -1.9225 -0.9816 -0.7068
  180DOPC  H17Y22136   6.664   3.443   5.160  0.7485 -0.2616 -0.5414
  180DOPC  C31822137   6.490   3.313   5.203  0.7671  0.0194  0.3942
  180DOPC  H18X22138   6.443   3.225   5.154  1.6613 -1.4114  2.0257
  180DOPC  H18Y22139   6.513   3.290   5.309  0.0286 -0.9493  0.3609
  180DOPC  H18Z22140   6.414   3.394   5.194 -1.7937 -2.0367  2.2100
  181DOPC     N22141   0.312   3.285   3.152 -0.6978 -0.8717  0.5133
  181DOPC   C1222142   0.374   3.166   3.226 -0.2828 -0.0879 -0.4637
  181DOPC  H12A22143   0.310   3.136   3.307  0.6682 -0.5150  0.1573
  181DOPC  H12B22144   0.467   3.196   3.272  0.2135 -0.4937 -1.1806
  181DOPC   C1322145   0.304   3.405   3.248 -0.1104  0.3539 -0.0858
  181DOPC  H13A22146   0.400   3.447   3.274 -0.5638  1.2638  0.1369
  181DOPC  H13B22147   0.257   3.493   3.207  1.3024  0.9572 -0.4566
  181DOPC  H13C22148   0.261   3.380   3.344  3.2861 -0.7621  1.3017
  181DOPC   C1422149   0.169   3.265   3.115  0.5831  0.0342 -0.2285
  181DOPC  H14A22150   0.127   3.363   3.097 -0.4552 -0.3224  0.1792
  181DOPC  H14B22151   0.152   3.200   3.031  1.0074 -1.6279  0.9235
  181DOPC  H14C22152   0.102   3.232   3.192  0.2802 -0.4389 -0.6894
  181DOPC   C1522153   0.388   3.313   3.031  0.2308  0.2390  0.2216
  181DOPC  H15A22154   0.492   3.329   3.057 -0.0908  1.8993  0.6421
  181DOPC  H15B22155   0.355   3.405   2.986  0.9268  0.9385  1.0917
  181DOPC  H15C22156   0.398   3.229   2.964 -1.3795 -1.3105  1.8269
  181DOPC   C1122157   0.386   3.043   3.146 -0.1597 -0.2021  0.3926
  181DOPC  H11A22158   0.301   3.011   3.082  0.2869 -0.5385 -0.0408
  181DOPC  H11B22159   0.471   3.055   3.075  0.2144 -3.1662  0.1955
  181DOPC     P22160   0.361   2.800   3.255  0.3914  0.1260  0.1109
  181DOPC   O1322161   0.453   2.689   3.216  0.8927  0.1169  0.2716
  181DOPC   O1422162   0.229   2.804   3.186  0.0413  0.4635 -0.0785
  181DOPC   O1222163   0.426   2.945   3.240 -0.5053  0.8108 -0.1296
  181DOPC   O1122164   0.334   2.766   3.417 -0.0745 -0.6880 -0.3083
  181DOPC    C122165   0.364   2.861   3.516 -1.1847 -0.5152  0.4964
  181DOPC    HA22166   0.323   2.837   3.617 -1.2399 -2.1927  0.0981
  181DOPC    HB22167   0.319   2.956   3.481 -0.3481 -0.5956 -0.8649
  181DOPC    C222168   0.520   2.876   3.536  0.4351  1.2055 -0.0832
  181DOPC    HS22169   0.569   2.906   3.441  0.5529  0.1530 -0.3668
  181DOPC   O2122170   0.566   2.748   3.578 -0.2076  0.0392  0.4362
  181DOPC   C2122171   0.692   2.734   3.556 -0.5044  0.0940  0.1566
  181DOPC   O2222172   0.761   2.811   3.485 -0.2615  0.2458 -0.3721
  181DOPC   C2222173   0.750   2.620   3.637  0.1841 -0.0691  0.1596
  181DOPC   H2R22174   0.733   2.657   3.740  0.5585 -1.2302  0.6523
  181DOPC   H2S22175   0.858   2.614   3.613 -0.2551 -1.8487 -1.6015
  181DOPC    C322176   0.547   2.994   3.638  0.1625  0.8662 -0.2020
  181DOPC    HX22177   0.460   2.988   3.707 -0.0698  0.2291 -0.5435
  181DOPC    HY22178   0.535   3.086   3.577 -0.5779 -0.4307 -2.0744
  181DOPC   O3122179   0.674   2.999   3.704 -0.0073  0.2289  0.1817
  181DOPC   C3122180   0.706   3.123   3.743  0.2663  0.2894  0.0459
  181DOPC   O3222181   0.629   3.218   3.741 -0.0510 -0.0809  0.2018
  181DOPC   C3222182   0.847   3.119   3.792  0.2373  0.7685 -0.5801
  181DOPC   H2X22183   0.911   3.064   3.720 -2.2566 -3.6273  0.2135
  181DOPC   H2Y22184   0.888   3.220   3.814 -0.2491  0.8255  0.0888
  181DOPC   C2322185   0.678   2.485   3.624 -0.3279  0.1169 -0.5549
  181DOPC   H3R22186   0.742   2.450   3.540  2.3936 -0.2752  1.5308
  181DOPC   H3S22187   0.572   2.496   3.596 -1.2659 -2.1646  1.6766
  181DOPC   C2422188   0.680   2.396   3.746 -0.0615 -0.0699  0.4354
  181DOPC   H4R22189   0.602   2.321   3.722 -2.5471  2.3283  0.4630
  181DOPC   H4S22190   0.646   2.459   3.831 -0.0643 -2.2575  2.1171
  181DOPC   C2522191   0.817   2.319   3.755 -0.0058 -0.2484  0.0220
  181DOPC   H5R22192   0.894   2.398   3.770 -2.5007  1.7846  3.4063
  181DOPC   H5S22193   0.840   2.274   3.655 -0.3071 -1.5740  0.5317
  181DOPC   C2622194   0.822   2.212   3.865  0.1950 -0.0845  0.9399
  181DOPC   H6R22195   0.926   2.172   3.864 -1.0609 -3.7604  0.1011
  181DOPC   H6S22196   0.754   2.125   3.849  1.8838 -1.3326  0.1853
  181DOPC   C2722197   0.799   2.253   4.012  0.3398 -0.1425  0.2638
  181DOPC   H7R22198   0.706   2.313   4.017  0.5906  0.2556  0.2227
  181DOPC   H7S22199   0.885   2.319   4.036  2.2500 -2.2724 -0.4018
  181DOPC   C2822200   0.787   2.138   4.115 -0.4875 -0.1857  0.3700
  181DOPC   H8R22201   0.777   2.177   4.219 -0.3593  0.8567  0.0053
  181DOPC   H8S22202   0.885   2.087   4.109 -0.7963 -0.7522  0.0308
  181DOPC   C2922203   0.686   2.029   4.082  0.1343  0.6468 -1.0805
  181DOPC   H9R22204   0.643   2.020   3.982 -0.4077 -0.4939 -0.7541
  181DOPC  C21022205   0.633   1.943   4.172 -0.0853  0.6060  0.0889
  181DOPC  H10R22206   0.574   1.861   4.128  1.1556  0.5044 -1.4522
  181DOPC  C21122207   0.665   1.932   4.319  0.0483 -0.8497 -0.4363
  181DOPC  H11R22208   0.576   1.883   4.363  0.3111 -1.5429 -0.6775
  181DOPC  H11S22209   0.674   2.032   4.366 -1.6123 -0.7637 -0.2433
  181DOPC  C21222210   0.792   1.846   4.344 -0.0654 -0.5259 -0.3158
  181DOPC  H12R22211   0.879   1.903   4.305 -1.7122  1.9591 -0.5122
  181DOPC  H12S22212   0.794   1.753   4.282  1.9186  0.5037 -1.9395
  181DOPC  C21322213   0.816   1.830   4.495 -0.4731  0.1471  0.0014
  181DOPC  H13R22214   0.829   1.934   4.531  3.0370 -0.3512  0.5687
  181DOPC  H13S22215   0.915   1.779   4.498 -0.9434 -1.2893 -3.7410
  181DOPC  C21422216   0.716   1.741   4.565 -0.4344  0.5374 -0.5233
  181DOPC  H14R22217   0.704   1.644   4.514 -0.5470  1.0732 -1.5319
  181DOPC  H14S22218   0.616   1.788   4.558 -0.1010  1.1592 -1.2423
  181DOPC  C21522219   0.745   1.720   4.716  0.0995  0.0794  0.9864
  181DOPC  H15R22220   0.837   1.658   4.725  0.2868 -0.2334 -1.9713
  181DOPC  H15S22221   0.660   1.670   4.768 -1.6542  1.5379 -0.3287
  181DOPC  C21622222   0.752   1.843   4.797  0.1007 -0.2787 -0.1076
  181DOPC  H16R22223   0.838   1.904   4.762  0.1018 -0.0210  0.3286
  181DOPC  H16S22224   0.770   1.803   4.899 -2.6002 -0.6792  0.2811
  181DOPC  C21722225   0.643   1.950   4.794  0.7403  0.3158  0.3632
  181DOPC  H17R22226   0.634   1.975   4.686 -1.2740 -1.7333 -0.0216
  181DOPC  H17S22227   0.667   2.040   4.855 -0.2445 -1.6929  4.0602
  181DOPC  C21822228   0.512   1.902   4.849  0.5527 -0.0924  0.6450
  181DOPC  H18R22229   0.432   1.969   4.812 -0.0748 -1.0925  0.1303
  181DOPC  H18S22230   0.516   1.882   4.959  0.1168  0.1162  0.7052
  181DOPC  H18T22231   0.485   1.799   4.817 -2.0489  0.6502  0.1721
  181DOPC   C3322232   0.848   3.043   3.924 -0.2993 -0.3414  0.0942
  181DOPC   H3X22233   0.958   3.028   3.935 -0.4025 -2.8815 -1.4905
  181DOPC   H3Y22234   0.802   2.942   3.913 -0.1579 -0.7619  2.7819
  181DOPC   C3422235   0.797   3.115   4.048 -0.1982 -0.8777  0.2932
  181DOPC   H4X22236   0.804   3.224   4.027 -0.0166 -0.1142  3.6819
  181DOPC   H4Y22237   0.862   3.081   4.131  0.3797 -0.8094 -0.1304
  181DOPC   C3522238   0.656   3.082   4.099 -0.1718 -0.4503 -0.2502
  181DOPC   H5X22239   0.642   2.972   4.099 -1.1099 -0.3852 -2.6194
  181DOPC   H5Y22240   0.587   3.128   4.026 -0.5041  0.9084  0.8729
  181DOPC   C3622241   0.603   3.143   4.233 -0.6146 -1.0122  0.3470
  181DOPC   H6X22242   0.683   3.109   4.301  0.4923 -3.0043 -1.8348
  181DOPC   H6Y22243   0.613   3.254   4.229  0.9291 -1.1253  0.6488
  181DOPC   C3722244   0.469   3.092   4.286  0.2506 -0.8552 -0.3431
  181DOPC   H7X22245   0.396   3.110   4.204 -0.1780  0.7551  0.3556
  181DOPC   H7Y22246   0.474   2.982   4.295  0.6165 -1.0397 -2.3132
  181DOPC   C3822247   0.420   3.167   4.412  0.0644  0.5000  0.1580
  181DOPC   H8X22248   0.457   3.272   4.402  1.4018  0.0490  0.1872
  181DOPC   H8Y22249   0.474   3.130   4.501 -1.9731 -1.0807  0.8311
  181DOPC   C3922250   0.270   3.153   4.441 -0.3100  0.6373 -0.6312
  181DOPC   H9X22251   0.221   3.067   4.394 -0.2651  0.7323 -0.8514
  181DOPC  C31022252   0.201   3.229   4.519  0.4436  0.9706 -0.0841
  181DOPC  H10X22253   0.095   3.203   4.535  0.4912 -0.9128 -2.3074
  181DOPC  C31122254   0.257   3.347   4.599  0.5638  0.3678 -0.0791
  181DOPC  H11X22255   0.191   3.435   4.587 -0.0811 -0.3461 -2.2896
  181DOPC  H11Y22256   0.358   3.379   4.565  0.0941  0.4406 -1.4338
  181DOPC  C31222257   0.265   3.305   4.753  0.4459  0.3537  0.5190
  181DOPC  H12X22258   0.330   3.381   4.802  0.1418  2.6666 -2.3337
  181DOPC  H12Y22259   0.324   3.212   4.770 -0.9089 -0.2251  2.2386
  181DOPC  C31322260   0.132   3.296   4.829 -0.5711  0.2294 -0.2240
  181DOPC  H13X22261   0.077   3.392   4.818 -1.5585 -0.0797  1.5243
  181DOPC  H13Y22262   0.080   3.221   4.766 -2.8567  0.0928  1.6657
  181DOPC  C31422263   0.142   3.248   4.976 -0.1866 -0.1716 -0.1854
  181DOPC  H14X22264   0.046   3.275   5.025  0.0959 -0.4272  0.5145
  181DOPC  H14Y22265   0.148   3.137   4.982  0.1332 -0.2607 -1.7442
  181DOPC  C31522266   0.260   3.305   5.053 -0.1043  0.0519 -0.0034
  181DOPC  H15X22267   0.262   3.416   5.057 -1.9983  0.1009  1.1055
  181DOPC  H15Y22268   0.356   3.273   5.008 -0.7906  1.1166 -2.3420
  181DOPC  C31622269   0.267   3.255   5.201 -0.6791 -0.5827  0.1653
  181DOPC  H16X22270   0.277   3.146   5.213  2.5328 -0.1602  2.6160
  181DOPC  H16Y22271   0.365   3.292   5.239 -0.3830 -0.0125 -1.1134
  181DOPC  C31722272   0.159   3.308   5.293 -0.0576  0.2146 -0.0170
  181DOPC  H17X22273   0.150   3.419   5.295 -0.4636  0.2308 -1.4653
  181DOPC  H17Y22274   0.058   3.271   5.264  0.3052 -0.0202 -1.0436
  181DOPC  C31822275   0.172   3.275   5.439 -0.3096  0.2727 -0.2793
  181DOPC  H18X22276   0.182   3.165   5.452  0.8378  0.5036  1.0080
  181DOPC  H18Y22277   0.264   3.325   5.477 -0.2771  1.6996 -2.1020
  181DOPC  H18Z22278   0.086   3.318   5.494 -0.2917  0.7073 -0.5844
  182DOPC     N22279   1.353   0.364   2.499 -0.3582 -0.1622 -0.0634
  182DOPC   C1222280   1.376   0.262   2.618  0.3021 -0.0189  0.4259
  182DOPC  H12A22281   1.372   0.164   2.572 -1.0799  1.1145 -2.0942
  182DOPC  H12B22282   1.288   0.263   2.681 -1.1989  1.6331 -1.5785
  182DOPC   C1322283   1.444   0.330   2.388 -0.3275  0.4784 -0.6980
  182DOPC  H13A22284   1.433   0.401   2.307 -1.0460  1.5285  0.2866
  182DOPC  H13B22285   1.547   0.335   2.421 -0.0786 -2.3755 -0.8082
  182DOPC  H13C22286   1.414   0.232   2.356 -0.9397 -0.3037  1.9929
  182DOPC   C1422287   1.373   0.499   2.558  0.2783 -0.2319  0.0136
  182DOPC  H14A22288   1.348   0.578   2.488  1.0431  1.7098  1.8132
  182DOPC  H14B22289   1.308   0.510   2.644 -1.0039  1.2680 -1.0729
  182DOPC  H14C22290   1.476   0.517   2.586  0.9482  0.5864 -2.6696
  182DOPC   C1522291   1.212   0.356   2.440  0.2896  0.3842  0.3130
  182DOPC  H15A22292   1.207   0.273   2.370  1.4454 -0.2847  0.9796
  182DOPC  H15B22293   1.179   0.444   2.387 -3.5561 -1.0936 -0.0462
  182DOPC  H15C22294   1.147   0.338   2.524 -0.5429  2.3908  0.1384
  182DOPC   C1122295   1.506   0.283   2.702  0.3944 -0.0122  0.6483
  182DOPC  H11A22296   1.485   0.377   2.756 -1.5283  0.2146 -0.4075
  182DOPC  H11B22297   1.515   0.197   2.772 -1.2043 -0.2529  0.5909
  182DOPC     P22298   1.739   0.201   2.609  0.1179 -0.3401 -0.0388
  182DOPC   O1322299   1.850   0.267   2.536  0.9197 -0.3651 -0.0185
  182DOPC   O1422300   1.681   0.078   2.556 -0.5950 -0.1459  0.2804
  182DOPC   O1222301   1.621   0.308   2.628 -0.1050 -0.5257  0.1069
  182DOPC   O1122302   1.781   0.176   2.758  0.0667  0.0522  0.1835
  182DOPC    C122303   1.867   0.273   2.824  0.2720 -0.0422  0.5887
  182DOPC    HA22304   1.846   0.381   2.809 -0.8131 -0.0203  1.9808
  182DOPC    HB22305   1.970   0.260   2.786 -0.1926  2.2715 -1.7348
  182DOPC    C222306   1.849   0.252   2.980  0.5192 -0.6840 -0.1572
  182DOPC    HS22307   1.878   0.148   3.006 -1.1394 -1.2724 -0.5573
  182DOPC   O2122308   1.711   0.289   3.013 -0.3243  0.3699 -0.3225
  182DOPC   C2122309   1.646   0.184   3.071 -0.9596  1.0915 -0.1580
  182DOPC   O2222310   1.701   0.088   3.125 -0.6763 -0.4801  0.7659
  182DOPC   C2222311   1.498   0.219   3.084 -0.6154  0.1599  0.2666
  182DOPC   H2R22312   1.452   0.226   2.983 -0.3622  0.6115  0.1802
  182DOPC   H2S22313   1.487   0.318   3.133 -0.1855  0.3202  0.0517
  182DOPC    C322314   1.944   0.346   3.061  0.2291  0.9208 -0.0863
  182DOPC    HX22315   1.912   0.450   3.042 -0.4682  0.8429  0.5856
  182DOPC    HY22316   2.043   0.329   3.013 -0.3729  0.1940 -1.1098
  182DOPC   O3122317   1.938   0.322   3.200  0.3404 -0.0183 -0.7665
  182DOPC   C3122318   2.037   0.256   3.258  0.4373  0.2100  0.2088
  182DOPC   O3222319   2.133   0.211   3.195 -0.6062 -0.5489  0.3008
  182DOPC   C3222320   2.014   0.259   3.411  0.6374  0.6547 -0.3979
  182DOPC   H2X22321   1.973   0.356   3.445  0.3222  0.9439 -1.5728
  182DOPC   H2Y22322   1.940   0.181   3.440  1.4066 -0.1172 -0.4715
  182DOPC   C2322323   1.416   0.120   3.170  0.8821  0.1806  0.4107
  182DOPC   H3R22324   1.309   0.146   3.191  0.5760  0.5204 -1.4032
  182DOPC   H3S22325   1.465   0.094   3.266  0.0685  0.2426  0.8559
  182DOPC   C2422326   1.412  -0.023   3.103 -0.1767 -0.5500 -0.2356
  182DOPC   H4R22327   1.513  -0.060   3.077 -0.1697 -0.0929 -0.8769
  182DOPC   H4S22328   1.360  -0.026   3.005  0.2415 -1.4235 -0.4366
  182DOPC   C2522329   1.337  -0.131   3.189  0.7419 -0.5997 -0.4804
  182DOPC   H5R22330   1.231  -0.105   3.211  1.0413 -2.1301  3.5383
  182DOPC   H5S22331   1.390  -0.113   3.285  2.4208  1.3666 -1.7036
  182DOPC   C2622332   1.355  -0.272   3.142 -0.4484 -0.1531  0.1070
  182DOPC   H6R22333   1.460  -0.304   3.154 -1.2122 -2.2431  1.8491
  182DOPC   H6S22334   1.319  -0.282   3.037  1.4770 -0.5072 -0.5563
  182DOPC   C2722335   1.267  -0.369   3.223  0.2733  0.5589  0.1777
  182DOPC   H7R22336   1.164  -0.332   3.203 -0.5566 -1.5198  0.3091
  182DOPC   H7S22337   1.275  -0.357   3.333  1.6668 -1.6695  0.3841
  182DOPC   C2822338   1.289  -0.514   3.175 -0.0180  0.6998  0.1834
  182DOPC   H8R22339   1.293  -0.505   3.065 -2.6173 -0.2450 -0.0544
  182DOPC   H8S22340   1.198  -0.572   3.201 -0.3258  0.6849 -0.9097
  182DOPC   C2922341   1.414  -0.562   3.246 -0.5587 -0.1715  0.2620
  182DOPC   H9R22342   1.500  -0.587   3.181  0.9106  1.2434  1.5833
  182DOPC  C21022343   1.425  -0.599   3.375 -0.0841  0.1972  0.6464
  182DOPC  H10R22344   1.525  -0.610   3.419 -0.6357  0.1096  1.9370
  182DOPC  C21122345   1.319  -0.583   3.480 -0.3230  0.2287  0.3727
  182DOPC  H11R22346   1.283  -0.686   3.500 -0.0092 -0.1887 -1.0963
  182DOPC  H11S22347   1.230  -0.524   3.449 -0.2982  0.4614  0.7348
  182DOPC  C21222348   1.373  -0.514   3.604 -0.6114 -0.1328  0.3456
  182DOPC  H12R22349   1.407  -0.410   3.589 -0.2572 -0.3653 -0.4995
  182DOPC  H12S22350   1.459  -0.573   3.642  0.0583  1.0751  0.7343
  182DOPC  C21322351   1.268  -0.511   3.719 -0.3949 -0.0156 -0.0925
  182DOPC  H13R22352   1.221  -0.611   3.729 -1.7414  0.6930  0.9685
  182DOPC  H13S22353   1.181  -0.451   3.687 -0.2890  1.1440  1.6140
  182DOPC  C21422354   1.321  -0.463   3.856 -0.1718  0.4321 -0.3256
  182DOPC  H14R22355   1.332  -0.353   3.865 -0.4414  0.6084 -1.7914
  182DOPC  H14S22356   1.413  -0.523   3.873 -1.0248 -3.1485 -5.8460
  182DOPC  C21522357   1.217  -0.516   3.961  0.4328  0.3002  0.0524
  182DOPC  H15R22358   1.238  -0.625   3.957  0.4827  0.3200 -0.2017
  182DOPC  H15S22359   1.111  -0.491   3.938  0.1138 -0.9234  0.1185
  182DOPC  C21622360   1.245  -0.480   4.111 -0.0275 -0.5586  0.8262
  182DOPC  H16R22361   1.217  -0.374   4.129  2.0536 -0.2111  2.3495
  182DOPC  H16S22362   1.356  -0.482   4.118  0.1685 -2.5029 -1.4956
  182DOPC  C21722363   1.181  -0.568   4.218 -0.0550  0.4352 -0.0323
  182DOPC  H17R22364   1.241  -0.561   4.311  0.9359  0.3301 -0.6427
  182DOPC  H17S22365   1.198  -0.674   4.190  2.3375  0.0618  2.3863
  182DOPC  C21822366   1.030  -0.543   4.236 -0.6626  0.3247 -0.4562
  182DOPC  H18R22367   0.971  -0.589   4.154 -0.6448  2.0530 -1.5016
  182DOPC  H18S22368   1.016  -0.433   4.220 -0.0245  0.5920  0.7213
  182DOPC  H18T22369   0.994  -0.572   4.336 -1.4689  3.0646  0.1438
  182DOPC   C3322370   2.140   0.225   3.486 -0.4051 -0.9129 -0.7616
  182DOPC   H3X22371   2.216   0.299   3.453 -0.4168  0.0197  1.1576
  182DOPC   H3Y22372   2.176   0.122   3.465  1.2540 -0.9429  1.8087
  182DOPC   C3422373   2.121   0.224   3.643  0.2378  0.5636  0.7808
  182DOPC   H4X22374   2.054   0.306   3.678 -2.1901 -1.1437  0.3561
  182DOPC   H4Y22375   2.221   0.250   3.682  1.0677 -0.8395 -0.3397
  182DOPC   C3522376   2.073   0.089   3.706  0.1713  0.0594  1.0492
  182DOPC   H5X22377   2.140   0.009   3.667 -1.8055 -0.8617 -0.6463
  182DOPC   H5Y22378   1.969   0.078   3.668  0.4948  1.8815 -0.5410
  182DOPC   C3622379   2.076   0.077   3.856  0.1150  0.3999 -0.2980
  182DOPC   H6X22380   2.182   0.105   3.877  1.1473 -3.0242 -0.2350
  182DOPC   H6Y22381   1.999   0.143   3.900  1.4844  0.8346  1.5484
  182DOPC   C3722382   2.045  -0.066   3.913  0.1625  0.7620  0.4156
  182DOPC   H7X22383   1.950  -0.090   3.861  0.0729 -0.8710  1.2583
  182DOPC   H7Y22384   2.125  -0.136   3.879 -1.4278 -1.6088  1.3061
  182DOPC   C3822385   2.031  -0.088   4.061  0.2889  0.4836 -0.6911
  182DOPC   H8X22386   2.007  -0.195   4.078 -0.9753  0.7866 -0.4555
  182DOPC   H8Y22387   1.938  -0.033   4.088 -0.1540  0.6065 -2.3423
  182DOPC   C3922388   2.143  -0.045   4.140 -0.1465  0.7642 -0.6128
  182DOPC   H9X22389   2.174   0.060   4.132  1.6211  0.2364 -1.2018
  182DOPC  C31022390   2.200  -0.115   4.242 -0.1855  0.0799  0.1674
  182DOPC  H10X22391   2.275  -0.064   4.305 -3.1202  1.5628  2.7401
  182DOPC  C31122392   2.173  -0.252   4.291 -0.8872  0.4063 -0.1861
  182DOPC  H11X22393   2.257  -0.325   4.293 -2.3940 -1.4491 -1.2631
  182DOPC  H11Y22394   2.106  -0.308   4.223 -2.0216  2.6441 -1.0278
  182DOPC  C31222395   2.102  -0.246   4.429 -0.4385  0.3589 -0.0336
  182DOPC  H12X22396   2.018  -0.174   4.426  1.3597  2.5197 -1.3767
  182DOPC  H12Y22397   2.170  -0.201   4.504 -0.2709 -0.3548  0.2498
  182DOPC  C31322398   2.051  -0.383   4.471 -0.0240 -0.1983 -0.0163
  182DOPC  H13X22399   1.954  -0.411   4.424  0.0786  0.7190 -0.8198
  182DOPC  H13Y22400   2.122  -0.463   4.438 -0.4599 -0.7310  0.3319
  182DOPC  C31422401   2.021  -0.395   4.622 -0.4217 -0.5679  0.6286
  182DOPC  H14X22402   1.985  -0.301   4.668 -0.7502 -0.2835 -0.1878
  182DOPC  H14Y22403   1.935  -0.463   4.641 -0.2716 -0.4460  1.8334
  182DOPC  C31522404   2.141  -0.441   4.702  0.8790 -0.1319 -0.5701
  182DOPC  H15X22405   2.232  -0.379   4.686  1.1353 -0.0345  1.0681
  182DOPC  H15Y22406   2.148  -0.546   4.665 -1.3487 -0.4073 -0.3396
  182DOPC  C31622407   2.112  -0.440   4.855  0.6101 -0.1938  0.2555
  182DOPC  H16X22408   2.105  -0.341   4.904  2.6085  0.8677 -1.4437
  182DOPC  H16Y22409   2.021  -0.500   4.875  0.9295 -0.7168  0.1768
  182DOPC  C31722410   2.222  -0.524   4.932 -0.4647  0.3442 -0.6264
  182DOPC  H17X22411   2.221  -0.623   4.882  1.9466  0.8871 -1.8876
  182DOPC  H17Y22412   2.319  -0.480   4.901 -0.0461 -1.1357 -1.5253
  182DOPC  C31822413   2.200  -0.533   5.081 -0.2254  0.1354  0.5609
  182DOPC  H18X22414   2.189  -0.437   5.135 -0.5060  0.5039 -0.1302
  182DOPC  H18Y22415   2.109  -0.593   5.101 -0.7182  1.7616  3.8603
  182DOPC  H18Z22416   2.279  -0.595   5.128 -0.1462 -0.4036 -0.2764
  183DOPC     N22417   6.661   5.773   3.107  0.1944  0.5469  0.1637
  183DOPC   C1222418   6.594   5.634   3.098 -0.8592 -0.1270 -0.0186
  183DOPC  H12A22419   6.520   5.636   3.177  0.8354  2.0502  1.6361
  183DOPC  H12B22420   6.669   5.558   3.117 -0.0473  0.5458 -0.4381
  183DOPC   C1322421   6.772   5.772   3.004  0.0932 -0.2859  0.2665
  183DOPC  H13A22422   6.848   5.698   3.028 -1.5460 -2.6249 -1.3659
  183DOPC  H13B22423   6.736   5.750   2.905  0.7821  1.8311 -0.4937
  183DOPC  H13C22424   6.824   5.866   3.001  0.3289 -0.4395 -0.8844
  183DOPC   C1422425   6.724   5.798   3.242  0.1068  0.1542 -0.8968
  183DOPC  H14A22426   6.810   5.734   3.258 -0.2437 -0.0547  0.2334
  183DOPC  H14B22427   6.767   5.896   3.227 -0.5176  0.3711 -1.2846
  183DOPC  H14C22428   6.658   5.798   3.328  2.6587  2.4829  1.2484
  183DOPC   C1522429   6.566   5.885   3.085  0.7002 -0.0523  0.0716
  183DOPC  H15A22430   6.485   5.891   3.156  0.9974 -1.0555  0.5140
  183DOPC  H15B22431   6.536   5.891   2.981 -0.0402 -0.6585  0.2459
  183DOPC  H15C22432   6.617   5.980   3.085  0.9257 -0.1058 -2.5922
  183DOPC   C1122433   6.518   5.596   2.968  0.2360  0.4065 -0.2912
  183DOPC  H11A22434   6.581   5.613   2.878  1.1906  0.3997  0.3533
  183DOPC  H11B22435   6.495   5.488   2.972 -1.2754  0.7311  0.7556
  183DOPC     P22436   6.268   5.618   3.057 -0.3702 -0.2480  0.0300
  183DOPC   O1322437   6.180   5.520   2.980 -0.4240  0.2264  0.1012
  183DOPC   O1422438   6.210   5.739   3.123 -0.3088  0.9015  0.6838
  183DOPC   O1222439   6.388   5.665   2.957 -0.5129  0.1646  0.1176
  183DOPC   O1122440   6.346   5.557   3.174  0.3125  0.0801 -0.7677
  183DOPC    C122441   6.346   5.431   3.239 -0.0267 -0.2525 -0.5187
  183DOPC    HA22442   6.445   5.418   3.288  0.5700 -0.2194 -1.6924
  183DOPC    HB22443   6.347   5.347   3.167  0.6180 -1.7412  1.1331
  183DOPC    C222444   6.239   5.417   3.348 -0.3477  0.6871  0.3371
  183DOPC    HS22445   6.147   5.419   3.287  1.3871 -0.8626 -2.5480
  183DOPC   O2122446   6.252   5.526   3.445 -0.3177 -0.7044  0.0038
  183DOPC   C2122447   6.143   5.540   3.520  0.3113  1.0945 -0.4542
  183DOPC   O2222448   6.049   5.470   3.517  0.2062  0.5680 -0.1460
  183DOPC   C2222449   6.158   5.662   3.618 -0.1234  0.9322  0.1336
  183DOPC   H2R22450   6.051   5.668   3.649 -0.5420  2.0796 -1.4107
  183DOPC   H2S22451   6.199   5.748   3.561 -0.3339  0.7357 -0.3271
  183DOPC    C322452   6.246   5.274   3.415 -0.9259 -0.4427 -0.2790
  183DOPC    HX22453   6.212   5.209   3.332 -0.8509 -0.3806 -0.3586
  183DOPC    HY22454   6.166   5.272   3.492 -0.4240  2.7196  0.4865
  183DOPC   O3122455   6.378   5.234   3.458  0.2720 -0.6630 -0.2254
  183DOPC   C3122456   6.404   5.246   3.591  0.3751  0.4903 -0.0119
  183DOPC   O3222457   6.324   5.281   3.674 -0.1470 -0.1555  0.0565
  183DOPC   C3222458   6.536   5.184   3.614  0.0135 -0.4448 -0.4542
  183DOPC   H2X22459   6.551   5.170   3.723 -2.1356  0.8195  0.0732
  183DOPC   H2Y22460   6.549   5.092   3.553  3.2149 -0.2595 -0.2153
  183DOPC   C2322461   6.247   5.619   3.739 -0.0049  0.1084  0.5994
  183DOPC   H3R22462   6.353   5.625   3.706 -0.5100 -0.1101 -1.1728
  183DOPC   H3S22463   6.221   5.516   3.771  2.5698 -0.6335  0.5014
  183DOPC   C2422464   6.238   5.724   3.844 -0.0403 -0.8132 -0.6644
  183DOPC   H4R22465   6.138   5.723   3.892 -1.0536  2.2296 -2.4237
  183DOPC   H4S22466   6.255   5.820   3.791  1.6346 -1.3882 -1.2276
  183DOPC   C2522467   6.342   5.726   3.960 -0.2944 -0.2379 -0.4081
  183DOPC   H5R22468   6.443   5.754   3.923  1.0845 -1.1519  2.3614
  183DOPC   H5S22469   6.358   5.622   3.995  0.4393 -0.4478 -1.3097
  183DOPC   C2622470   6.296   5.813   4.070  0.8893  0.2791  0.0508
  183DOPC   H6R22471   6.191   5.795   4.100  0.3526 -0.1037 -1.8963
  183DOPC   H6S22472   6.292   5.920   4.040  1.2480  0.8546  1.9004
  183DOPC   C2722473   6.373   5.801   4.195 -0.0137 -0.3088  0.2284
  183DOPC   H7R22474   6.473   5.848   4.204  0.3339 -0.7802 -0.9955
  183DOPC   H7S22475   6.403   5.696   4.213 -2.2940 -0.6408  2.8352
  183DOPC   C2822476   6.293   5.860   4.321 -0.1018  0.8318 -0.0361
  183DOPC   H8R22477   6.268   5.967   4.301 -1.1596  0.5843 -0.1222
  183DOPC   H8S22478   6.352   5.865   4.415 -2.6264  4.0201  1.6086
  183DOPC   C2922479   6.173   5.774   4.347  0.6559 -0.1403 -0.0123
  183DOPC   H9R22480   6.111   5.739   4.263  0.1848 -0.8315  0.6104
  183DOPC  C21022481   6.134   5.713   4.466 -0.3254 -0.4135 -0.7643
  183DOPC  H10R22482   6.043   5.651   4.468 -0.9919  0.5666  0.2932
  183DOPC  C21122483   6.195   5.734   4.603  0.5810 -0.8742  0.6868
  183DOPC  H11R22484   6.305   5.753   4.608  0.5054  0.3104 -1.2431
  183DOPC  H11S22485   6.198   5.633   4.649 -1.3290 -0.3295  2.1112
  183DOPC  C21222486   6.104   5.835   4.686 -0.3873  0.4109  0.8082
  183DOPC  H12R22487   6.140   5.820   4.790  1.7478  0.7877  0.1911
  183DOPC  H12S22488   6.000   5.801   4.672 -0.3549  0.4442  0.4806
  183DOPC  C21322489   6.126   5.988   4.654 -0.6406 -0.5467  0.8668
  183DOPC  H13R22490   6.094   5.995   4.548 -2.4347 -1.8627  1.2899
  183DOPC  H13S22491   6.235   6.005   4.669 -0.2175 -1.3094 -1.1209
  183DOPC  C21422492   6.056   6.080   4.748  0.2818 -0.5535 -0.2049
  183DOPC  H14R22493   6.102   6.179   4.726 -0.3220  0.7455  3.5350
  183DOPC  H14S22494   6.100   6.050   4.846  1.1974 -1.9002 -1.0061
  183DOPC  C21522495   5.906   6.102   4.722  0.2457 -0.1985  0.2765
  183DOPC  H15R22496   5.850   6.007   4.741 -1.5651  1.2768  2.9659
  183DOPC  H15S22497   5.898   6.124   4.614 -2.8085 -1.9338  0.0288
  183DOPC  C21622498   5.846   6.218   4.806 -0.2371 -0.1758  0.4994
  183DOPC  H16R22499   5.745   6.250   4.773  0.8185  1.7510 -1.0533
  183DOPC  H16S22500   5.903   6.311   4.786 -1.2299  0.1457 -0.9919
  183DOPC  C21722501   5.857   6.188   4.958 -0.0356 -0.3091  0.7383
  183DOPC  H17R22502   5.965   6.174   4.981 -0.2853  0.9560  3.0310
  183DOPC  H17S22503   5.799   6.096   4.980 -1.1814  0.5830  1.6451
  183DOPC  C21822504   5.798   6.309   5.023 -0.4237 -0.5950  0.8897
  183DOPC  H18R22505   5.696   6.330   4.985 -0.3538 -2.5420 -0.4837
  183DOPC  H18S22506   5.848   6.403   4.993 -1.2462  0.0601  1.4945
  183DOPC  H18T22507   5.784   6.319   5.133  0.4767  1.1034  0.8838
  183DOPC   C3322508   6.645   5.275   3.553  0.4046  0.4187 -0.4277
  183DOPC   H3X22509   6.614   5.287   3.447 -0.3095  3.9592  0.0594
  183DOPC   H3Y22510   6.742   5.219   3.549  0.3489  0.2545  0.4289
  183DOPC   C3422511   6.681   5.408   3.613  0.3455  0.0600 -0.3687
  183DOPC   H4X22512   6.597   5.481   3.605  0.7205  0.4856 -0.4632
  183DOPC   H4Y22513   6.766   5.463   3.567  0.1829  1.5794  1.0316
  183DOPC   C3522514   6.713   5.403   3.761  0.2144  0.5352  0.4427
  183DOPC   H5X22515   6.792   5.326   3.772 -0.0425 -0.0047 -1.2029
  183DOPC   H5Y22516   6.625   5.361   3.814 -0.6493  0.2667 -1.1322
  183DOPC   C3622517   6.747   5.542   3.818 -0.3446 -0.6184 -0.5510
  183DOPC   H6X22518   6.818   5.591   3.747  0.6325 -0.7983  0.2829
  183DOPC   H6Y22519   6.653   5.602   3.821  0.5314  0.7853 -0.0582
  183DOPC   C3722520   6.807   5.550   3.963  1.0090  0.1755 -0.6572
  183DOPC   H7X22521   6.872   5.468   4.000  1.6719  0.4041 -1.2863
  183DOPC   H7Y22522   6.874   5.638   3.967 -0.1532  1.0337  0.5701
  183DOPC   C3822523   6.706   5.573   4.068  0.6564 -0.1561  0.2947
  183DOPC   H8X22524   6.625   5.639   4.029  0.1718 -1.4799 -1.0141
  183DOPC   H8Y22525   6.752   5.623   4.157 -0.3756  0.3695  0.5559
  183DOPC   C3922526   6.640   5.450   4.118  0.7420 -0.4944 -0.0343
  183DOPC   H9X22527   6.566   5.404   4.050  0.7603 -0.6767  0.0692
  183DOPC  C31022528   6.641   5.403   4.238  0.7033  0.0706  0.1152
  183DOPC  H10X22529   6.593   5.306   4.257  1.5556 -0.6628 -1.2805
  183DOPC  C31122530   6.722   5.458   4.350 -0.0011  0.3205 -0.5352
  183DOPC  H11X22531   6.803   5.528   4.322 -0.9267  1.8257  0.4071
  183DOPC  H11Y22532   6.770   5.378   4.411  0.3103  1.5405  0.8600
  183DOPC  C31222533   6.637   5.542   4.441 -0.0852 -0.5211 -0.4485
  183DOPC  H12X22534   6.611   5.636   4.389 -0.3438  0.9450  2.1647
  183DOPC  H12Y22535   6.700   5.567   4.529  1.5173 -0.5076 -1.5483
  183DOPC  C31322536   6.514   5.461   4.498 -0.8956 -0.8308  0.3532
  183DOPC  H13X22537   6.471   5.534   4.570  2.5867  1.7470  0.0940
  183DOPC  H13Y22538   6.436   5.432   4.424 -2.4718 -0.2900  1.7562
  183DOPC  C31422539   6.557   5.341   4.572  0.1167  0.0048 -0.0637
  183DOPC  H14X22540   6.580   5.268   4.491  3.2489 -0.1124  0.8139
  183DOPC  H14Y22541   6.654   5.353   4.625 -1.1758 -0.9741  2.7168
  183DOPC  C31522542   6.457   5.282   4.674 -1.0078  0.1223  0.4447
  183DOPC  H15X22543   6.431   5.356   4.753 -1.4074  2.4941 -1.7690
  183DOPC  H15Y22544   6.501   5.193   4.725 -0.3471 -0.4359 -1.0385
  183DOPC  C31622545   6.327   5.233   4.612  0.0323 -0.3046  0.0609
  183DOPC  H16X22546   6.344   5.170   4.522  2.2941  0.8935 -0.4263
  183DOPC  H16Y22547   6.285   5.162   4.687 -1.4641 -1.7943 -2.0512
  183DOPC  C31722548   6.216   5.334   4.590  0.4353  0.3478  0.1608
  183DOPC  H17X22549   6.174   5.369   4.687  0.0248  1.4090 -0.3953
  183DOPC  H17Y22550   6.252   5.425   4.538  0.3144 -0.0855 -0.6958
  183DOPC  C31822551   6.085   5.270   4.517  0.2132 -0.1890  0.7745
  183DOPC  H18X22552   6.006   5.343   4.492  0.3337 -0.3545 -0.0989
  183DOPC  H18Y22553   6.124   5.221   4.425  0.7671 -0.4922  1.1599
  183DOPC  H18Z22554   6.030   5.196   4.580 -1.1571 -0.7778 -1.0538
  184DOPC     N22555   5.220   1.931   2.925 -0.5481 -0.1472  0.0344
  184DOPC   C1222556   5.356   1.920   2.997  0.3247  0.3688  0.0300
  184DOPC  H12A22557   5.342   1.930   3.104 -0.6920 -1.7335  0.1249
  184DOPC  H12B22558   5.420   2.002   2.966 -0.3096  0.6679 -0.5427
  184DOPC   C1322559   5.138   1.812   2.946  0.1820  0.4734 -0.3672
  184DOPC  H13A22560   5.187   1.717   2.934 -3.0989 -1.2046 -1.8525
  184DOPC  H13B22561   5.104   1.809   3.049  0.5646  0.4941 -0.2370
  184DOPC  H13C22562   5.048   1.809   2.886  0.0831  2.5276 -0.3880
  184DOPC   C1422563   5.244   1.945   2.775  0.0619  0.2966 -0.5980
  184DOPC  H14A22564   5.145   1.939   2.732 -0.8375  0.4390  1.3513
  184DOPC  H14B22565   5.294   2.039   2.757  0.8178  0.6657  2.8491
  184DOPC  H14C22566   5.307   1.863   2.745 -0.8560 -0.2354 -1.1335
  184DOPC   C1522567   5.143   2.048   2.973 -0.2939 -0.7695  0.0691
  184DOPC  H15A22568   5.135   2.056   3.081  2.5151  3.1930  0.1893
  184DOPC  H15B22569   5.051   2.063   2.919  0.7282  1.6575 -1.1353
  184DOPC  H15C22570   5.199   2.133   2.938  0.1510 -0.9888  0.2327
  184DOPC   C1122571   5.429   1.790   2.968  0.6236  0.5686 -0.3426
  184DOPC  H11A22572   5.432   1.775   2.858 -0.4066 -1.8807 -0.0950
  184DOPC  H11B22573   5.534   1.807   3.001 -0.0443  0.7674  1.8424
  184DOPC     P22574   5.437   1.618   3.172  0.1265  0.3797  0.0874
  184DOPC   O1322575   5.573   1.579   3.150 -0.1495 -0.9099  0.4092
  184DOPC   O1422576   5.348   1.509   3.211  0.4659 -0.0118  0.7513
  184DOPC   O1222577   5.377   1.671   3.032 -0.4025  0.0649  0.3657
  184DOPC   O1122578   5.422   1.744   3.267 -0.2014  0.8506  0.0679
  184DOPC    C122579   5.298   1.782   3.324 -0.3478  0.4702  0.2831
  184DOPC    HA22580   5.259   1.709   3.398  1.5647  0.7463  1.6335
  184DOPC    HB22581   5.214   1.788   3.252 -0.5450  1.8520  0.5855
  184DOPC    C222582   5.308   1.923   3.400 -0.3714 -0.1178  0.4040
  184DOPC    HS22583   5.262   1.992   3.325 -0.0290  0.0541  0.3503
  184DOPC   O2122584   5.445   1.953   3.431 -0.0117  0.2009  0.2117
  184DOPC   C2122585   5.508   2.022   3.337  0.0352 -0.2778 -0.2648
  184DOPC   O2222586   5.461   2.063   3.232 -0.0690 -0.2797 -0.0389
  184DOPC   C2222587   5.650   2.044   3.389  0.3631 -0.8529  0.0609
  184DOPC   H2R22588   5.697   1.958   3.337  0.9088 -2.1171  2.4822
  184DOPC   H2S22589   5.660   2.028   3.498  0.9769 -1.4435 -0.0785
  184DOPC    C322590   5.229   1.924   3.526  0.3155  0.7977  0.2654
  184DOPC    HX22591   5.246   1.832   3.585 -1.8344  0.3730  0.2691
  184DOPC    HY22592   5.122   1.913   3.500  0.7771 -3.8248 -0.5324
  184DOPC   O3122593   5.262   2.036   3.606 -0.2781  0.1418  0.0878
  184DOPC   C3122594   5.160   2.096   3.659 -0.4290 -0.6112  0.3186
  184DOPC   O3222595   5.041   2.077   3.638 -0.5622  0.0746  0.2158
  184DOPC   C3222596   5.204   2.209   3.740 -0.3902  0.0137 -0.3267
  184DOPC   H2X22597   5.162   2.193   3.842 -1.0730  0.0798 -0.5878
  184DOPC   H2Y22598   5.315   2.213   3.743 -0.3077 -1.6020  2.1461
  184DOPC   C2322599   5.712   2.180   3.341 -0.1214  0.4223  0.0968
  184DOPC   H3R22600   5.695   2.185   3.232  0.3869 -0.0334 -0.0079
  184DOPC   H3S22601   5.822   2.168   3.358 -0.0761  0.6758 -0.0255
  184DOPC   C2422602   5.657   2.310   3.405  0.7298 -0.7525  1.1441
  184DOPC   H4R22603   5.557   2.331   3.361  1.2011  0.6116  0.6606
  184DOPC   H4S22604   5.722   2.389   3.361 -0.6752 -1.1706 -1.9580
  184DOPC   C2522605   5.651   2.308   3.556  0.4737 -0.5802 -0.1763
  184DOPC   H5R22606   5.754   2.289   3.591  0.4964 -1.1903 -0.5678
  184DOPC   H5S22607   5.589   2.219   3.580  0.7026 -0.8058 -0.4208
  184DOPC   C2622608   5.588   2.441   3.617  0.2912  0.4160 -0.1144
  184DOPC   H6R22609   5.542   2.414   3.715  0.0168 -0.5543 -0.4942
  184DOPC   H6S22610   5.514   2.479   3.545 -0.3435 -2.3489 -1.0617
  184DOPC   C2722611   5.696   2.540   3.662 -0.7158  0.1520 -0.0222
  184DOPC   H7R22612   5.789   2.486   3.688 -0.2507 -0.0378 -1.9148
  184DOPC   H7S22613   5.667   2.577   3.762 -0.1332 -2.4579  1.2102
  184DOPC   C2822614   5.715   2.654   3.557  0.0728  0.5009  0.0468
  184DOPC   H8R22615   5.748   2.600   3.466 -1.3961 -2.9354  1.3843
  184DOPC   H8S22616   5.798   2.717   3.596  1.5980 -0.4647 -1.4844
  184DOPC   C2922617   5.591   2.731   3.534  0.3047 -0.3972 -0.1038
  184DOPC   H9R22618   5.523   2.688   3.459 -1.7892  0.3795  1.2843
  184DOPC  C21022619   5.577   2.865   3.563  0.1757 -0.2292  0.9325
  184DOPC  H10R22620   5.482   2.918   3.550  0.1393 -0.3871  0.5454
  184DOPC  C21122621   5.672   2.939   3.651  0.0526  1.2811 -0.2251
  184DOPC  H11R22622   5.643   3.046   3.638 -0.7773  1.2234  1.0024
  184DOPC  H11S22623   5.774   2.925   3.611 -0.7366  0.3814 -2.0720
  184DOPC  C21222624   5.659   2.913   3.802 -0.0407  0.4602  0.4020
  184DOPC  H12R22625   5.726   2.987   3.850  1.4364 -1.7544  1.9407
  184DOPC  H12S22626   5.689   2.810   3.831  0.2288  0.4144 -0.0327
  184DOPC  C21322627   5.513   2.945   3.857  0.1321 -0.2271 -0.0286
  184DOPC  H13R22628   5.438   2.882   3.804  1.3002 -0.5737 -1.3105
  184DOPC  H13S22629   5.506   3.052   3.828 -0.3496  0.1954  1.5463
  184DOPC  C21422630   5.497   2.932   4.004  0.1805  0.6123 -0.1644
  184DOPC  H14R22631   5.393   2.971   4.019  0.2589  1.0540 -0.7275
  184DOPC  H14S22632   5.563   3.004   4.057  0.0674  0.9746 -0.5085
  184DOPC  C21522633   5.502   2.786   4.063  0.0253  0.8432  0.1434
  184DOPC  H15R22634   5.600   2.741   4.035 -0.9035 -0.8363 -0.5766
  184DOPC  H15S22635   5.416   2.731   4.019 -0.0312  0.2634  0.9607
  184DOPC  C21622636   5.497   2.792   4.216  0.7107 -0.1469 -0.0670
  184DOPC  H16R22637   5.406   2.853   4.239  0.0859 -1.7868  2.1716
  184DOPC  H16S22638   5.592   2.840   4.246  1.7252 -1.1511 -1.5445
  184DOPC  C21722639   5.470   2.668   4.291 -0.0858  0.6922 -0.3939
  184DOPC  H17R22640   5.549   2.593   4.268 -0.0180  0.8983 -0.8307
  184DOPC  H17S22641   5.372   2.621   4.268 -1.5046  2.4500  1.6783
  184DOPC  C21822642   5.485   2.682   4.446 -0.1793  0.3725 -0.9998
  184DOPC  H18R22643   5.550   2.768   4.475 -0.8134 -0.0422  2.0671
  184DOPC  H18S22644   5.524   2.585   4.482 -0.7273  1.4588  3.0618
  184DOPC  H18T22645   5.385   2.703   4.490 -0.8367 -2.2199 -1.1318
  184DOPC   C3322646   5.154   2.350   3.693 -1.1569  0.1090 -0.2871
  184DOPC   H3X22647   5.067   2.343   3.624 -0.1574  0.0719 -1.5916
  184DOPC   H3Y22648   5.237   2.391   3.631  0.7687 -1.9234  0.8104
  184DOPC   C3422649   5.126   2.437   3.815 -0.2036  0.0941  0.3665
  184DOPC   H4X22650   5.192   2.431   3.903 -2.3359 -0.4446  2.0062
  184DOPC   H4Y22651   5.023   2.412   3.849 -0.1278  0.2929  0.7380
  184DOPC   C3522652   5.129   2.587   3.774  0.4590 -0.5478 -0.5075
  184DOPC   H5X22653   5.060   2.615   3.691  1.9202  2.3295 -0.8597
  184DOPC   H5Y22654   5.237   2.597   3.748  0.7234 -3.4055 -0.8256
  184DOPC   C3622655   5.105   2.679   3.893  0.7827  1.2259 -0.2193
  184DOPC   H6X22656   5.001   2.667   3.930  0.5717 -0.7940 -1.3244
  184DOPC   H6Y22657   5.172   2.641   3.972 -0.3063 -0.9682 -0.2774
  184DOPC   C3722658   5.120   2.825   3.863 -0.4312 -0.6161  0.3781
  184DOPC   H7X22659   5.225   2.839   3.828 -0.6671  0.8323  0.1727
  184DOPC   H7Y22660   5.056   2.876   3.788 -2.2732 -1.8171  1.0598
  184DOPC   C3822661   5.126   2.908   3.996 -0.3317 -0.5101  0.3294
  184DOPC   H8X22662   5.189   2.997   3.972 -0.0707 -0.8177 -0.1339
  184DOPC   H8Y22663   5.190   2.852   4.067 -0.3125 -0.1955  0.5647
  184DOPC   C3922664   4.991   2.947   4.055  0.3709 -0.3166  0.1602
  184DOPC   H9X22665   4.939   3.016   3.987  2.4576  0.2046 -1.0140
  184DOPC  C31022666   4.948   2.918   4.183 -0.0862  0.0228  1.0328
  184DOPC  H10X22667   4.851   2.953   4.221 -0.0708  1.2659 -0.0010
  184DOPC  C31122668   5.022   2.830   4.279 -0.3310 -0.2670  0.1728
  184DOPC  H11X22669   5.126   2.804   4.250 -0.7287 -1.3055 -0.3568
  184DOPC  H11Y22670   4.969   2.736   4.305 -1.2126  0.0672 -0.3482
  184DOPC  C31222671   5.026   2.901   4.419 -0.1472  0.8086 -0.2307
  184DOPC  H12X22672   5.048   3.006   4.388 -0.0023  0.6294 -0.7395
  184DOPC  H12Y22673   5.111   2.874   4.485  1.9811  2.5260 -2.0820
  184DOPC  C31322674   4.899   2.894   4.496 -0.5250  0.1922 -0.3664
  184DOPC  H13X22675   4.837   2.979   4.461 -0.0894  1.3898  1.5848
  184DOPC  H13Y22676   4.849   2.796   4.485  1.1416 -0.7580  0.2216
  184DOPC  C31422677   4.904   2.916   4.654 -0.5486  0.4026 -0.2583
  184DOPC  H14X22678   4.803   2.894   4.695 -0.2506  0.2458  0.4069
  184DOPC  H14Y22679   4.977   2.844   4.696 -0.4848 -0.9490 -2.5474
  184DOPC  C31522680   4.949   3.058   4.708  0.7950  0.3206  0.6175
  184DOPC  H15X22681   4.860   3.124   4.695  0.6938 -0.0353 -0.6390
  184DOPC  H15Y22682   5.025   3.092   4.634 -0.1481 -1.3550 -1.2131
  184DOPC  C31622683   4.991   3.079   4.860 -0.2770  0.0712 -0.3480
  184DOPC  H16X22684   4.914   3.017   4.911 -0.0895  0.9021  1.0086
  184DOPC  H16Y22685   5.088   3.032   4.886 -0.4654 -0.3442 -0.3838
  184DOPC  C31722686   4.995   3.224   4.898 -0.4962  0.4653  0.0369
  184DOPC  H17X22687   5.072   3.278   4.840 -0.7280  1.0279  0.2455
  184DOPC  H17Y22688   4.897   3.271   4.874 -0.5356  0.8142  0.8619
  184DOPC  C31822689   5.031   3.253   5.042  0.1008 -0.3718  0.3400
  184DOPC  H18X22690   5.120   3.194   5.073 -1.4825 -2.4002  1.3029
  184DOPC  H18Y22691   5.053   3.361   5.057 -0.7939 -0.3354  1.5963
  184DOPC  H18Z22692   4.945   3.235   5.110  0.6651  0.7198  1.3955
  185DOPC     N22693   4.937   7.312   2.844 -0.1407 -0.1693 -0.5007
  185DOPC   C1222694   4.944   7.212   2.965  0.0394  0.2621  0.1619
  185DOPC  H12A22695   5.020   7.137   2.949 -0.9622 -1.3123  2.2827
  185DOPC  H12B22696   4.855   7.151   2.961  0.9556 -1.0527 -1.3343
  185DOPC   C1322697   4.958   7.234   2.721  0.7899 -0.1523 -0.4609
  185DOPC  H13A22698   5.054   7.184   2.719  0.9412 -0.2388  2.7771
  185DOPC  H13B22699   4.878   7.164   2.704  0.3624  0.4963 -1.1651
  185DOPC  H13C22700   4.956   7.300   2.636 -1.2569  0.9044  0.3321
  185DOPC   C1422701   5.048   7.412   2.864  0.1240 -0.8613  0.1792
  185DOPC  H14A22702   5.038   7.471   2.953  2.0182  0.4737 -0.4397
  185DOPC  H14B22703   5.138   7.354   2.883  0.1825 -0.5354  0.9304
  185DOPC  H14C22704   5.063   7.464   2.771 -2.7494  0.6354  0.4371
  185DOPC   C1522705   4.800   7.373   2.844  0.4261  0.2903  0.1764
  185DOPC  H15A22706   4.786   7.427   2.751 -1.9625  1.7676  1.2979
  185DOPC  H15B22707   4.796   7.439   2.929 -1.5644  0.2042  0.1897
  185DOPC  H15C22708   4.722   7.300   2.857  0.1814  0.3669 -0.7690
  185DOPC   C1122709   4.952   7.281   3.097 -0.1607  0.3167  0.0644
  185DOPC  H11A22710   4.955   7.204   3.177  0.3825  0.6293  0.3537
  185DOPC  H11B22711   5.045   7.341   3.106  1.2877 -1.7720 -0.2748
  185DOPC     P22712   4.821   7.475   3.204  0.1814 -0.2049  0.1020
  185DOPC   O1322713   4.688   7.540   3.189  0.3260  1.3566  0.2956
  185DOPC   O1422714   4.939   7.560   3.168  0.1007  0.2552  0.0622
  185DOPC   O1222715   4.832   7.354   3.118 -0.1930  0.0553  0.5208
  185DOPC   O1122716   4.848   7.424   3.355 -0.2881  0.2747 -0.1815
  185DOPC    C122717   4.780   7.315   3.412  0.5790  0.1961 -0.3619
  185DOPC    HA22718   4.828   7.217   3.390 -0.3820 -1.1694  3.0156
  185DOPC    HB22719   4.672   7.304   3.388  0.4507  0.8938 -0.1180
  185DOPC    C222720   4.806   7.306   3.569  0.3859  0.3347  0.1659
  185DOPC    HS22721   4.764   7.207   3.597  0.5140  0.6326  1.4453
  185DOPC   O2122722   4.739   7.416   3.631 -0.2249 -0.2369  0.4083
  185DOPC   C2122723   4.611   7.389   3.655  0.1529 -0.3319 -0.0776
  185DOPC   O2222724   4.561   7.281   3.636  0.4330 -0.2650 -0.6028
  185DOPC   C2222725   4.547   7.510   3.707  0.1336  0.5191  0.4411
  185DOPC   H2R22726   4.441   7.496   3.676  0.1596  1.9110 -0.3859
  185DOPC   H2S22727   4.579   7.599   3.648  0.4240  0.9920  1.2885
  185DOPC    C322728   4.954   7.308   3.614  0.2458 -0.0726 -0.1399
  185DOPC    HX22729   4.991   7.406   3.579 -0.6021  0.4220  0.3194
  185DOPC    HY22730   5.006   7.223   3.564  0.6063  0.1437 -0.1338
  185DOPC   O3122731   4.961   7.286   3.755 -0.0500  0.1819 -0.3178
  185DOPC   C3122732   4.985   7.386   3.830  0.0757  0.5790 -0.8226
  185DOPC   O3222733   5.013   7.500   3.799  0.1195 -0.1251 -0.1389
  185DOPC   C3222734   4.970   7.331   3.979  0.5339 -0.0113 -0.6605
  185DOPC   H2X22735   4.867   7.360   4.010  0.2514 -1.4976 -0.1084
  185DOPC   H2Y22736   4.978   7.221   3.965 -0.0619 -0.0662 -0.6211
  185DOPC   C2322737   4.558   7.542   3.854 -0.8009  0.3936  0.2502
  185DOPC   H3R22738   4.498   7.634   3.873 -0.3572  0.6194  0.5619
  185DOPC   H3S22739   4.665   7.559   3.878 -0.6384 -0.2015 -0.0496
  185DOPC   C2422740   4.507   7.429   3.936 -0.5841  0.3224  0.1097
  185DOPC   H4R22741   4.552   7.327   3.934 -2.7644 -0.7423  1.2252
  185DOPC   H4S22742   4.401   7.407   3.910 -0.4324  0.2724 -0.4723
  185DOPC   C2522743   4.508   7.449   4.089 -0.1174  0.4919  0.0153
  185DOPC   H5R22744   4.456   7.545   4.110  0.0541  0.3845  0.9985
  185DOPC   H5S22745   4.601   7.475   4.145  0.0637 -0.2590  0.0809
  185DOPC   C2622746   4.434   7.339   4.163  0.4799  0.6098 -0.3942
  185DOPC   H6R22747   4.325   7.348   4.144  0.7598  4.9897 -0.8915
  185DOPC   H6S22748   4.441   7.358   4.272 -0.0475 -1.9246  0.1533
  185DOPC   C2722749   4.496   7.199   4.148 -0.6493  0.3472  0.2007
  185DOPC   H7R22750   4.601   7.224   4.174  0.5575 -1.7016 -2.2953
  185DOPC   H7S22751   4.493   7.164   4.043  0.2760 -0.5595  0.4617
  185DOPC   C2822752   4.423   7.083   4.226 -1.2232  0.1320  0.0837
  185DOPC   H8R22753   4.466   6.989   4.185  2.4817  1.9759 -0.6763
  185DOPC   H8S22754   4.317   7.106   4.199 -1.1800  2.6871  1.7326
  185DOPC   C2922755   4.445   7.098   4.374 -0.9034  0.2538 -0.0916
  185DOPC   H9R22756   4.552   7.109   4.398 -1.3277  1.5864  1.4203
  185DOPC  C21022757   4.352   7.086   4.469  0.7570  0.5949  0.1832
  185DOPC  H10R22758   4.387   7.097   4.573  0.9501  2.8682 -0.0867
  185DOPC  C21122759   4.198   7.061   4.453 -0.4339 -0.5471  0.5679
  185DOPC  H11R22760   4.172   7.012   4.357  0.0285 -0.6653  0.5029
  185DOPC  H11S22761   4.146   7.159   4.462  0.7532  0.1688 -0.1094
  185DOPC  C21222762   4.146   6.963   4.556  0.5565  0.0453 -0.1399
  185DOPC  H12R22763   4.192   6.864   4.538  0.7274 -0.1772  1.3788
  185DOPC  H12S22764   4.037   6.946   4.542  0.9157  0.1935 -4.2097
  185DOPC  C21322765   4.173   6.992   4.706  0.3638 -0.2281  0.0436
  185DOPC  H13R22766   4.270   7.043   4.721  0.5618 -0.6445  0.2028
  185DOPC  H13S22767   4.184   6.903   4.772  1.3020  0.7286  1.2284
  185DOPC  C21422768   4.058   7.060   4.776  0.2497 -0.2803  0.1466
  185DOPC  H14R22769   3.978   6.983   4.785  0.9810 -1.3204 -1.6089
  185DOPC  H14S22770   4.024   7.147   4.716  1.7285 -0.3322 -0.8052
  185DOPC  C21522771   4.093   7.108   4.917  0.0920 -0.0271  0.6049
  185DOPC  H15R22772   4.170   7.042   4.962  0.2473 -1.1271 -1.1832
  185DOPC  H15S22773   4.007   7.118   4.986  1.0355 -1.5064  2.0693
  185DOPC  C21622774   4.140   7.251   4.898  0.5024  0.0452 -0.2422
  185DOPC  H16R22775   4.050   7.306   4.863 -0.1002 -1.5040 -1.2379
  185DOPC  H16S22776   4.214   7.259   4.816  1.1193 -1.0243  0.1815
  185DOPC  C21722777   4.202   7.319   5.022  0.3503 -0.0010 -0.1974
  185DOPC  H17R22778   4.293   7.260   5.048  0.4972  0.7358  0.9860
  185DOPC  H17S22779   4.130   7.297   5.104 -0.4329 -0.5034 -0.9993
  185DOPC  C21822780   4.227   7.473   5.041  0.2726 -0.0487 -0.4481
  185DOPC  H18R22781   4.267   7.517   4.947 -0.3868 -0.0049 -0.7146
  185DOPC  H18S22782   4.297   7.492   5.125  1.1901  1.1135 -1.4328
  185DOPC  H18T22783   4.131   7.523   5.065  0.8562  0.5717  0.6127
  185DOPC   C3322784   5.080   7.392   4.070 -0.2510  0.0496 -0.3933
  185DOPC   H3X22785   5.049   7.495   4.097 -0.0778 -0.0006 -0.0086
  185DOPC   H3Y22786   5.178   7.398   4.017 -0.2273 -0.0972 -0.3659
  185DOPC   C3422787   5.098   7.309   4.202 -0.0237 -0.3384 -0.6840
  185DOPC   H4X22788   5.153   7.216   4.177  1.6214  0.6805 -1.0315
  185DOPC   H4Y22789   5.002   7.273   4.244 -1.2069  2.4464 -0.7935
  185DOPC   C3522790   5.169   7.390   4.309  0.4505 -0.7292 -0.4826
  185DOPC   H5X22791   5.112   7.479   4.345  0.7246 -0.9555  0.5349
  185DOPC   H5Y22792   5.265   7.427   4.266  0.5050 -0.3507 -0.0448
  185DOPC   C3622793   5.197   7.307   4.436  0.1374 -0.4643  0.1112
  185DOPC   H6X22794   5.099   7.267   4.468  0.1875 -1.5287 -0.9601
  185DOPC   H6Y22795   5.258   7.218   4.410  1.2096  0.8385 -2.1988
  185DOPC   C3722796   5.259   7.388   4.555  0.3113 -0.2987 -0.1349
  185DOPC   H7X22797   5.347   7.443   4.516 -0.5983  1.8127  0.6498
  185DOPC   H7Y22798   5.188   7.462   4.597 -0.2057 -2.3022  2.8523
  185DOPC   C3822799   5.311   7.295   4.668  0.3479 -0.0994 -0.1260
  185DOPC   H8X22800   5.366   7.360   4.739 -0.3827  1.0176 -0.5618
  185DOPC   H8Y22801   5.383   7.223   4.622 -1.9226 -0.5185 -3.3802
  185DOPC   C3922802   5.205   7.221   4.745 -0.5776  0.0076  1.0309
  185DOPC   H9X22803   5.116   7.282   4.764 -2.1627 -1.6576 -0.5921
  185DOPC  C31022804   5.213   7.097   4.802 -0.2486  0.2871 -0.2438
  185DOPC  H10X22805   5.123   7.060   4.853  1.0608 -2.9206  0.0477
  185DOPC  C31122806   5.321   6.996   4.796 -0.1705  0.4212  0.0457
  185DOPC  H11X22807   5.340   6.966   4.901 -0.2349  2.8341  0.8209
  185DOPC  H11Y22808   5.420   7.039   4.768 -0.7670  2.4853  0.8538
  185DOPC  C31222809   5.295   6.868   4.710  0.5945  0.1546 -0.0967
  185DOPC  H12X22810   5.189   6.837   4.711  0.9338 -1.2384 -1.6200
  185DOPC  H12Y22811   5.356   6.784   4.749  0.8806  1.5704  2.7726
  185DOPC  C31322812   5.329   6.890   4.557  0.0604 -0.7966 -0.7040
  185DOPC  H13X22813   5.268   6.974   4.518 -2.5437 -0.9361  2.5278
  185DOPC  H13Y22814   5.434   6.924   4.547 -0.1947 -0.0696 -0.9120
  185DOPC  C31422815   5.308   6.761   4.477 -0.4146 -0.7837 -0.4256
  185DOPC  H14X22816   5.357   6.674   4.528 -2.4914 -1.3822  0.6474
  185DOPC  H14Y22817   5.203   6.727   4.489 -0.6715 -0.4473 -1.6240
  185DOPC  C31522818   5.357   6.766   4.333 -0.2967 -0.0177  0.2274
  185DOPC  H15X22819   5.356   6.662   4.294 -1.7646  0.0731 -0.0361
  185DOPC  H15Y22820   5.461   6.803   4.323 -0.7200  0.8102 -1.4910
  185DOPC  C31622821   5.259   6.853   4.249 -0.7550 -0.3051  0.4486
  185DOPC  H16X22822   5.155   6.847   4.288 -1.2783  1.7419 -0.4668
  185DOPC  H16Y22823   5.296   6.957   4.264  2.6203 -0.8955 -2.4160
  185DOPC  C31722824   5.269   6.822   4.102 -0.0978  0.7061  0.3917
  185DOPC  H17X22825   5.362   6.869   4.063  0.3646 -1.6505 -1.5857
  185DOPC  H17Y22826   5.265   6.714   4.074  1.3575  1.4589 -3.2494
  185DOPC  C31822827   5.161   6.896   4.020  0.2732 -0.0066 -0.2662
  185DOPC  H18X22828   5.178   6.882   3.911 -0.0376  1.8694 -0.5918
  185DOPC  H18Y22829   5.059   6.864   4.049  0.2239  0.8840  0.5840
  185DOPC  H18Z22830   5.171   7.004   4.043  0.5001  0.3938 -2.0745
  186DOPC     N22831   7.580   2.127   3.159 -0.2449  0.0853  0.1910
  186DOPC   C1222832   7.686   2.182   3.255  0.9298 -0.7388  0.0572
  186DOPC  H12A22833   7.657   2.286   3.264  2.3223 -0.3508  0.2706
  186DOPC  H12B22834   7.780   2.185   3.203  1.2561 -0.3126  0.6585
  186DOPC   C1322835   7.599   1.982   3.134  0.4822  0.3989  0.5818
  186DOPC  H13A22836   7.598   1.927   3.227  0.9307 -1.4288 -0.4486
  186DOPC  H13B22837   7.525   1.941   3.066 -1.4673  1.5429  1.9146
  186DOPC  H13C22838   7.690   1.953   3.083 -0.8870 -2.3248 -0.4999
  186DOPC   C1422839   7.602   2.193   3.023 -0.2739  0.8026  0.5879
  186DOPC  H14A22840   7.521   2.174   2.954  0.5260 -0.0641 -0.1422
  186DOPC  H14B22841   7.603   2.301   3.029 -0.8346  0.8803 -0.4455
  186DOPC  H14C22842   7.701   2.172   2.984 -0.3912  2.1270 -0.5254
  186DOPC   C1522843   7.443   2.155   3.213  0.8680 -0.1863  1.2911
  186DOPC  H15A22844   7.416   2.106   3.305 -0.7435 -0.1385  0.8635
  186DOPC  H15B22845   7.366   2.139   3.139  2.1121  1.3009 -0.4386
  186DOPC  H15C22846   7.429   2.261   3.226  0.4763 -0.2184  1.1448
  186DOPC   C1122847   7.712   2.115   3.386 -0.0515  0.6427 -0.2022
  186DOPC  H11A22848   7.782   2.168   3.454 -0.2232 -0.2255  0.6694
  186DOPC  H11B22849   7.614   2.110   3.439 -0.0246 -0.9932 -0.2819
  186DOPC     P22850   7.905   1.947   3.330 -0.0519 -0.5109  0.1289
  186DOPC   O1322851   7.962   2.063   3.251 -0.5782 -0.3100  0.4680
  186DOPC   O1422852   7.912   1.818   3.265 -0.4735 -0.2117 -0.0783
  186DOPC   O1222853   7.756   1.981   3.361 -0.2542 -0.2656 -0.1979
  186DOPC   O1122854   7.973   1.943   3.466  0.3271  0.1882 -0.2726
  186DOPC    C122855   7.930   1.839   3.560 -0.4495 -0.1249  0.1298
  186DOPC    HA22856   7.921   1.735   3.521 -0.6762 -0.0573  0.0002
  186DOPC    HB22857   7.831   1.864   3.604 -1.3551 -1.4764 -1.0576
  186DOPC    C222858   8.033   1.823   3.675 -0.4140 -0.2071  0.5103
  186DOPC    HS22859   8.035   1.914   3.738  1.6431 -1.6479  2.7205
  186DOPC   O2122860   8.158   1.781   3.620  0.0939 -0.3911  0.2922
  186DOPC   C2122861   8.263   1.822   3.685  0.1836 -0.0323 -0.1490
  186DOPC   O2222862   8.266   1.901   3.775 -0.6311  0.0971 -0.3021
  186DOPC   C2222863   8.394   1.772   3.620  0.5646  0.2552 -0.0413
  186DOPC   H2R22864   8.427   1.855   3.555 -0.5174  0.8840  0.1846
  186DOPC   H2S22865   8.368   1.686   3.554  0.4014  0.3273 -0.0715
  186DOPC    C322866   7.994   1.712   3.777  0.3016 -0.2185 -0.6415
  186DOPC    HX22867   8.060   1.704   3.865 -1.3579 -0.2652  0.6485
  186DOPC    HY22868   8.013   1.619   3.720 -0.2828 -0.6746 -0.0957
  186DOPC   O3122869   7.856   1.714   3.822 -0.7530  0.4626  0.3399
  186DOPC   C3122870   7.834   1.684   3.948  0.0606  0.2879 -0.3872
  186DOPC   O3222871   7.907   1.636   4.028 -0.3057  0.3985  0.4862
  186DOPC   C3222872   7.689   1.721   3.977 -0.3463  0.3654  0.1806
  186DOPC   H2X22873   7.697   1.825   4.016  1.5904  0.2873  0.1186
  186DOPC   H2Y22874   7.637   1.724   3.879 -1.3168 -0.8275  0.6387
  186DOPC   C2322875   8.501   1.720   3.720 -0.1352 -0.6139  0.1764
  186DOPC   H3R22876   8.574   1.649   3.676  0.9524 -0.1269  1.1360
  186DOPC   H3S22877   8.462   1.657   3.802 -0.9336  1.8808  1.8178
  186DOPC   C2422878   8.575   1.848   3.778 -0.7207 -0.1310  0.1677
  186DOPC   H4R22879   8.506   1.911   3.838  1.0947  0.3923  1.8080
  186DOPC   H4S22880   8.606   1.911   3.692 -0.4005  2.0091  1.7468
  186DOPC   C2522881   8.697   1.824   3.861 -0.5326 -0.3358 -0.5825
  186DOPC   H5R22882   8.752   1.917   3.886 -1.0697 -0.6685  2.0833
  186DOPC   H5S22883   8.762   1.741   3.825  1.5998  1.2998 -0.7038
  186DOPC   C2622884   8.664   1.791   4.008  0.1993 -0.2451 -0.4996
  186DOPC   H6R22885   8.591   1.707   4.011  0.0378 -0.0816  0.4697
  186DOPC   H6S22886   8.616   1.882   4.049 -0.3926 -0.4254 -0.7811
  186DOPC   C2722887   8.777   1.737   4.097 -1.0382 -0.3744  0.3035
  186DOPC   H7R22888   8.794   1.634   4.058  1.4426 -0.7028  1.9801
  186DOPC   H7S22889   8.723   1.719   4.192 -1.3636  0.1403  0.2209
  186DOPC   C2822890   8.905   1.819   4.113 -0.4770  0.2225 -0.1537
  186DOPC   H8R22891   8.954   1.828   4.014 -0.4021 -0.2351 -0.1590
  186DOPC   H8S22892   8.987   1.769   4.168 -0.4067  0.5335  0.0276
  186DOPC   C2922893   8.879   1.960   4.167  0.3311  0.7680 -0.3224
  186DOPC   H9R22894   8.818   2.029   4.107  2.1519  1.8852 -0.9607
  186DOPC  C21022895   8.908   2.007   4.292 -0.0351 -0.0225  0.1686
  186DOPC  H10R22896   8.896   2.115   4.311  1.8175 -0.0724  1.9206
  186DOPC  C21122897   8.965   1.925   4.406  0.0549  0.7775 -0.3753
  186DOPC  H11R22898   9.003   1.825   4.377  2.1875  1.1791  0.8466
  186DOPC  H11S22899   8.886   1.922   4.485  1.7039 -1.7069  1.3174
  186DOPC  C21222900   9.086   1.992   4.486  0.3074  0.0342  0.4570
  186DOPC  H12R22901   9.108   1.943   4.583 -2.8761 -1.0580  0.7469
  186DOPC  H12S22902   9.062   2.096   4.519 -1.2977 -0.4160  0.8013
  186DOPC  C21322903   9.222   2.012   4.409  0.0670  0.0402 -0.0554
  186DOPC  H13R22904   9.203   2.033   4.302  1.7699 -1.4060 -0.6821
  186DOPC  H13S22905   9.280   1.918   4.413 -0.9654 -0.6891 -1.4623
  186DOPC  C21422906   9.308   2.132   4.448 -0.2386  0.5289  0.1112
  186DOPC  H14R22907   9.333   2.113   4.555  2.1383  0.1518 -0.4457
  186DOPC  H14S22908   9.256   2.230   4.437  1.5248  1.6170  0.8426
  186DOPC  C21522909   9.441   2.123   4.367  0.2685 -0.1246  0.9255
  186DOPC  H15R22910   9.417   2.085   4.265 -0.1171 -0.9244  1.3016
  186DOPC  H15S22911   9.506   2.051   4.421 -0.8035 -1.4332  0.5345
  186DOPC  C21622912   9.522   2.252   4.357 -0.5380 -0.1433 -0.0009
  186DOPC  H16R22913   9.503   2.314   4.447  1.7226 -1.2583  1.3249
  186DOPC  H16S22914   9.492   2.308   4.266  0.2246 -0.2885 -0.3522
  186DOPC  C21722915   9.675   2.230   4.368  0.0844  0.2582  0.4092
  186DOPC  H17R22916   9.702   2.181   4.464  0.0022 -0.3570  0.1247
  186DOPC  H17S22917   9.730   2.325   4.385  1.6417 -0.7019  1.0280
  186DOPC  C21822918   9.722   2.156   4.249 -0.2016  0.7942 -0.0088
  186DOPC  H18R22919   9.688   2.050   4.238 -1.5488  1.3454 -1.5817
  186DOPC  H18S22920   9.832   2.165   4.260 -0.1338 -1.2707  1.8995
  186DOPC  H18T22921   9.677   2.208   4.161 -0.0529  1.1889  0.1467
  186DOPC   C3322922   7.614   1.628   4.070  0.8065 -0.0065  0.2765
  186DOPC   H3X22923   7.666   1.588   4.160 -1.0792 -2.1662  0.5143
  186DOPC   H3Y22924   7.577   1.544   4.007  1.3246  1.3938 -1.9634
  186DOPC   C3422925   7.478   1.693   4.118 -0.1806  0.4466 -0.3552
  186DOPC   H4X22926   7.428   1.713   4.021  0.9646  2.0160 -0.6697
  186DOPC   H4Y22927   7.502   1.790   4.167  2.9505 -0.4031  0.0498
  186DOPC   C3522928   7.382   1.606   4.210 -0.1994  0.0247  0.3230
  186DOPC   H5X22929   7.374   1.512   4.152 -0.3897  0.3128 -0.1240
  186DOPC   H5Y22930   7.275   1.636   4.199 -0.9753 -2.8817 -0.9284
  186DOPC   C3622931   7.434   1.581   4.353 -0.3097 -0.0242  0.1622
  186DOPC   H6X22932   7.389   1.489   4.397  1.6767 -1.1805 -0.1153
  186DOPC   H6Y22933   7.540   1.549   4.352 -0.1224  0.5322  1.1356
  186DOPC   C3722934   7.419   1.695   4.446  0.2986 -0.5135 -0.1518
  186DOPC   H7X22935   7.483   1.778   4.410  1.2235 -1.2101 -0.1596
  186DOPC   H7Y22936   7.314   1.728   4.441  0.2055 -0.4304  1.7322
  186DOPC   C3822937   7.447   1.666   4.593  0.9891 -0.8334  0.1655
  186DOPC   H8X22938   7.442   1.769   4.634  1.6358  0.0600 -1.8677
  186DOPC   H8Y22939   7.551   1.627   4.604  1.6440  0.9561  0.6731
  186DOPC   C3922940   7.338   1.577   4.655 -0.1516  0.5718 -0.8615
  186DOPC   H9X22941   7.258   1.545   4.586  1.2430  0.2355 -2.3638
  186DOPC  C31022942   7.316   1.550   4.789 -0.1841 -0.2091  0.0135
  186DOPC  H10X22943   7.233   1.492   4.832 -0.8133 -0.0261 -0.9145
  186DOPC  C31122944   7.423   1.592   4.891  0.0767 -0.1122 -0.2654
  186DOPC  H11X22945   7.380   1.585   4.993  1.1573 -3.3263  0.0624
  186DOPC  H11Y22946   7.459   1.695   4.870  3.1357 -0.8322  0.9151
  186DOPC  C31222947   7.549   1.510   4.886  0.1231  0.2727 -0.2570
  186DOPC  H12X22948   7.624   1.553   4.956 -0.2206  1.8224 -0.8163
  186DOPC  H12Y22949   7.600   1.518   4.788  0.5655  1.6094  0.0614
  186DOPC  C31322950   7.520   1.364   4.933  0.2824  0.0665 -0.3958
  186DOPC  H13X22951   7.487   1.372   5.039  0.4030 -0.1440 -0.3422
  186DOPC  H13Y22952   7.445   1.309   4.873 -0.1743 -1.3007  1.3606
  186DOPC  C31422953   7.641   1.277   4.935  0.4010 -0.1658 -0.1203
  186DOPC  H14X22954   7.722   1.313   5.002  0.8560 -1.8406  0.2922
  186DOPC  H14Y22955   7.595   1.179   4.960 -2.4911  0.8760 -1.0072
  186DOPC  C31522956   7.713   1.250   4.801 -0.0736 -0.3144 -0.1216
  186DOPC  H15X22957   7.770   1.341   4.773 -0.0009 -0.9639 -2.2258
  186DOPC  H15Y22958   7.633   1.231   4.727  2.0042  0.2098 -2.6469
  186DOPC  C31622959   7.803   1.131   4.822 -0.0762  0.0748  0.2665
  186DOPC  H16X22960   7.863   1.139   4.915  1.2189  1.4353 -0.6574
  186DOPC  H16Y22961   7.740   1.039   4.830 -1.0148  0.5347 -1.3502
  186DOPC  C31722962   7.890   1.109   4.698  0.2284 -0.3832  0.2745
  186DOPC  H17X22963   7.834   1.140   4.607  1.4254 -0.9655 -0.7039
  186DOPC  H17Y22964   7.965   1.191   4.708 -1.0283  0.8691 -0.2010
  186DOPC  C31822965   7.953   0.977   4.679  0.2901  0.6776  0.2856
  186DOPC  H18X22966   7.985   0.939   4.778 -0.8934 -0.1751  0.3569
  186DOPC  H18Y22967   7.877   0.903   4.645  0.5797  0.5465 -0.0843
  186DOPC  H18Z22968   8.045   0.970   4.617  0.3551 -2.3387  0.5823
  187DOPC     N22969   5.888   0.562   2.941 -0.4103 -0.3107  0.5323
  187DOPC   C1222970   5.962   0.621   3.055 -1.1028 -0.5969  0.0013
  187DOPC  H12A22971   6.016   0.548   3.115 -0.3996 -0.1079 -0.0213
  187DOPC  H12B22972   5.886   0.663   3.118 -0.8793  1.7572 -1.1767
  187DOPC   C1322973   5.775   0.473   2.997  0.4090 -0.1280 -0.1389
  187DOPC  H13A22974   5.724   0.420   2.918 -0.1543 -0.0577  0.1678
  187DOPC  H13B22975   5.820   0.394   3.054  1.2483  0.5627  0.1800
  187DOPC  H13C22976   5.706   0.521   3.066 -0.2325  0.3246 -1.0805
  187DOPC   C1422977   5.969   0.462   2.866  0.0085 -0.3268  0.0515
  187DOPC  H14A22978   5.953   0.466   2.759 -0.2368  0.3532  0.1125
  187DOPC  H14B22979   6.073   0.476   2.893  0.6142 -1.7528 -1.3915
  187DOPC  H14C22980   5.938   0.361   2.888 -0.7850 -0.1419 -0.2026
  187DOPC   C1522981   5.836   0.675   2.843  0.9621  0.8105 -0.1232
  187DOPC  H15A22982   5.774   0.752   2.887  1.0104  1.8910 -1.8587
  187DOPC  H15B22983   5.782   0.624   2.765 -0.2646 -0.0620  1.2419
  187DOPC  H15C22984   5.918   0.723   2.792  0.2656  1.1002 -0.9999
  187DOPC   C1122985   6.058   0.735   3.032 -0.6732 -0.0074  0.6329
  187DOPC  H11A22986   6.002   0.820   2.987  0.2524 -0.5464 -1.7065
  187DOPC  H11B22987   6.109   0.767   3.125  0.7933 -0.0907 -0.1049
  187DOPC     P22988   6.280   0.603   2.990 -0.2871 -0.2138 -0.0216
  187DOPC   O1322989   6.398   0.682   3.032  0.1237 -0.1052  0.8256
  187DOPC   O1422990   6.296   0.490   2.898 -0.1279 -0.2158 -0.0395
  187DOPC   O1222991   6.163   0.698   2.945  0.1845 -0.1982 -0.3383
  187DOPC   O1122992   6.222   0.539   3.126 -0.2155  0.0600 -0.1507
  187DOPC    C122993   6.308   0.458   3.204  0.5898  0.4375  0.3865
  187DOPC    HA22994   6.415   0.488   3.192  0.7289 -0.1766  0.0292
  187DOPC    HB22995   6.301   0.353   3.170 -1.2320  1.1414 -1.6006
  187DOPC    C222996   6.279   0.461   3.357 -0.2967  0.2830 -0.6669
  187DOPC    HS22997   6.201   0.389   3.389 -0.3445  0.6311  0.0166
  187DOPC   O2122998   6.260   0.591   3.399 -0.1270  0.5028 -0.2804
  187DOPC   C2122999   6.124   0.617   3.421 -0.2114 -0.4027 -0.2193
  187DOPC   O2223000   6.032   0.540   3.419 -0.6337 -0.1652  0.1799
  187DOPC   C2223001   6.121   0.760   3.481 -0.0096  0.3931 -0.1829
  187DOPC   H2R23002   6.035   0.807   3.428  0.8482  0.9404 -1.1061
  187DOPC   H2S23003   6.215   0.812   3.454 -0.5240  1.6198  0.3058
  187DOPC    C323004   6.406   0.410   3.425  0.3385 -0.7171 -0.2536
  187DOPC    HX23005   6.490   0.458   3.370  0.4240 -0.4801  0.0774
  187DOPC    HY23006   6.417   0.302   3.403  1.8427 -0.3084 -1.7684
  187DOPC   O3123007   6.407   0.438   3.567  0.0066 -0.1420  0.3406
  187DOPC   C3123008   6.516   0.413   3.627 -0.0122 -0.0396  0.7478
  187DOPC   O3223009   6.610   0.354   3.572  0.1964  0.0156  0.2703
  187DOPC   C3223010   6.497   0.442   3.775 -0.0187 -0.4825  0.0858
  187DOPC   H2X23011   6.451   0.543   3.782  1.0308 -0.0720  1.3488
  187DOPC   H2Y23012   6.435   0.357   3.809 -1.0036 -0.2661 -1.0838
  187DOPC   C2323013   6.094   0.764   3.629 -0.4248 -0.1467  0.6075
  187DOPC   H3R23014   6.009   0.701   3.663  0.1152 -1.0768  0.2790
  187DOPC   H3S23015   6.081   0.871   3.655  1.5237  0.1183  0.6297
  187DOPC   C2423016   6.209   0.708   3.713 -0.5381 -0.0557  0.2605
  187DOPC   H4R23017   6.297   0.771   3.687 -0.8593 -0.5184 -2.2400
  187DOPC   H4S23018   6.232   0.603   3.684  1.2878  0.2139  0.6464
  187DOPC   C2523019   6.179   0.712   3.868 -0.4523 -1.0835  0.1779
  187DOPC   H5R23020   6.165   0.821   3.884 -2.3585 -0.6783 -3.1446
  187DOPC   H5S23021   6.277   0.688   3.915  0.1228 -0.5732 -0.7297
  187DOPC   C2623022   6.060   0.630   3.917 -0.4475  0.0450  0.7144
  187DOPC   H6R23023   6.082   0.529   3.877  1.8450  1.6837 -2.6708
  187DOPC   H6S23024   5.971   0.671   3.863  0.5943 -0.4822 -1.5464
  187DOPC   C2723025   6.048   0.614   4.066  0.0945 -0.8891 -0.6197
  187DOPC   H7R23026   5.946   0.582   4.097  0.1303  0.6364  1.2665
  187DOPC   H7S23027   6.064   0.713   4.114 -0.0271 -0.1774 -2.0136
  187DOPC   C2823028   6.164   0.520   4.114  0.4065 -0.2695 -0.3081
  187DOPC   H8R23029   6.193   0.546   4.218  1.1069 -1.9104 -0.0529
  187DOPC   H8S23030   6.256   0.532   4.053 -0.8529 -0.5181 -2.3352
  187DOPC   C2923031   6.128   0.375   4.110  0.1605  0.0812  0.3941
  187DOPC   H9R23032   6.071   0.344   4.021 -0.0749  0.3047  0.4669
  187DOPC  C21023033   6.163   0.281   4.200  0.4059  0.2277  0.0620
  187DOPC  H10R23034   6.137   0.174   4.190  0.7514  0.2218 -0.9133
  187DOPC  C21123035   6.251   0.300   4.327 -0.4561 -0.8700  0.9448
  187DOPC  H11R23036   6.208   0.250   4.416 -1.3088  0.7052  1.4574
  187DOPC  H11S23037   6.269   0.409   4.340  2.4079 -1.0732 -0.4431
  187DOPC  C21223038   6.399   0.251   4.301 -0.1695 -0.4510 -0.5389
  187DOPC  H12R23039   6.448   0.313   4.223 -1.5170  3.6369  1.5824
  187DOPC  H12S23040   6.385   0.151   4.254  0.9117 -1.6154  1.4592
  187DOPC  C21323041   6.487   0.236   4.428 -0.8550 -0.2940  0.1622
  187DOPC  H13R23042   6.502   0.341   4.461 -2.0743 -0.1085  0.1934
  187DOPC  H13S23043   6.579   0.182   4.399 -0.5792  0.4968 -0.4886
  187DOPC  C21423044   6.424   0.160   4.552 -0.0792  0.1112 -0.1860
  187DOPC  H14R23045   6.397   0.061   4.508 -0.8807 -0.7154  2.0185
  187DOPC  H14S23046   6.342   0.225   4.591 -0.2954  1.1854 -2.2757
  187DOPC  C21523047   6.518   0.145   4.660 -0.4886 -0.7904  0.6189
  187DOPC  H15R23048   6.575   0.239   4.680 -0.0855 -0.2648 -2.4888
  187DOPC  H15S23049   6.593   0.065   4.646 -1.9901 -2.5168  1.8916
  187DOPC  C21623050   6.443   0.108   4.788  0.7642 -0.5586 -0.1418
  187DOPC  H16R23051   6.400   0.006   4.773 -0.5723 -0.1425  0.6249
  187DOPC  H16S23052   6.350   0.169   4.795  0.8857  0.5327 -5.0098
  187DOPC  C21723053   6.546   0.097   4.905 -0.1868  0.2575  0.6279
  187DOPC  H17R23054   6.622   0.177   4.894 -1.2065  1.3605  1.3335
  187DOPC  H17S23055   6.592  -0.003   4.901  0.7935  0.5129  3.4751
  187DOPC  C21823056   6.491   0.098   5.044 -0.5715 -0.2476  0.3258
  187DOPC  H18R23057   6.456   0.003   5.090 -0.2515 -0.0478  0.9953
  187DOPC  H18S23058   6.406   0.169   5.057  0.0253  0.3239  1.2948
  187DOPC  H18T23059   6.571   0.130   5.114  0.6302 -1.1203 -0.6262
  187DOPC   C3323060   6.628   0.443   3.858  0.4487  1.1188  0.5195
  187DOPC   H3X23061   6.691   0.533   3.848  3.1083 -0.3201  2.7729
  187DOPC   H3Y23062   6.695   0.358   3.833 -0.7144  0.0861  0.7759
  187DOPC   C3423063   6.596   0.434   4.010 -0.2091 -0.1536  0.4875
  187DOPC   H4X23064   6.581   0.326   4.027 -0.9998 -0.4899 -1.9334
  187DOPC   H4Y23065   6.511   0.503   4.028 -0.6697 -0.8384  0.9401
  187DOPC   C3523066   6.705   0.486   4.100  0.3168 -0.1977  0.4724
  187DOPC   H5X23067   6.712   0.597   4.104  1.6518 -0.2884  3.0974
  187DOPC   H5Y23068   6.799   0.449   4.054  0.7669  0.9927  0.3767
  187DOPC   C3623069   6.717   0.429   4.242  0.1963  0.2398  0.3734
  187DOPC   H6X23070   6.658   0.490   4.313 -1.2343 -0.5199 -0.1163
  187DOPC   H6Y23071   6.675   0.327   4.237  0.7143  0.0819 -1.5901
  187DOPC   C3723072   6.860   0.425   4.299  0.1742 -0.0472  0.6245
  187DOPC   H7X23073   6.911   0.361   4.224 -0.0675  0.2151  0.2354
  187DOPC   H7Y23074   6.896   0.530   4.299 -1.2975  0.4893  0.4250
  187DOPC   C3823075   6.865   0.360   4.438 -0.0696  0.4171  0.4566
  187DOPC   H8X23076   6.844   0.251   4.434 -1.7337  0.5730  2.6614
  187DOPC   H8Y23077   6.788   0.414   4.497  0.4655  0.4902  1.1006
  187DOPC   C3923078   6.998   0.384   4.502  0.9191 -0.4914 -0.7728
  187DOPC   H9X23079   7.054   0.468   4.459  1.4572  0.0104  0.8528
  187DOPC  C31023080   7.074   0.311   4.586  0.3597 -0.1823  0.0057
  187DOPC  H10X23081   7.175   0.345   4.611  0.9013 -1.4084 -0.4307
  187DOPC  C31123082   7.033   0.182   4.641 -0.3295  0.6826 -0.2828
  187DOPC  H11X23083   7.116   0.114   4.673 -0.5827  0.9341  0.9519
  187DOPC  H11Y23084   6.977   0.111   4.576 -0.1254 -1.1950  1.4907
  187DOPC  C31223085   6.936   0.196   4.757  0.1242  0.4950 -0.1406
  187DOPC  H12X23086   6.839   0.232   4.717 -0.0177  0.8889  0.5358
  187DOPC  H12Y23087   6.963   0.266   4.840  0.7320 -1.0363  1.0001
  187DOPC  C31323088   6.916   0.060   4.835 -0.0113  0.4037 -0.2248
  187DOPC  H13X23089   6.823   0.078   4.893 -0.3220 -0.2664 -0.4987
  187DOPC  H13Y23090   6.900  -0.022   4.761 -2.0680  2.1974 -1.9086
  187DOPC  C31423091   7.035   0.016   4.923  0.0772 -0.2424  0.4955
  187DOPC  H14X23092   7.132   0.012   4.868  0.0335  1.1182  0.2946
  187DOPC  H14Y23093   7.060   0.090   5.002  2.1504 -1.4973  1.1181
  187DOPC  C31523094   7.006  -0.114   5.000  0.2113 -0.5265 -0.4254
  187DOPC  H15X23095   7.042  -0.193   4.930 -1.8368 -0.0969 -2.0671
  187DOPC  H15Y23096   6.900  -0.130   5.027  0.6525 -0.3614  1.5099
  187DOPC  C31623097   7.087  -0.117   5.133 -0.1170 -0.3512  0.8270
  187DOPC  H16X23098   7.194  -0.094   5.117 -0.1872  1.0914  2.1565
  187DOPC  H16Y23099   7.057  -0.034   5.200  1.9668 -0.3845  1.8929
  187DOPC  C31723100   7.076  -0.257   5.195  0.0139  0.8938  0.6321
  187DOPC  H17X23101   6.973  -0.296   5.200  0.0138  0.6023 -1.1674
  187DOPC  H17Y23102   7.136  -0.324   5.130  1.4931  2.2199  0.5588
  187DOPC  C31823103   7.146  -0.279   5.332 -0.3299 -0.1699  0.2355
  187DOPC  H18X23104   7.174  -0.386   5.344  3.1036  0.7715  1.9727
  187DOPC  H18Y23105   7.237  -0.216   5.341  0.3424 -0.7617 -1.8130
  187DOPC  H18Z23106   7.071  -0.250   5.408 -1.4900  0.4840 -1.1056
  188DOPC     N23107   0.309   0.261   2.542 -0.0549 -0.0233  0.2005
  188DOPC   C1223108   0.362   0.207   2.402  0.1151  0.0755 -0.0650
  188DOPC  H12A23109   0.405   0.291   2.350 -0.1000  0.3715  0.2285
  188DOPC  H12B23110   0.275   0.181   2.343  0.3443 -1.0559  0.0695
  188DOPC   C1323111   0.212   0.369   2.514  0.1718 -0.4398 -0.1554
  188DOPC  H13A23112   0.158   0.415   2.596  0.5964  1.7237 -1.0147
  188DOPC  H13B23113   0.278   0.443   2.470  0.8065 -0.6934  0.3574
  188DOPC  H13C23114   0.134   0.335   2.447  0.8009 -2.1172 -0.0758
  188DOPC   C1423115   0.425   0.316   2.624  0.0431  0.2368  0.3403
  188DOPC  H14A23116   0.482   0.391   2.571 -0.0202  1.0314  1.3710
  188DOPC  H14B23117   0.385   0.353   2.717 -1.2998 -0.1996 -0.0387
  188DOPC  H14C23118   0.499   0.241   2.644  1.1221  2.0894  4.0603
  188DOPC   C1523119   0.246   0.151   2.615 -0.2953 -0.7258  0.0447
  188DOPC  H15A23120   0.148   0.125   2.579 -1.5027  1.5242  1.4568
  188DOPC  H15B23121   0.223   0.184   2.715 -0.9983 -3.4201  0.8671
  188DOPC  H15C23122   0.310   0.064   2.628  1.1685  0.1605 -0.9664
  188DOPC   C1123123   0.464   0.085   2.410  0.1070  0.1699  0.0910
  188DOPC  H11A23124   0.414  -0.007   2.448  0.6157 -0.7613 -1.3794
  188DOPC  H11B23125   0.494   0.062   2.305 -0.2480  0.2271 -0.0217
  188DOPC     P23126   0.674   0.042   2.581  0.2704 -0.0036 -0.2479
  188DOPC   O1323127   0.704   0.129   2.693  0.1809 -0.1286  0.4525
  188DOPC   O1423128   0.793  -0.016   2.510  0.1481 -0.2149 -0.6824
  188DOPC   O1223129   0.592   0.125   2.474 -0.0182 -0.4065  0.0084
  188DOPC   O1123130   0.570  -0.071   2.625 -0.1367  0.4290  0.2076
  188DOPC    C123131   0.513  -0.089   2.755  0.4577  0.0245  0.6127
  188DOPC    HA23132   0.412  -0.132   2.742  0.3951  0.3336  0.0516
  188DOPC    HB23133   0.496   0.005   2.811 -2.4278 -1.1933  2.0156
  188DOPC    C223134   0.592  -0.194   2.832 -0.6387  0.4949  0.2694
  188DOPC    HS23135   0.533  -0.203   2.926 -0.3291 -1.1641  0.3343
  188DOPC   O2123136   0.728  -0.145   2.849 -0.0877 -0.2704  0.0837
  188DOPC   C2123137   0.747  -0.060   2.948 -0.3778 -0.4282 -0.3395
  188DOPC   O2223138   0.669  -0.031   3.037 -0.0134  0.4483  0.3573
  188DOPC   C2223139   0.900  -0.010   2.945  0.6747  0.6442 -0.2083
  188DOPC   H2R23140   0.900   0.080   2.880 -2.2455  1.0814  0.2552
  188DOPC   H2S23141   0.957  -0.089   2.891 -0.3324 -0.0069 -0.3446
  188DOPC    C323142   0.595  -0.324   2.756  0.4706  0.3902  0.4143
  188DOPC    HX23143   0.661  -0.304   2.669  1.8948 -0.8832  1.1423
  188DOPC    HY23144   0.495  -0.355   2.719  0.5811  0.0512  0.3977
  188DOPC   O3123145   0.666  -0.430   2.831  0.2874  0.0235  0.7438
  188DOPC   C3123146   0.580  -0.496   2.913  0.2081 -0.5803  0.2191
  188DOPC   O3223147   0.465  -0.472   2.931  0.1929 -0.4581 -0.4503
  188DOPC   C3223148   0.670  -0.599   2.986 -0.0173 -0.8090  0.2863
  188DOPC   H2X23149   0.671  -0.695   2.930  1.3467 -0.3514 -0.5133
  188DOPC   H2Y23150   0.774  -0.559   2.994 -0.4426  0.7401 -1.3009
  188DOPC   C2323151   0.956   0.017   3.084 -0.0252 -0.4504 -0.0594
  188DOPC   H3R23152   1.066   0.021   3.079  0.0326  0.1459  1.1723
  188DOPC   H3S23153   0.936  -0.063   3.159 -0.0869 -0.0561  0.3489
  188DOPC   C2423154   0.897   0.148   3.145  1.0860  0.3863  0.0751
  188DOPC   H4R23155   0.788   0.146   3.165  1.3005 -1.3271  1.3055
  188DOPC   H4S23156   0.917   0.235   3.078 -0.0865  0.9544  0.4273
  188DOPC   C2523157   0.954   0.191   3.287 -0.4279  0.4267  1.0141
  188DOPC   H5R23158   0.928   0.296   3.312  0.0483  0.7409  0.2223
  188DOPC   H5S23159   1.064   0.182   3.274 -0.4823  1.9461 -0.8493
  188DOPC   C2623160   0.929   0.108   3.409  0.0047  0.4764 -0.0558
  188DOPC   H6R23161   0.965   0.008   3.377 -0.7045 -0.2386  1.3015
  188DOPC   H6S23162   0.820   0.098   3.423  0.1532 -0.7601  0.3162
  188DOPC   C2723163   1.002   0.151   3.540  0.2055  0.7641 -0.2902
  188DOPC   H7R23164   0.970   0.097   3.632  2.4219 -1.2011 -0.5687
  188DOPC   H7S23165   0.983   0.258   3.561  2.7411  1.0831  0.8002
  188DOPC   C2823166   1.155   0.156   3.524 -0.2726  0.7241 -1.1424
  188DOPC   H8R23167   1.204   0.215   3.604  0.1672  0.2993 -1.0887
  188DOPC   H8S23168   1.187   0.214   3.435 -0.9958 -0.8537 -2.4826
  188DOPC   C2923169   1.209   0.013   3.521  0.7835 -0.3776 -0.4532
  188DOPC   H9R23170   1.196  -0.029   3.421 -1.7418 -0.4544 -0.1392
  188DOPC  C21023171   1.262  -0.057   3.620 -0.3489 -0.5136  0.1726
  188DOPC  H10R23172   1.279  -0.164   3.599  0.3795 -0.3700 -0.0203
  188DOPC  C21123173   1.270  -0.004   3.769  1.1432  0.8129  0.4194
  188DOPC  H11R23174   1.297   0.103   3.779  1.6878  0.7476 -0.2421
  188DOPC  H11S23175   1.354  -0.063   3.810  0.1153 -1.0259 -0.0230
  188DOPC  C21223176   1.143  -0.032   3.857 -0.3940 -0.4788  0.5934
  188DOPC  H12R23177   1.108  -0.137   3.848 -0.1106 -0.6341  1.2183
  188DOPC  H12S23178   1.046   0.018   3.837  0.2063  0.2504 -0.6010
  188DOPC  C21323179   1.165  -0.023   4.014 -0.0279 -0.8182  0.0565
  188DOPC  H13R23180   1.174   0.084   4.042 -2.0223 -0.3815 -0.8232
  188DOPC  H13S23181   1.253  -0.083   4.047  1.4431  1.7440  1.1241
  188DOPC  C21423182   1.044  -0.082   4.094  0.0030 -0.1437  0.0155
  188DOPC  H14R23183   1.032  -0.190   4.075  0.8012 -0.1400 -0.5645
  188DOPC  H14S23184   0.954  -0.033   4.051  0.3507  2.2501  1.7981
  188DOPC  C21523185   1.036  -0.050   4.249 -0.2077  0.2060 -0.5795
  188DOPC  H15R23186   0.957  -0.105   4.304  2.4527 -0.7790  2.5244
  188DOPC  H15S23187   1.010   0.058   4.254 -2.4908 -0.3609  1.2894
  188DOPC  C21623188   1.171  -0.080   4.317 -0.0497 -0.0137 -0.6522
  188DOPC  H16R23189   1.251  -0.011   4.284 -1.2262  1.1958 -1.0949
  188DOPC  H16S23190   1.193  -0.184   4.283 -1.7157 -0.2781 -1.0079
  188DOPC  C21723191   1.163  -0.079   4.474  0.2247  0.9074 -0.0074
  188DOPC  H17R23192   1.078  -0.143   4.506 -0.0361  0.3622 -1.6796
  188DOPC  H17S23193   1.160   0.029   4.500 -0.3292  0.9644 -0.2880
  188DOPC  C21823194   1.291  -0.138   4.531 -0.0754 -0.9847 -0.3969
  188DOPC  H18R23195   1.298  -0.120   4.640  0.0885  0.3593 -0.6114
  188DOPC  H18S23196   1.374  -0.086   4.480 -2.7039  1.1770 -2.8213
  188DOPC  H18T23197   1.296  -0.248   4.514  0.3900 -1.1471  0.6854
  188DOPC   C3323198   0.618  -0.645   3.127  0.6574  0.0148  0.0964
  188DOPC   H3X23199   0.651  -0.750   3.143  0.7615  0.0959  0.4081
  188DOPC   H3Y23200   0.507  -0.643   3.133  0.6769 -0.5427  0.7318
  188DOPC   C3423201   0.686  -0.569   3.242 -0.2759  0.0656  0.3770
  188DOPC   H4X23202   0.797  -0.575   3.240  0.0165  1.4152  4.0325
  188DOPC   H4Y23203   0.653  -0.611   3.339 -2.4990  2.1315  0.6077
  188DOPC   C3523204   0.666  -0.417   3.241  0.1735 -0.4832 -0.4439
  188DOPC   H5X23205   0.556  -0.403   3.241  0.1856  0.1007  2.0343
  188DOPC   H5Y23206   0.705  -0.368   3.149 -2.4037  2.3576 -0.1987
  188DOPC   C3623207   0.721  -0.355   3.368 -0.7251 -0.0584 -0.5766
  188DOPC   H6X23208   0.670  -0.258   3.385 -1.3095 -0.2779 -1.0630
  188DOPC   H6Y23209   0.703  -0.412   3.462 -0.9476  2.0595  0.7204
  188DOPC   C3723210   0.878  -0.333   3.363 -0.8455  0.2517  0.0370
  188DOPC   H7X23211   0.927  -0.418   3.311 -0.7185  0.5459 -0.3309
  188DOPC   H7Y23212   0.897  -0.250   3.291 -0.4804 -2.0195 -2.6431
  188DOPC   C3823213   0.956  -0.308   3.499  0.3496  0.0214 -0.3730
  188DOPC   H8X23214   1.062  -0.295   3.468  0.2523 -0.5552 -0.9630
  188DOPC   H8Y23215   0.955  -0.402   3.557 -1.5162 -1.1584 -2.1599
  188DOPC   C3923216   0.902  -0.191   3.586 -0.2350 -0.0201 -0.4654
  188DOPC   H9X23217   0.931  -0.091   3.550 -0.1428 -0.1285 -0.6929
  188DOPC  C31023218   0.813  -0.209   3.684  0.5554  0.0371  0.4070
  188DOPC  H10X23219   0.794  -0.121   3.747 -0.2647  0.1358  0.0366
  188DOPC  C31123220   0.765  -0.339   3.743 -0.3752  0.3188 -0.0829
  188DOPC  H11X23221   0.780  -0.425   3.675 -0.1119  1.2201 -1.1964
  188DOPC  H11Y23222   0.654  -0.336   3.743 -0.4196 -0.3576  1.6263
  188DOPC  C31223223   0.826  -0.368   3.878 -0.5758  0.1515  0.1285
  188DOPC  H12X23224   0.782  -0.295   3.950  0.1773 -1.4363  2.2962
  188DOPC  H12Y23225   0.934  -0.341   3.875 -0.1796 -1.0961 -4.1402
  188DOPC  C31323226   0.789  -0.501   3.948 -0.3246  0.0286 -0.5280
  188DOPC  H13X23227   0.832  -0.504   4.050 -0.5660 -0.7662 -0.4435
  188DOPC  H13Y23228   0.678  -0.498   3.958 -0.3598 -0.4933 -0.7428
  188DOPC  C31423229   0.837  -0.622   3.864  0.9221  0.4929  0.5525
  188DOPC  H14X23230   0.821  -0.612   3.755  2.4888  0.6740  0.3236
  188DOPC  H14Y23231   0.947  -0.621   3.880  0.9949  0.0346  0.1021
  188DOPC  C31523232   0.775  -0.750   3.927 -0.2131 -0.7457  0.2606
  188DOPC  H15X23233   0.666  -0.745   3.910  0.1200  1.0416 -1.7902
  188DOPC  H15Y23234   0.799  -0.752   4.035  2.2481 -1.3847 -0.2216
  188DOPC  C31623235   0.834  -0.875   3.865 -0.4293  0.5344 -0.2545
  188DOPC  H16X23236   0.783  -0.962   3.910  0.4953  0.4064  0.5958
  188DOPC  H16Y23237   0.816  -0.872   3.755 -0.8128  2.9448 -0.1754
  188DOPC  C31723238   0.989  -0.888   3.879 -0.0449  0.3429 -0.6204
  188DOPC  H17X23239   1.034  -0.795   3.838 -0.3351  1.2208  0.9722
  188DOPC  H17Y23240   1.015  -0.900   3.987  1.2298 -0.1037 -0.9498
  188DOPC  C31823241   1.048  -1.010   3.810 -0.3109 -0.3893 -0.3940
  188DOPC  H18X23242   0.994  -1.106   3.826  1.1130 -1.0098  0.8748
  188DOPC  H18Y23243   1.065  -0.987   3.703 -0.5853  0.5937 -0.2391
  188DOPC  H18Z23244   1.150  -1.040   3.842  0.4588 -0.8090 -2.9855
  189DOPC     N23245   3.651   0.240   2.398 -0.1927 -0.6696 -0.0023
  189DOPC   C1223246   3.569   0.230   2.528  0.7827 -0.3618  0.7737
  189DOPC  H12A23247   3.534   0.330   2.547  0.5357 -0.1127 -0.8412
  189DOPC  H12B23248   3.639   0.211   2.608  2.6505  1.0635 -0.4347
  189DOPC   C1323249   3.702   0.108   2.368 -0.0387  0.6429  0.3605
  189DOPC  H13A23250   3.760   0.107   2.277 -0.9022 -0.7298 -0.1973
  189DOPC  H13B23251   3.750   0.062   2.453 -3.1681 -0.5375  1.6283
  189DOPC  H13C23252   3.614   0.049   2.349  0.3365 -0.0505  0.7278
  189DOPC   C1423253   3.757   0.336   2.401  0.7176 -0.5606  0.3664
  189DOPC  H14A23254   3.835   0.305   2.468  1.0243 -1.6402 -0.4620
  189DOPC  H14B23255   3.813   0.349   2.309 -0.7442 -2.0288 -0.8114
  189DOPC  H14C23256   3.729   0.435   2.435 -0.5711 -0.6228 -0.4452
  189DOPC   C1523257   3.569   0.287   2.285  0.6158  0.2577  0.7382
  189DOPC  H15A23258   3.611   0.287   2.186  0.2661  2.3352  0.5609
  189DOPC  H15B23259   3.547   0.392   2.293  0.1795  0.3513 -1.2547
  189DOPC  H15C23260   3.476   0.231   2.283 -0.1303  1.2470  3.2697
  189DOPC   C1123261   3.448   0.125   2.544  0.0149 -0.1768  0.8872
  189DOPC  H11A23262   3.491   0.022   2.541  0.2157 -0.0809  0.3567
  189DOPC  H11B23263   3.403   0.146   2.643  2.5839  3.5742  1.4558
  189DOPC     P23264   3.204   0.135   2.444 -0.3856 -0.3371  0.0103
  189DOPC   O1323265   3.166   0.008   2.514 -0.9092  0.3219 -0.6045
  189DOPC   O1423266   3.146   0.162   2.312 -0.0263  0.5067 -0.3786
  189DOPC   O1223267   3.359   0.137   2.436 -0.9409  0.1808  0.4495
  189DOPC   O1123268   3.162   0.256   2.529 -0.2160 -0.3248 -0.6617
  189DOPC    C123269   3.032   0.279   2.580 -0.2308 -0.0187 -0.2732
  189DOPC    HA23270   2.965   0.195   2.552 -1.4594  0.4981  1.0212
  189DOPC    HB23271   2.995   0.376   2.541  0.3170  0.2329 -0.1693
  189DOPC    C223272   3.024   0.302   2.734 -0.2982 -0.1862  0.7432
  189DOPC    HS23273   2.919   0.298   2.770  0.1317 -1.2955  1.9152
  189DOPC   O2123274   3.079   0.430   2.769 -0.1180  0.1469  0.5006
  189DOPC   C2123275   3.019   0.535   2.748  0.5620 -0.0689 -0.2399
  189DOPC   O2223276   2.905   0.552   2.705  0.4637 -0.4976  0.0166
  189DOPC   C2223277   3.102   0.648   2.809 -0.4009 -0.0024 -0.0093
  189DOPC   H2R23278   3.053   0.745   2.786 -1.3220 -0.8201 -1.6755
  189DOPC   H2S23279   3.184   0.649   2.734  0.3855 -0.8105  0.8018
  189DOPC    C323280   3.112   0.187   2.800 -0.4591 -0.0662  0.6746
  189DOPC    HX23281   3.214   0.205   2.759  0.5057 -1.0470  2.5033
  189DOPC    HY23282   3.072   0.091   2.762  2.5483 -1.1595 -0.0139
  189DOPC   O3123283   3.102   0.193   2.943  0.4125 -0.0844 -0.5923
  189DOPC   C3123284   3.204   0.240   3.011  0.6417 -0.6915 -0.1320
  189DOPC   O3223285   3.305   0.289   2.964  0.0946  0.1451  0.5316
  189DOPC   C3223286   3.169   0.227   3.157 -0.1074  0.0686 -0.1421
  189DOPC   H2X23287   3.102   0.311   3.183  3.2120  2.4528  1.4885
  189DOPC   H2Y23288   3.114   0.131   3.166  0.9731 -0.4541  1.4964
  189DOPC   C2323289   3.153   0.631   2.956  0.5603  1.4601  0.2689
  189DOPC   H3R23290   3.193   0.726   2.996 -0.1326  2.2087 -0.7517
  189DOPC   H3S23291   3.239   0.561   2.963  0.8372  1.5312 -1.7813
  189DOPC   C2423292   3.039   0.578   3.047 -0.5890 -0.2603  0.7906
  189DOPC   H4R23293   3.074   0.558   3.151 -0.0423  0.2337  0.7047
  189DOPC   H4S23294   3.004   0.477   3.016 -0.9048 -0.2766  1.1865
  189DOPC   C2523295   2.928   0.679   3.055 -0.1926  0.4759 -0.6070
  189DOPC   H5R23296   2.842   0.639   3.112  1.6405 -2.0166  0.5563
  189DOPC   H5S23297   2.896   0.696   2.950 -0.0029  0.7601 -0.6198
  189DOPC   C2623298   2.967   0.814   3.112  0.4292 -0.8807 -0.4932
  189DOPC   H6R23299   3.010   0.880   3.034  0.7932  1.0802  1.2678
  189DOPC   H6S23300   3.042   0.805   3.193  0.0548 -0.9067 -0.1477
  189DOPC   C2723301   2.847   0.885   3.173  0.1017  0.4482 -0.0624
  189DOPC   H7R23302   2.755   0.891   3.111 -0.3142 -1.2264  0.3339
  189DOPC   H7S23303   2.875   0.992   3.182  0.0198  0.4666 -0.0305
  189DOPC   C2823304   2.786   0.821   3.297  0.2021 -0.2946 -0.3300
  189DOPC   H8R23305   2.767   0.714   3.272 -0.7137 -0.0036 -0.9397
  189DOPC   H8S23306   2.691   0.873   3.321 -0.9372 -2.5016  0.3056
  189DOPC   C2923307   2.875   0.839   3.419  0.2787 -0.5631 -0.2047
  189DOPC   H9R23308   2.867   0.937   3.468  0.7461 -1.2621  1.3378
  189DOPC  C21023309   2.946   0.744   3.484  0.2574  0.1159 -0.2077
  189DOPC  H10R23310   3.019   0.785   3.555  2.0530 -1.2045 -1.1925
  189DOPC  C21123311   2.946   0.594   3.466  0.5427  0.6147  0.1176
  189DOPC  H11R23312   3.043   0.551   3.434 -0.0763 -0.1846 -0.7520
  189DOPC  H11S23313   2.877   0.563   3.385 -0.8763  3.2571  0.1988
  189DOPC  C21223314   2.889   0.522   3.591 -0.5204  0.1197 -0.1641
  189DOPC  H12R23315   2.867   0.415   3.570  1.6156 -0.4376  0.1408
  189DOPC  H12S23316   2.799   0.572   3.632  0.8669  2.4335  0.1892
  189DOPC  C21323317   2.993   0.508   3.706  0.2419  0.5157 -0.4207
  189DOPC  H13R23318   3.093   0.467   3.682 -0.0887 -2.1424  2.1705
  189DOPC  H13S23319   2.941   0.436   3.773 -2.6894  1.7273 -1.2106
  189DOPC  C21423320   3.006   0.637   3.785  0.2420 -0.7930 -0.0744
  189DOPC  H14R23321   2.907   0.688   3.783 -0.2371 -1.6703  0.3710
  189DOPC  H14S23322   3.085   0.693   3.731 -0.4511  0.1797 -0.0973
  189DOPC  C21523323   3.054   0.631   3.936 -0.1726 -0.1320  1.0777
  189DOPC  H15R23324   3.142   0.563   3.928 -0.6720 -0.5642 -3.1768
  189DOPC  H15S23325   2.974   0.591   4.001 -2.4845  0.0391 -1.4806
  189DOPC  C21623326   3.102   0.768   3.982 -0.2994 -0.0955 -0.8222
  189DOPC  H16R23327   3.204   0.788   3.941 -0.1675 -0.1820 -0.5419
  189DOPC  H16S23328   3.104   0.763   4.093  1.0477  0.0665 -0.8210
  189DOPC  C21723329   3.009   0.886   3.951  0.3472  0.0982  0.0513
  189DOPC  H17R23330   3.004   0.901   3.841  0.3796 -1.2355 -0.1500
  189DOPC  H17S23331   3.048   0.978   4.000 -1.4073  0.5807  0.5878
  189DOPC  C21823332   2.870   0.883   4.006 -0.3499 -0.1349 -0.1987
  189DOPC  H18R23333   2.881   0.858   4.114 -1.5763  0.7634  0.1585
  189DOPC  H18S23334   2.809   0.802   3.962 -2.6404  0.8234  1.0468
  189DOPC  H18T23335   2.823   0.982   3.992 -0.4756 -0.4485 -2.3074
  189DOPC   C3323336   3.289   0.232   3.255 -0.0950 -0.7388  0.4747
  189DOPC   H3X23337   3.326   0.332   3.284 -0.4414  0.0410 -1.6206
  189DOPC   H3Y23338   3.368   0.172   3.205 -1.0229 -1.0709 -0.6177
  189DOPC   C3423339   3.247   0.161   3.383 -0.1104 -0.1550  0.0937
  189DOPC   H4X23340   3.329   0.179   3.456 -0.4265 -1.0806  0.6945
  189DOPC   H4Y23341   3.227   0.054   3.362 -1.5879 -0.0133  0.6510
  189DOPC   C3523342   3.125   0.220   3.438  0.6070 -0.5245 -0.2716
  189DOPC   H5X23343   3.043   0.232   3.365 -0.1600 -0.2424  0.6185
  189DOPC   H5Y23344   3.136   0.325   3.473 -0.3250 -0.9515  1.4024
  189DOPC   C3623345   3.065   0.140   3.557  0.1098 -0.2531 -0.3651
  189DOPC   H6X23346   3.142   0.124   3.635 -1.0865 -1.7988  0.5608
  189DOPC   H6Y23347   2.981   0.202   3.596  0.5403  1.0381 -1.3991
  189DOPC   C3723348   3.003   0.000   3.508  0.4886 -0.2456 -0.7254
  189DOPC   H7X23349   2.940   0.019   3.419 -3.1532 -0.2341  1.6493
  189DOPC   H7Y23350   3.078  -0.067   3.461  0.5531 -1.2033  0.6968
  189DOPC   C3823351   2.926  -0.092   3.606  1.0378  0.3321 -0.3582
  189DOPC   H8X23352   2.897  -0.184   3.550 -1.2626  0.1118  1.0533
  189DOPC   H8Y23353   2.840  -0.026   3.630  0.9705  1.0690 -2.4332
  189DOPC   C3923354   3.006  -0.141   3.725 -0.4006 -1.0441  0.6459
  189DOPC   H9X23355   3.079  -0.217   3.693  0.5253 -0.2418  0.8064
  189DOPC  C31023356   3.006  -0.101   3.849 -0.5178  0.3105 -0.9443
  189DOPC  H10X23357   3.077  -0.143   3.922 -2.4026  0.1341  0.8709
  189DOPC  C31123358   2.916   0.002   3.908 -0.4174 -0.1674 -0.2375
  189DOPC  H11X23359   2.887  -0.038   4.008 -1.3169  1.5559  0.2400
  189DOPC  H11Y23360   2.822   0.016   3.850 -0.6312  0.1082  0.1627
  189DOPC  C31223361   2.976   0.143   3.935  0.7702 -0.1086  0.3385
  189DOPC  H12X23362   2.894   0.208   3.972 -0.6301 -1.6615  0.1045
  189DOPC  H12Y23363   3.005   0.181   3.834  1.2797  2.1481  1.2708
  189DOPC  C31323364   3.095   0.155   4.029 -0.0389 -0.3104 -0.3419
  189DOPC  H13X23365   3.179   0.088   4.003 -1.8736 -3.0235  0.2697
  189DOPC  H13Y23366   3.134   0.259   4.019 -2.2249  0.4311 -1.8974
  189DOPC  C31423367   3.051   0.133   4.172 -0.1761  0.0253 -0.1458
  189DOPC  H14X23368   2.966   0.200   4.196 -0.3685  0.2712 -1.4313
  189DOPC  H14Y23369   3.017   0.027   4.175  1.3629 -0.4900 -0.1719
  189DOPC  C31523370   3.165   0.134   4.273  0.2977 -0.2146  0.1312
  189DOPC  H15X23371   3.213   0.233   4.283 -0.5752  0.4899 -2.0507
  189DOPC  H15Y23372   3.248   0.076   4.227  0.9784  1.0163 -0.2205
  189DOPC  C31623373   3.130   0.072   4.405 -0.1209 -0.2054 -0.4682
  189DOPC  H16X23374   3.039   0.131   4.427 -0.1712  0.3240 -1.9611
  189DOPC  H16Y23375   3.096  -0.032   4.388  0.1823 -0.3834 -0.0192
  189DOPC  C31723376   3.243   0.095   4.505  0.1221 -0.4725  0.1624
  189DOPC  H17X23377   3.336   0.043   4.474  0.4420 -0.0674  0.4390
  189DOPC  H17Y23378   3.258   0.205   4.500 -0.6430 -0.2279  2.1726
  189DOPC  C31823379   3.210   0.047   4.645  0.1528 -0.4385  0.1213
  189DOPC  H18X23380   3.271   0.110   4.714  0.1105  0.4824 -0.6704
  189DOPC  H18Y23381   3.104   0.069   4.666 -0.6430 -2.1277 -1.8136
  189DOPC  H18Z23382   3.222  -0.062   4.665  1.7140 -0.3427 -0.1609
  190DOPC     N23383   1.423   6.243   2.601 -0.2668  0.1744  0.0502
  190DOPC   C1223384   1.331   6.350   2.544 -0.4462 -0.1128  0.5625
  190DOPC  H12A23385   1.238   6.307   2.510 -0.9010  0.1834  1.4065
  190DOPC  H12B23386   1.387   6.391   2.461  1.9159 -2.7284  0.7045
  190DOPC   C1323387   1.406   6.115   2.523  0.1079 -0.4968 -0.3697
  190DOPC  H13A23388   1.313   6.067   2.550 -0.1335  0.7664  1.1827
  190DOPC  H13B23389   1.414   6.133   2.417  1.1130  0.3631 -0.1651
  190DOPC  H13C23390   1.491   6.049   2.521  0.4692 -0.0358 -0.3508
  190DOPC   C1423391   1.399   6.219   2.748  0.5812  0.6775  0.1152
  190DOPC  H14A23392   1.403   6.313   2.800  0.7163  0.9107 -0.3140
  190DOPC  H14B23393   1.303   6.168   2.755  0.3044 -0.2436 -5.3038
  190DOPC  H14C23394   1.479   6.155   2.781  0.3631  0.3545  0.0310
  190DOPC   C1523395   1.569   6.284   2.581 -0.4504 -0.5771 -0.0553
  190DOPC  H15A23396   1.584   6.378   2.632 -1.0692 -0.0455 -0.8497
  190DOPC  H15B23397   1.600   6.293   2.478 -0.2083 -1.0989 -0.0306
  190DOPC  H15C23398   1.633   6.207   2.623 -1.5121 -0.9929  0.8356
  190DOPC   C1123399   1.309   6.474   2.631 -0.0804 -0.2642  0.4866
  190DOPC  H11A23400   1.229   6.531   2.580  0.2579 -0.2495 -0.0291
  190DOPC  H11B23401   1.270   6.459   2.734 -2.0740  1.0253 -0.0240
  190DOPC     P23402   1.432   6.703   2.664 -0.2003  0.0115  0.3997
  190DOPC   O1323403   1.342   6.764   2.562  0.0080 -0.1488 -0.0370
  190DOPC   O1423404   1.574   6.744   2.668  0.3108  0.0347  0.4254
  190DOPC   O1223405   1.432   6.547   2.637  0.5099  0.1733 -0.2410
  190DOPC   O1123406   1.361   6.714   2.803 -0.2307  0.1112  0.1063
  190DOPC    C123407   1.406   6.632   2.914 -0.1275  0.2003  0.1656
  190DOPC    HA23408   1.486   6.558   2.890 -0.5551  0.0335 -0.7963
  190DOPC    HB23409   1.319   6.566   2.932  0.4478 -0.6069  0.0589
  190DOPC    C223410   1.445   6.719   3.037  0.0097  0.7385  0.7227
  190DOPC    HS23411   1.491   6.651   3.112  2.0364 -2.0153 -2.7192
  190DOPC   O2123412   1.328   6.786   3.088 -0.0085 -0.1550  0.3306
  190DOPC   C2123413   1.264   6.714   3.179  0.1093 -0.2365  0.4878
  190DOPC   O2223414   1.307   6.617   3.236 -0.0345 -0.4184 -0.2862
  190DOPC   C2223415   1.124   6.778   3.199 -0.3532 -0.4739 -0.4339
  190DOPC   H2R23416   1.059   6.737   3.119  0.4624 -1.6154 -0.5376
  190DOPC   H2S23417   1.136   6.887   3.177  0.9534 -0.6549 -0.7405
  190DOPC    C323418   1.552   6.820   2.994 -0.1316 -0.2682  0.5559
  190DOPC    HX23419   1.502   6.895   2.928 -0.6729 -1.2956 -0.2462
  190DOPC    HY23420   1.625   6.754   2.943 -1.0073  0.2378 -1.4621
  190DOPC   O3123421   1.618   6.888   3.099  0.5753  0.0809  0.0561
  190DOPC   C3123422   1.746   6.909   3.099  0.5757  0.1501  0.5203
  190DOPC   O3223423   1.826   6.868   3.017  0.1382 -0.6734 -0.3796
  190DOPC   C3223424   1.799   6.975   3.232 -0.0023 -0.0225  0.5688
  190DOPC   H2X23425   1.717   6.972   3.306 -0.3358 -0.9311  0.1854
  190DOPC   H2Y23426   1.871   6.898   3.266 -1.0216 -1.1089  0.3523
  190DOPC   C2323427   1.072   6.783   3.343 -0.5474  0.8648  0.7887
  190DOPC   H3R23428   1.136   6.855   3.398  0.6783  1.1485 -0.9426
  190DOPC   H3S23429   1.082   6.681   3.385 -0.7636  0.6643  0.3601
  190DOPC   C2423430   0.922   6.818   3.338 -0.3610  0.0113  0.3842
  190DOPC   H4R23431   0.879   6.736   3.278  0.1415  0.6997 -0.9520
  190DOPC   H4S23432   0.909   6.911   3.279  0.9408  0.0445  0.1189
  190DOPC   C2523433   0.863   6.823   3.477  0.7172 -0.3374  0.4897
  190DOPC   H5R23434   0.900   6.923   3.510 -2.6623  0.7845  1.3140
  190DOPC   H5S23435   0.903   6.748   3.548 -0.1519 -0.3875  0.9386
  190DOPC   C2623436   0.707   6.817   3.469 -0.1046 -0.0435 -0.6855
  190DOPC   H6R23437   0.671   6.715   3.495  3.2069 -0.7308  1.9952
  190DOPC   H6S23438   0.674   6.857   3.371  0.2113  1.3518 -0.2398
  190DOPC   C2723439   0.644   6.924   3.560 -0.1233 -0.4034 -0.4032
  190DOPC   H7R23440   0.699   7.021   3.565 -2.1913  0.8450 -0.8840
  190DOPC   H7S23441   0.638   6.888   3.665 -2.9895 -1.4055 -0.8129
  190DOPC   C2823442   0.497   6.955   3.518  0.0151  0.0819 -0.1015
  190DOPC   H8R23443   0.442   6.864   3.551  0.0949 -0.4240 -1.3235
  190DOPC   H8S23444   0.485   6.959   3.408  0.7543 -1.3117 -0.2510
  190DOPC   C2923445   0.445   7.079   3.581  1.1782  0.6343 -0.5104
  190DOPC   H9R23446   0.485   7.175   3.546 -1.7958  2.7435  1.3773
  190DOPC  C21023447   0.338   7.079   3.672  0.0056  0.4622  0.6329
  190DOPC  H10R23448   0.303   7.170   3.723 -0.1823  1.4082 -1.1073
  190DOPC  C21123449   0.259   6.964   3.723 -0.6648 -0.3428  0.3831
  190DOPC  H11R23450   0.240   6.884   3.649  1.0707  1.6520 -2.4155
  190DOPC  H11S23451   0.164   7.005   3.763 -1.3933  0.0627 -1.6289
  190DOPC  C21223452   0.336   6.903   3.837 -0.6004 -0.3951 -0.1603
  190DOPC  H12R23453   0.435   6.861   3.807 -0.2132 -0.8954  1.6548
  190DOPC  H12S23454   0.281   6.813   3.873  1.7032 -1.7044  0.2949
  190DOPC  C21323455   0.354   6.993   3.960 -0.0036 -0.0492  0.7610
  190DOPC  H13R23456   0.255   7.041   3.979 -1.0034 -2.4460  2.0898
  190DOPC  H13S23457   0.426   7.074   3.937 -1.2633  0.8473 -0.2008
  190DOPC  C21423458   0.397   6.916   4.085 -0.0545 -0.4139 -0.6323
  190DOPC  H14R23459   0.460   6.828   4.061  1.6959  0.3803  0.7756
  190DOPC  H14S23460   0.314   6.871   4.143  0.2871  0.8018  0.8809
  190DOPC  C21523461   0.475   7.003   4.184 -0.5780  0.0284 -0.3310
  190DOPC  H15R23462   0.409   7.092   4.195 -0.8284 -0.1769 -0.1789
  190DOPC  H15S23463   0.570   7.040   4.139 -0.2733  1.1334  1.1636
  190DOPC  C21623464   0.520   6.935   4.317  0.3825  0.2867  0.1918
  190DOPC  H16R23465   0.562   6.836   4.291  0.9457  0.7391 -0.6912
  190DOPC  H16S23466   0.433   6.897   4.374  0.1019 -0.0991 -0.4800
  190DOPC  C21723467   0.604   7.021   4.413 -0.4969 -0.2679  0.6863
  190DOPC  H17R23468   0.690   7.053   4.350  0.6436 -0.8339  1.8890
  190DOPC  H17S23469   0.638   6.956   4.497  0.8381 -0.5712 -0.0548
  190DOPC  C21823470   0.553   7.154   4.464 -0.3574  0.1229  0.4200
  190DOPC  H18R23471   0.633   7.218   4.507 -0.4784  1.2631 -0.9446
  190DOPC  H18S23472   0.484   7.136   4.549 -0.5742  3.0853  0.9976
  190DOPC  H18T23473   0.496   7.210   4.387 -3.1971 -0.0186  2.2823
  190DOPC   C3323474   1.883   7.107   3.215  0.1504  0.6116  0.1942
  190DOPC   H3X23475   1.821   7.182   3.162 -1.0341  0.9626  1.9892
  190DOPC   H3Y23476   1.969   7.076   3.151 -1.9846 -1.1855 -2.0376
  190DOPC   C3423477   1.932   7.171   3.342  0.8237 -0.0195  0.2430
  190DOPC   H4X23478   1.847   7.211   3.401  1.2018 -3.1704  3.1814
  190DOPC   H4Y23479   1.996   7.252   3.301 -0.0955 -0.7298 -2.8927
  190DOPC   C3523480   2.013   7.087   3.440  0.0651 -0.3923 -0.1488
  190DOPC   H5X23481   2.103   7.043   3.392 -0.4170 -1.0512 -0.4611
  190DOPC   H5Y23482   1.951   6.998   3.462  1.2454 -1.0048  0.8148
  190DOPC   C3623483   2.040   7.146   3.582  0.5988  0.2785  0.1895
  190DOPC   H6X23484   2.106   7.072   3.631  0.5799 -0.1970 -0.4828
  190DOPC   H6Y23485   2.089   7.246   3.580  1.3357 -0.0866 -0.2795
  190DOPC   C3723486   1.913   7.157   3.664  0.3735  0.1898 -0.4328
  190DOPC   H7X23487   1.829   7.206   3.611 -0.3510 -0.3223  0.2052
  190DOPC   H7Y23488   1.873   7.054   3.680 -1.6057  1.1243  1.0838
  190DOPC   C3823489   1.931   7.238   3.799  0.2866 -0.9556  0.2334
  190DOPC   H8X23490   1.835   7.245   3.854  1.1818  0.6926  1.7003
  190DOPC   H8Y23491   1.966   7.340   3.774 -2.2461 -0.6217 -2.6218
  190DOPC   C3923492   2.041   7.170   3.879  0.4391  0.3010  0.6280
  190DOPC   H9X23493   2.142   7.198   3.846  0.5804  0.2102  0.9872
  190DOPC  C31023494   2.023   7.086   3.981  0.3425 -0.1718  0.5792
  190DOPC  H10X23495   2.112   7.039   4.025  1.0422  0.5972  0.0161
  190DOPC  C31123496   1.904   7.047   4.047  0.7049  0.0897 -0.6177
  190DOPC  H11X23497   1.879   6.943   4.014  0.9384 -0.1724  0.0099
  190DOPC  H11Y23498   1.821   7.121   4.042  0.6465  0.3309  2.2752
  190DOPC  C31223499   1.928   7.048   4.205  0.1010  0.2638  0.4643
  190DOPC  H12X23500   1.961   7.148   4.239 -0.1727  0.6318 -0.3307
  190DOPC  H12Y23501   2.016   6.982   4.223 -0.6580 -1.9374 -2.8229
  190DOPC  C31323502   1.804   7.001   4.276  0.2708  0.5337 -0.9219
  190DOPC  H13X23503   1.731   7.084   4.288 -2.0283 -1.4971  0.0496
  190DOPC  H13Y23504   1.744   6.923   4.224 -1.2360  1.2332 -0.2900
  190DOPC  C31423505   1.855   6.962   4.413  0.2270  0.1993  0.3406
  190DOPC  H14X23506   1.915   6.868   4.411  0.6656  0.4126 -3.2395
  190DOPC  H14Y23507   1.914   7.045   4.458 -2.0274  1.1021  1.8274
  190DOPC  C31523508   1.741   6.948   4.519  0.4695 -0.0916 -0.3261
  190DOPC  H15X23509   1.680   6.861   4.487 -0.3491 -0.1403  1.2957
  190DOPC  H15Y23510   1.679   7.040   4.523  3.7114  2.3110 -1.4473
  190DOPC  C31623511   1.789   6.915   4.662 -0.2623  0.3633 -0.0707
  190DOPC  H16X23512   1.843   6.818   4.661  0.6678  0.8460  0.9107
  190DOPC  H16Y23513   1.865   6.992   4.687 -1.0684  1.4019 -0.7236
  190DOPC  C31723514   1.667   6.901   4.755  0.3390 -0.0547  0.0384
  190DOPC  H17X23515   1.603   6.992   4.753  0.2485 -0.1196 -0.0166
  190DOPC  H17Y23516   1.598   6.817   4.732 -0.9804  0.8702  0.4770
  190DOPC  C31823517   1.724   6.882   4.894 -0.4306 -0.1755 -0.3341
  190DOPC  H18X23518   1.655   6.848   4.975  0.5777 -0.3697  0.4722
  190DOPC  H18Y23519   1.804   6.805   4.892 -0.2688 -0.0729  0.9592
  190DOPC  H18Z23520   1.774   6.978   4.918  0.8196 -1.5494  3.3247
  191DOPC     N23521   4.258   0.181   2.893 -0.3723  0.0012  0.4535
  191DOPC   C1223522   4.230   0.277   3.003  1.4841  0.0806  0.7195
  191DOPC  H12A23523   4.321   0.286   3.061  0.4442 -0.9900  2.5801
  191DOPC  H12B23524   4.155   0.227   3.061  0.8859  0.2263  0.0825
  191DOPC   C1323525   4.385   0.216   2.832  0.4153 -0.2947 -0.6507
  191DOPC  H13A23526   4.383   0.179   2.731 -0.7583  0.3617 -0.8924
  191DOPC  H13B23527   4.394   0.324   2.827 -1.2553 -0.1751 -2.1544
  191DOPC  H13C23528   4.462   0.165   2.887 -1.3291 -0.0936  2.1694
  191DOPC   C1423529   4.152   0.190   2.786  0.5728 -0.2668 -0.2812
  191DOPC  H14A23530   4.054   0.190   2.832  0.1505 -0.1642 -1.1679
  191DOPC  H14B23531   4.158   0.280   2.726 -1.4643 -0.5537 -0.9722
  191DOPC  H14C23532   4.153   0.104   2.721  3.4499  0.1702 -0.9775
  191DOPC   C1523533   4.269   0.037   2.940 -0.3564 -0.6547 -0.1018
  191DOPC  H15A23534   4.269  -0.030   2.856 -0.8300  0.1798 -0.7820
  191DOPC  H15B23535   4.181   0.016   2.999 -0.0852 -3.3962 -0.5644
  191DOPC  H15C23536   4.354   0.017   3.003  0.1481 -2.0852 -1.1921
  191DOPC   C1123537   4.174   0.417   2.970 -0.2074  0.7799 -0.1581
  191DOPC  H11A23538   4.094   0.407   2.893  1.5552 -3.5059 -1.7647
  191DOPC  H11B23539   4.136   0.459   3.066  0.3555  2.0778 -0.4808
  191DOPC     P23540   4.262   0.602   2.809 -0.0132  0.6438  0.1065
  191DOPC   O1323541   4.175   0.532   2.708  0.0723  0.3745 -0.2559
  191DOPC   O1423542   4.401   0.628   2.768  0.1932 -0.3157  0.6113
  191DOPC   O1223543   4.281   0.503   2.932  0.6082  0.3225 -0.4846
  191DOPC   O1123544   4.191   0.732   2.871  0.6367  0.3758  0.0240
  191DOPC    C123545   4.265   0.816   2.962  0.2069 -0.3593 -0.2543
  191DOPC    HA23546   4.232   0.921   2.943  2.0335  0.3489  0.2560
  191DOPC    HB23547   4.375   0.815   2.946  0.1491  1.0317 -0.9322
  191DOPC    C223548   4.239   0.779   3.116 -0.6731  0.4536 -0.3236
  191DOPC    HS23549   4.270   0.673   3.131 -1.1695  0.3336 -0.1132
  191DOPC   O2123550   4.093   0.782   3.148 -0.9946 -0.3697 -0.2144
  191DOPC   C2123551   4.054   0.717   3.253 -0.2632  0.2747  0.1078
  191DOPC   O2223552   4.132   0.649   3.319  0.0397  0.0153 -0.5500
  191DOPC   C2223553   3.905   0.745   3.288 -0.1295  0.1474  0.7381
  191DOPC   H2R23554   3.839   0.659   3.265 -1.0980  1.0860 -0.0608
  191DOPC   H2S23555   3.887   0.833   3.223 -0.7269 -1.0892 -0.8363
  191DOPC    C323556   4.326   0.876   3.213  1.0401 -0.3337 -0.1975
  191DOPC    HX23557   4.308   0.977   3.170  1.4863  0.0408  0.4703
  191DOPC    HY23558   4.434   0.857   3.196  1.1953  0.2882  0.0568
  191DOPC   O3123559   4.300   0.890   3.353 -0.1654  0.4728  0.2437
  191DOPC   C3123560   4.365   0.800   3.433 -0.8376 -0.8644  0.4923
  191DOPC   O3223561   4.456   0.730   3.395 -0.5202  0.0428  0.5372
  191DOPC   C3223562   4.329   0.820   3.585  0.6963  0.0318 -0.0722
  191DOPC   H2X23563   4.399   0.897   3.624  1.9553 -1.0881 -0.0749
  191DOPC   H2Y23564   4.220   0.842   3.588  1.0145  1.6322  1.1776
  191DOPC   C2323565   3.881   0.778   3.437 -0.0720 -0.4647 -0.0949
  191DOPC   H3R23566   3.954   0.729   3.505  2.0403  2.2716 -0.1787
  191DOPC   H3S23567   3.776   0.748   3.459 -0.1960 -0.1231 -0.2055
  191DOPC   C2423568   3.893   0.923   3.460  0.1653 -0.0138  0.9903
  191DOPC   H4R23569   3.828   0.978   3.389 -0.6684 -0.8164  1.1146
  191DOPC   H4S23570   3.994   0.955   3.426 -0.1961  0.1505  0.0448
  191DOPC   C2523571   3.863   0.974   3.600  0.4696  0.6932  0.1233
  191DOPC   H5R23572   3.756   0.950   3.614  0.8529 -0.2203  1.7702
  191DOPC   H5S23573   3.888   1.082   3.594 -2.5440  1.4333 -0.2184
  191DOPC   C2623574   3.936   0.900   3.713 -0.3289  0.5010  0.6403
  191DOPC   H6R23575   4.045   0.905   3.690 -0.4011 -1.2623 -0.2361
  191DOPC   H6S23576   3.914   0.791   3.709 -0.6161  0.5831 -0.0616
  191DOPC   C2723577   3.894   0.945   3.857 -0.2714  0.7473  0.3436
  191DOPC   H7R23578   3.784   0.932   3.853 -0.2103  0.5289 -1.3707
  191DOPC   H7S23579   3.934   1.049   3.860  0.1371  0.6099 -0.1203
  191DOPC   C2823580   3.975   0.862   3.963  0.3760  0.7202  0.1448
  191DOPC   H8R23581   4.084   0.874   3.945 -0.0815 -0.3147 -4.3263
  191DOPC   H8S23582   3.975   0.753   3.940 -0.9113  1.0310 -1.5358
  191DOPC   C2923583   3.925   0.903   4.099  0.0718  0.3922  0.6328
  191DOPC   H9R23584   3.989   0.977   4.149  0.7680  0.4143 -0.2829
  191DOPC  C21023585   3.819   0.848   4.167 -0.6537 -0.8734 -0.6645
  191DOPC  H10R23586   3.802   0.883   4.270  2.6221 -0.3706 -0.1955
  191DOPC  C21123587   3.727   0.736   4.110 -0.9019  0.6741  1.2384
  191DOPC  H11R23588   3.754   0.703   4.008 -0.0584  4.0668  0.2362
  191DOPC  H11S23589   3.624   0.776   4.100 -1.6467 -1.3820  0.1100
  191DOPC  C21223590   3.737   0.617   4.209  0.5216 -0.0099  0.3830
  191DOPC  H12R23591   3.696   0.662   4.302 -0.2800  1.1467 -0.4873
  191DOPC  H12S23592   3.842   0.587   4.228  1.4384  3.5324  1.8874
  191DOPC  C21323593   3.643   0.504   4.169  0.5755  0.4174  0.2882
  191DOPC  H13R23594   3.686   0.449   4.082  1.5273 -0.4423  1.2723
  191DOPC  H13S23595   3.545   0.550   4.146 -0.0204  0.3698  2.5782
  191DOPC  C21423596   3.628   0.392   4.275  0.7634 -0.6200  0.0230
  191DOPC  H14R23597   3.535   0.415   4.331  0.0582 -0.3099 -1.2269
  191DOPC  H14S23598   3.723   0.392   4.332  1.2585 -1.2189 -0.7823
  191DOPC  C21523599   3.600   0.248   4.219  0.4219 -0.1538  0.9003
  191DOPC  H15R23600   3.675   0.232   4.139 -1.2100  1.2898 -1.0497
  191DOPC  H15S23601   3.498   0.259   4.175  0.1249  2.4147  1.9989
  191DOPC  C21623602   3.588   0.150   4.333  0.1670  0.0135 -0.0907
  191DOPC  H16R23603   3.509   0.178   4.405  0.6772  0.6683  0.2332
  191DOPC  H16S23604   3.688   0.144   4.382  0.9460  0.1302 -1.5703
  191DOPC  C21723605   3.565  -0.000   4.289  0.2592 -0.8094  0.9496
  191DOPC  H17R23606   3.658  -0.020   4.232 -1.1252  2.7676 -3.1068
  191DOPC  H17S23607   3.477   0.002   4.221  0.6282 -0.2726  0.4793
  191DOPC  C21823608   3.562  -0.115   4.394 -0.3040  0.6480 -0.0835
  191DOPC  H18R23609   3.488  -0.084   4.470  0.0221  1.0293  0.0814
  191DOPC  H18S23610   3.659  -0.124   4.448 -1.1715  1.5630  1.6865
  191DOPC  H18T23611   3.540  -0.218   4.357 -1.0066  0.2959  1.2387
  191DOPC   C3323612   4.348   0.685   3.653 -0.6101  0.2484 -0.5332
  191DOPC   H3X23613   4.456   0.662   3.666 -0.6212  0.7708  0.5997
  191DOPC   H3Y23614   4.300   0.600   3.600 -2.0184  1.1675 -0.7779
  191DOPC   C3423615   4.301   0.690   3.796 -0.9471 -0.4004  0.0822
  191DOPC   H4X23616   4.292   0.586   3.836 -1.1756 -0.1570  0.6858
  191DOPC   H4Y23617   4.208   0.750   3.800  1.2687  3.2691  1.3980
  191DOPC   C3523618   4.398   0.763   3.890 -0.8062  0.1598  0.2799
  191DOPC   H5X23619   4.405   0.868   3.854 -0.9176 -0.4148 -1.5554
  191DOPC   H5Y23620   4.502   0.723   3.884 -0.4410  0.7651  2.0302
  191DOPC   C3623621   4.355   0.762   4.043 -0.6036 -1.0473  0.4105
  191DOPC   H6X23622   4.428   0.822   4.100 -0.3142 -0.3399 -0.6606
  191DOPC   H6Y23623   4.263   0.825   4.043  0.3774  0.6132 -2.4518
  191DOPC   C3723624   4.336   0.624   4.107  0.0236 -0.0757  0.5697
  191DOPC   H7X23625   4.251   0.571   4.058 -0.6114  1.5273 -0.1298
  191DOPC   H7Y23626   4.425   0.557   4.108 -0.6114 -0.9790  2.9029
  191DOPC   C3823627   4.291   0.626   4.254 -0.3016  0.0214 -0.0014
  191DOPC   H8X23628   4.380   0.668   4.306  0.2208 -1.3010  0.2100
  191DOPC   H8Y23629   4.265   0.520   4.273  0.7927 -0.8361 -2.8067
  191DOPC   C3923630   4.168   0.718   4.276 -0.5926  0.2526 -0.2235
  191DOPC   H9X23631   4.130   0.768   4.186 -0.8139 -0.9273 -0.8025
  191DOPC  C31023632   4.118   0.753   4.395 -0.1546  0.3454 -0.4516
  191DOPC  H10X23633   4.017   0.796   4.401 -0.7039 -0.9350 -0.1935
  191DOPC  C31123634   4.172   0.699   4.533  0.1302 -0.4745 -0.5601
  191DOPC  H11X23635   4.277   0.665   4.520  0.2524 -0.8727  1.1951
  191DOPC  H11Y23636   4.112   0.610   4.562 -1.1287  0.8722  1.1735
  191DOPC  C31223637   4.163   0.813   4.632 -0.1978  0.1570  0.8421
  191DOPC  H12X23638   4.057   0.836   4.654 -0.1283 -0.7003  2.1892
  191DOPC  H12Y23639   4.198   0.909   4.590 -0.4669 -0.0129  0.2169
  191DOPC  C31323640   4.229   0.786   4.767  0.5337  0.0477  0.8593
  191DOPC  H13X23641   4.336   0.778   4.741  0.2101  1.1995 -0.9710
  191DOPC  H13Y23642   4.232   0.870   4.841  1.0857 -0.5795  1.5619
  191DOPC  C31423643   4.171   0.667   4.841 -0.3695 -0.9675  0.3375
  191DOPC  H14X23644   4.174   0.576   4.777 -1.7121  0.0414 -1.2425
  191DOPC  H14Y23645   4.238   0.649   4.928 -0.6084 -1.6096  0.3918
  191DOPC  C31523646   4.029   0.698   4.890 -0.0220  0.5136 -0.1110
  191DOPC  H15X23647   3.967   0.722   4.801  0.8045 -0.7535 -1.0559
  191DOPC  H15Y23648   4.028   0.789   4.953  1.2546  1.0208 -0.7878
  191DOPC  C31623649   3.968   0.582   4.969  0.0160  0.6371  0.1866
  191DOPC  H16X23650   3.899   0.525   4.903 -0.4834  0.5417  0.7769
  191DOPC  H16Y23651   4.047   0.515   5.009  0.0244  1.5754  1.8516
  191DOPC  C31723652   3.884   0.621   5.091 -0.2174  0.1328 -0.0394
  191DOPC  H17X23653   3.950   0.640   5.178  1.8070 -2.2763 -0.9084
  191DOPC  H17Y23654   3.830   0.712   5.059  0.0186  0.9495  1.7789
  191DOPC  C31823655   3.789   0.511   5.132  0.1671 -0.6488 -0.1471
  191DOPC  H18X23656   3.725   0.480   5.047 -1.0566  0.4752  0.3291
  191DOPC  H18Y23657   3.846   0.427   5.177  0.7041 -0.3937 -0.3362
  191DOPC  H18Z23658   3.719   0.543   5.212 -0.3514  0.9628 -1.1960
  192DOPC     N23659   6.206   4.967   2.668  0.7166 -0.9242 -0.1227
  192DOPC   C1223660   6.231   5.016   2.803  0.0289 -0.1369  0.0054
  192DOPC  H12A23661   6.139   5.007   2.858 -0.4646  1.1040 -0.5909
  192DOPC  H12B23662   6.260   5.120   2.799  1.6188 -0.5786 -0.9629
  192DOPC   C1323663   6.315   4.984   2.573  0.1879 -0.7000 -0.4403
  192DOPC  H13A23664   6.411   4.963   2.617  1.2264  3.0701 -0.6075
  192DOPC  H13B23665   6.297   4.918   2.490 -0.4041 -0.9392 -0.1289
  192DOPC  H13C23666   6.319   5.087   2.542 -2.2070 -0.7847 -1.2769
  192DOPC   C1423667   6.079   5.043   2.623 -0.0714 -0.2527  0.1525
  192DOPC  H14A23668   6.038   5.008   2.529 -0.5790  2.3421 -0.6873
  192DOPC  H14B23669   6.002   5.042   2.698  0.1808  0.3862  0.4286
  192DOPC  H14C23670   6.099   5.146   2.594 -0.8600  0.3578  1.6764
  192DOPC   C1523671   6.172   4.817   2.669 -0.2281 -0.0764 -0.7304
  192DOPC  H15A23672   6.100   4.809   2.749  0.8409 -0.2537  0.2486
  192DOPC  H15B23673   6.261   4.756   2.677  0.5264  0.7080 -2.6426
  192DOPC  H15C23674   6.122   4.795   2.576 -2.6659  0.8329  0.2867
  192DOPC   C1123675   6.345   4.956   2.884 -0.0528 -0.5079 -0.4006
  192DOPC  H11A23676   6.335   5.006   2.982 -2.0570 -2.3776  0.4311
  192DOPC  H11B23677   6.339   4.850   2.916 -2.4456 -0.1882  0.4100
  192DOPC     P23678   6.605   4.923   2.855 -0.2547  0.0126 -0.4068
  192DOPC   O1323679   6.716   5.009   2.805  0.1183 -0.4041 -0.6154
  192DOPC   O1423680   6.593   4.791   2.791  0.2605  0.6938 -0.1309
  192DOPC   O1223681   6.469   4.997   2.832 -0.3541 -0.1923 -0.0705
  192DOPC   O1123682   6.631   4.905   3.018  0.2279 -0.0078  0.0455
  192DOPC    C123683   6.654   5.027   3.092  0.6303 -0.2584 -0.8794
  192DOPC    HA23684   6.566   5.094   3.078  1.3618  0.3365 -3.0402
  192DOPC    HB23685   6.751   5.070   3.062  0.8414 -0.2298 -0.1642
  192DOPC    C223686   6.662   4.995   3.243  0.7736 -0.2574  0.6775
  192DOPC    HS23687   6.627   5.083   3.301 -0.6627 -0.2631 -0.1472
  192DOPC   O2123688   6.803   4.970   3.271  0.0952 -0.1741 -0.0011
  192DOPC   C2123689   6.887   5.066   3.289 -0.2552  0.2954  0.3073
  192DOPC   O2223690   6.871   5.184   3.271 -0.2801  0.0099 -0.2792
  192DOPC   C2223691   7.020   5.006   3.342 -0.1828 -0.3606 -0.0234
  192DOPC   H2R23692   7.080   5.002   3.249 -0.8490  3.1469 -0.7494
  192DOPC   H2S23693   7.014   4.899   3.371  1.3406 -0.5882 -0.4578
  192DOPC    C323694   6.571   4.872   3.277 -1.2459 -0.2513  0.1465
  192DOPC    HX23695   6.601   4.781   3.222  0.1924  0.3492 -0.1023
  192DOPC    HY23696   6.466   4.906   3.263 -1.2964  0.2532  1.5671
  192DOPC   O3123697   6.591   4.852   3.421 -0.2593 -0.2478  0.3016
  192DOPC   C3123698   6.686   4.779   3.463 -0.1048 -0.4428  0.7032
  192DOPC   O3223699   6.776   4.730   3.399 -0.6219  0.0698  0.4321
  192DOPC   C3223700   6.673   4.750   3.614  0.4609  0.2442 -0.8235
  192DOPC   H2X23701   6.565   4.723   3.622  0.2916  1.0927  0.0329
  192DOPC   H2Y23702   6.737   4.663   3.639  0.9885  0.1596 -2.3736
  192DOPC   C2323703   7.082   5.098   3.450 -0.1311 -0.8679 -0.0524
  192DOPC   H3R23704   7.061   5.201   3.414 -2.9288 -1.7028 -1.0566
  192DOPC   H3S23705   7.193   5.102   3.446 -0.1034 -1.2316  0.3056
  192DOPC   C2423706   7.037   5.070   3.590 -0.7190 -0.1516 -0.9073
  192DOPC   H4R23707   7.063   4.965   3.617  2.6713  1.4486  3.1937
  192DOPC   H4S23708   6.927   5.072   3.602 -0.4939  1.2117  1.8273
  192DOPC   C2523709   7.106   5.163   3.693  0.4399  0.5479  0.1744
  192DOPC   H5R23710   7.037   5.249   3.710 -0.8536 -0.5579  0.7213
  192DOPC   H5S23711   7.205   5.202   3.660  1.6183 -2.1648  0.3159
  192DOPC   C2623712   7.125   5.094   3.831 -0.1455  0.2014 -0.6395
  192DOPC   H6R23713   7.213   5.029   3.816 -0.6183 -0.4255 -0.7553
  192DOPC   H6S23714   7.041   5.031   3.867  1.7696 -2.0674  0.1200
  192DOPC   C2723715   7.163   5.192   3.949  0.2022  0.0532  0.4558
  192DOPC   H7R23716   7.218   5.279   3.907 -0.1955 -0.8244 -2.0499
  192DOPC   H7S23717   7.239   5.143   4.015  0.6303  1.1353  0.7979
  192DOPC   C2823718   7.042   5.231   4.035  0.3398 -0.0098 -0.2906
  192DOPC   H8R23719   7.015   5.133   4.080  0.4931 -0.8375 -1.9185
  192DOPC   H8S23720   6.962   5.277   3.973  2.7574  0.2500 -3.4821
  192DOPC   C2923721   7.090   5.333   4.134  0.1065  0.0959  0.4381
  192DOPC   H9R23722   7.130   5.429   4.098 -2.0452  0.6522 -0.6582
  192DOPC  C21023723   7.100   5.307   4.266  0.4712  0.1193 -0.0595
  192DOPC  H10R23724   7.119   5.399   4.323 -0.3840  0.3074 -0.0631
  192DOPC  C21123725   7.073   5.181   4.341  0.4308  0.0575 -0.0123
  192DOPC  H11R23726   6.998   5.123   4.282 -0.6645  1.1685  0.2387
  192DOPC  H11S23727   7.024   5.202   4.439  0.3570 -0.6351  0.1057
  192DOPC  C21223728   7.191   5.084   4.357 -0.7197  0.1478  0.1936
  192DOPC  H12R23729   7.268   5.105   4.434 -3.0009 -1.2545  3.0570
  192DOPC  H12S23730   7.241   5.088   4.258  1.8278  0.1699  1.4176
  192DOPC  C21323731   7.154   4.939   4.375  0.1095  0.6965  0.4369
  192DOPC  H13R23732   7.250   4.884   4.367  1.1618  2.5874 -0.6691
  192DOPC  H13S23733   7.082   4.900   4.301  2.5287  0.8209 -2.1412
  192DOPC  C21423734   7.102   4.914   4.519  0.6695  0.2600  0.3937
  192DOPC  H14R23735   7.069   4.808   4.520 -4.0628  1.4965 -0.2783
  192DOPC  H14S23736   7.003   4.963   4.529 -0.5802 -1.5289 -2.1546
  192DOPC  C21523737   7.189   4.956   4.636 -0.3153 -0.2018 -0.2337
  192DOPC  H15R23738   7.216   5.063   4.637 -0.2567 -0.2048  1.1200
  192DOPC  H15S23739   7.285   4.899   4.640 -1.2102 -1.8515 -1.2985
  192DOPC  C21623740   7.126   4.929   4.769  0.0963  0.3522 -0.1532
  192DOPC  H16R23741   7.129   4.820   4.791  2.0515  0.4153  0.0482
  192DOPC  H16S23742   7.019   4.961   4.774  0.2258  0.7632  0.0135
  192DOPC  C21723743   7.200   4.990   4.886 -0.4792  0.5559  0.1458
  192DOPC  H17R23744   7.211   5.100   4.882 -0.5397  0.5414 -0.5955
  192DOPC  H17S23745   7.305   4.953   4.885 -1.1185 -1.4523  1.1976
  192DOPC  C21823746   7.124   4.959   5.015 -0.1309 -0.7652  0.4269
  192DOPC  H18R23747   7.166   5.026   5.094  0.4983  1.2966 -1.5589
  192DOPC  H18S23748   7.140   4.852   5.042  2.7335 -0.9814 -1.6847
  192DOPC  H18T23749   7.017   4.983   4.999  0.5386  1.3359 -1.3917
  192DOPC   C3323750   6.713   4.872   3.698  0.0125  0.1887 -0.4080
  192DOPC   H3X23751   6.652   4.960   3.666 -0.3091 -0.3986 -1.4441
  192DOPC   H3Y23752   6.814   4.915   3.679 -0.7549  2.3561  0.0637
  192DOPC   C3423753   6.695   4.848   3.849 -0.0817 -0.0370 -0.0423
  192DOPC   H4X23754   6.752   4.758   3.882  1.7040  1.2660  0.5634
  192DOPC   H4Y23755   6.588   4.820   3.862  0.1338 -0.9570 -0.1720
  192DOPC   C3523756   6.743   4.961   3.944 -0.0889 -0.3845 -0.6759
  192DOPC   H5X23757   6.674   5.045   3.919 -2.1549 -1.5746  0.6733
  192DOPC   H5Y23758   6.848   4.996   3.934 -0.2608  1.4912  2.5512
  192DOPC   C3623759   6.726   4.927   4.093 -0.1793  0.3215  0.3627
  192DOPC   H6X23760   6.644   4.852   4.101 -0.4956  0.6803  0.5698
  192DOPC   H6Y23761   6.825   4.886   4.119  0.5949  1.3756 -0.8155
  192DOPC   C3723762   6.685   5.044   4.180 -0.5200 -0.6868  0.7286
  192DOPC   H7X23763   6.764   5.121   4.168  0.0314 -1.4196 -0.4875
  192DOPC   H7Y23764   6.596   5.088   4.128 -0.5340 -1.3198  0.2013
  192DOPC   C3823765   6.674   4.999   4.328  0.1311  0.0097  0.1382
  192DOPC   H8X23766   6.678   5.090   4.392 -1.9685  0.9394 -0.9447
  192DOPC   H8Y23767   6.762   4.936   4.351  0.4139 -0.0984 -1.1410
  192DOPC   C3923768   6.553   4.915   4.361  0.4602 -0.4157 -0.7855
  192DOPC   H9X23769   6.457   4.968   4.346 -0.2563 -1.4258  0.0831
  192DOPC  C31023770   6.550   4.791   4.414  0.0169  0.8128 -0.5277
  192DOPC  H10X23771   6.452   4.747   4.437 -0.7500  2.0746 -1.2483
  192DOPC  C31123772   6.658   4.694   4.453  0.0954 -0.7152  0.1244
  192DOPC  H11X23773   6.621   4.623   4.529 -0.1772  0.7286  1.3873
  192DOPC  H11Y23774   6.749   4.738   4.499 -2.3506  2.3359  2.4359
  192DOPC  C31223775   6.706   4.606   4.340 -0.3551  0.1421 -0.1069
  192DOPC  H12X23776   6.783   4.651   4.275  0.0320 -0.5528 -0.1367
  192DOPC  H12Y23777   6.618   4.580   4.276 -0.5713 -1.2420  0.6966
  192DOPC  C31323778   6.764   4.471   4.394  0.5406 -0.5920 -0.1026
  192DOPC  H13X23779   6.841   4.490   4.472  0.8789  2.8354 -1.1022
  192DOPC  H13Y23780   6.689   4.410   4.448  0.2680 -0.5740 -0.4554
  192DOPC  C31423781   6.814   4.376   4.286 -0.6252  0.2655 -0.7283
  192DOPC  H14X23782   6.733   4.359   4.211 -0.3544 -0.8900 -0.7810
  192DOPC  H14Y23783   6.906   4.419   4.240 -0.5178  1.6590  0.7077
  192DOPC  C31523784   6.854   4.241   4.351 -0.0346  0.3284  0.0207
  192DOPC  H15X23785   6.759   4.189   4.379 -0.4518  1.4349  0.7433
  192DOPC  H15Y23786   6.913   4.265   4.442  1.3370 -3.2811  0.2551
  192DOPC  C31623787   6.939   4.155   4.267  0.2105 -0.0663 -0.5218
  192DOPC  H16X23788   7.046   4.182   4.269  0.3448 -0.6142  1.1580
  192DOPC  H16Y23789   6.935   4.050   4.303 -1.7377 -0.4370 -1.6429
  192DOPC  C31723790   6.897   4.161   4.121  0.2700  0.9772  0.0395
  192DOPC  H17X23791   6.789   4.135   4.129 -0.0740  1.9326 -1.1401
  192DOPC  H17Y23792   6.911   4.258   4.069  0.2062  1.1857  0.4057
  192DOPC  C31823793   6.969   4.049   4.050 -0.2012  0.5471  0.0359
  192DOPC  H18X23794   6.932   4.050   3.945  2.0488  0.9636 -0.8058
  192DOPC  H18Y23795   7.079   4.062   4.060 -0.2046  0.2102  0.5647
  192DOPC  H18Z23796   6.937   3.953   4.096 -3.0549  1.2247 -0.3473
  193DOPC     N23797   0.584   1.903   2.967 -0.0017 -0.5854  0.2529
  193DOPC   C1223798   0.669   1.852   3.077 -0.1874  0.0904 -0.4414
  193DOPC  H12A23799   0.703   1.938   3.133  1.0471  0.5909 -1.8855
  193DOPC  H12B23800   0.763   1.820   3.034 -0.2646  1.9046 -2.1240
  193DOPC   C1323801   0.577   1.792   2.869 -0.1544  0.9212  0.2440
  193DOPC  H13A23802   0.670   1.774   2.817 -0.1389  0.9592  0.2588
  193DOPC  H13B23803   0.553   1.698   2.917  1.5895 -0.7540 -1.9327
  193DOPC  H13C23804   0.508   1.814   2.788 -1.0839 -1.1243  0.3999
  193DOPC   C1423805   0.633   2.021   2.893 -0.8869  0.6379  0.6628
  193DOPC  H14A23806   0.732   2.004   2.853 -1.1100  2.1957 -0.7060
  193DOPC  H14B23807   0.576   2.038   2.802  1.3526 -0.5031 -1.0471
  193DOPC  H14C23808   0.637   2.111   2.954  0.2301  0.7702  0.4116
  193DOPC   C1523809   0.452   1.939   3.026  0.3306  0.1637  0.4738
  193DOPC  H15A23810   0.448   2.028   3.088 -3.1312  0.4159  0.1230
  193DOPC  H15B23811   0.412   1.847   3.067 -1.3215  1.0373  0.9176
  193DOPC  H15C23812   0.375   1.961   2.953  0.3449  1.4310  0.8219
  193DOPC   C1123813   0.622   1.741   3.176 -0.1961 -0.2374 -0.4425
  193DOPC  H11A23814   0.702   1.725   3.252  1.2274  2.6282 -1.2191
  193DOPC  H11B23815   0.538   1.776   3.240  0.5953 -1.7584  1.5467
  193DOPC     P23816   0.687   1.516   3.056  0.1495  0.1511 -0.4544
  193DOPC   O1323817   0.802   1.585   2.992 -0.2418  0.2065 -0.4395
  193DOPC   O1423818   0.613   1.424   2.968 -0.0992  0.4964  0.0005
  193DOPC   O1223819   0.587   1.618   3.113  0.0126 -0.3327 -0.0209
  193DOPC   O1123820   0.726   1.430   3.179 -0.3430 -0.0716  0.2527
  193DOPC    C123821   0.648   1.418   3.295  0.6218  0.2816 -0.1753
  193DOPC    HA23822   0.542   1.398   3.266  0.1833  0.8651  0.9752
  193DOPC    HB23823   0.646   1.518   3.343  0.5685  0.7374 -1.0996
  193DOPC    C223824   0.696   1.308   3.392 -0.0198 -0.1133 -0.5119
  193DOPC    HS23825   0.670   1.207   3.355 -1.2743  0.5946 -1.6288
  193DOPC   O2123826   0.642   1.325   3.529  0.3988 -0.1605  0.6419
  193DOPC   C2123827   0.507   1.307   3.531 -0.1093 -0.3259  0.4678
  193DOPC   O2223828   0.438   1.273   3.439  0.6857  0.1869  0.4100
  193DOPC   C2223829   0.461   1.328   3.670  0.1371  0.4491 -0.0578
  193DOPC   H2R23830   0.488   1.433   3.691 -0.7863  0.4613  1.1781
  193DOPC   H2S23831   0.509   1.250   3.733 -1.5004 -0.3999  0.1969
  193DOPC    C323832   0.851   1.310   3.400 -0.6601 -0.8227  0.1997
  193DOPC    HX23833   0.877   1.417   3.417 -4.1147 -0.2214  2.7174
  193DOPC    HY23834   0.895   1.297   3.299 -0.7366  1.3757 -0.1518
  193DOPC   O3123835   0.910   1.229   3.504 -0.0055  0.2502 -0.7949
  193DOPC   C3123836   0.921   1.103   3.455 -0.2122  0.0996  0.0828
  193DOPC   O3223837   0.894   1.064   3.346  0.0715  0.0759  0.1098
  193DOPC   C3223838   0.980   1.023   3.571 -0.7691  0.3181 -0.0201
  193DOPC   H2X23839   1.079   0.981   3.545 -0.8900 -0.6869  1.0714
  193DOPC   H2Y23840   0.981   1.078   3.667 -0.4554  0.0864  0.1071
  193DOPC   C2323841   0.307   1.322   3.682  0.2276 -0.2655 -0.0790
  193DOPC   H3R23842   0.275   1.231   3.628  1.4634  0.8335 -2.8513
  193DOPC   H3S23843   0.256   1.414   3.645 -1.7104 -0.8675  0.9617
  193DOPC   C2423844   0.284   1.305   3.831 -0.6333  0.2927  0.1251
  193DOPC   H4R23845   0.297   1.401   3.885 -0.6368 -0.2765  1.1718
  193DOPC   H4S23846   0.347   1.231   3.886 -1.9957 -1.1132 -0.1470
  193DOPC   C2523847   0.139   1.268   3.842  0.4127 -0.2601 -0.0829
  193DOPC   H5R23848   0.129   1.162   3.811 -0.3392  0.0760 -1.0369
  193DOPC   H5S23849   0.079   1.337   3.779  0.0848  0.0737  0.5773
  193DOPC   C2623850   0.089   1.281   3.993 -0.3526  0.5899  0.9657
  193DOPC   H6R23851   0.111   1.382   4.036  0.9802  0.1729  1.3065
  193DOPC   H6S23852   0.160   1.221   4.054 -1.0030  0.6345  1.7806
  193DOPC   C2723853  -0.062   1.257   4.005 -0.1689  0.5639 -0.1436
  193DOPC   H7R23854  -0.073   1.154   3.966  0.8533  0.5480 -0.4317
  193DOPC   H7S23855  -0.129   1.321   3.942 -0.9349  2.5415  2.5017
  193DOPC   C2823856  -0.112   1.262   4.147  0.0287 -0.6125  0.4097
  193DOPC   H8R23857  -0.223   1.251   4.150 -0.2283  1.5671  0.9076
  193DOPC   H8S23858  -0.093   1.364   4.189  1.4673 -1.4362  1.8787
  193DOPC   C2923859  -0.038   1.156   4.225  0.1818  0.1081  0.0908
  193DOPC   H9R23860  -0.037   1.058   4.174  1.5082  0.8324 -1.3151
  193DOPC  C21023861   0.049   1.178   4.320  0.1313  0.3760 -1.2474
  193DOPC  H10R23862   0.104   1.092   4.362 -0.9261  0.0487 -0.4857
  193DOPC  C21123863   0.086   1.314   4.380 -0.1951  0.7669 -0.3079
  193DOPC  H11R23864   0.073   1.312   4.490 -0.2417  0.9160 -0.3103
  193DOPC  H11S23865   0.013   1.394   4.354  0.9164  2.4565  1.4750
  193DOPC  C21223866   0.230   1.356   4.341 -0.3646  0.2403  0.3430
  193DOPC  H12R23867   0.227   1.365   4.231 -0.8038 -0.3218  0.3090
  193DOPC  H12S23868   0.308   1.283   4.370  0.0218  0.9772  1.2400
  193DOPC  C21323869   0.258   1.495   4.406 -0.4355 -0.2072 -0.1763
  193DOPC  H13R23870   0.241   1.496   4.516  0.1362  1.2492 -0.0808
  193DOPC  H13S23871   0.195   1.577   4.366  0.9142  0.1538 -1.6360
  193DOPC  C21423872   0.407   1.527   4.387 -0.5542 -0.2261  0.4977
  193DOPC  H14R23873   0.467   1.449   4.437  0.5794  0.6866  0.5915
  193DOPC  H14S23874   0.432   1.628   4.425 -0.5703 -0.2175  0.4857
  193DOPC  C21523875   0.444   1.522   4.230 -0.3570 -0.0111 -0.1739
  193DOPC  H15R23876   0.418   1.617   4.178 -0.0226  1.0211  1.4756
  193DOPC  H15S23877   0.401   1.443   4.165  2.0317 -0.6947 -1.0220
  193DOPC  C21623878   0.598   1.497   4.213  0.5490  0.4220  0.9326
  193DOPC  H16R23879   0.636   1.423   4.286  1.1212 -0.7065 -0.4650
  193DOPC  H16S23880   0.650   1.592   4.239 -0.2164  1.3417 -0.6905
  193DOPC  C21723881   0.638   1.458   4.066  0.3613  0.4292 -0.2798
  193DOPC  H17R23882   0.606   1.352   4.059  2.9658 -0.4516  0.0594
  193DOPC  H17S23883   0.749   1.457   4.060  0.5722 -0.8505  2.3726
  193DOPC  C21823884   0.576   1.540   3.947  0.0549 -0.0756  0.1874
  193DOPC  H18R23885   0.614   1.510   3.847 -0.5774  0.1633 -0.1285
  193DOPC  H18S23886   0.597   1.647   3.968  0.2222  0.3733 -2.0102
  193DOPC  H18T23887   0.468   1.518   3.956  0.2467 -0.6071  1.3526
  193DOPC   C3323888   0.904   0.891   3.589  0.2727 -0.4800  0.2527
  193DOPC   H3X23889   0.972   0.823   3.644  2.0493  1.0095  0.0118
  193DOPC   H3Y23890   0.870   0.848   3.492 -1.0820 -0.2445  0.5972
  193DOPC   C3423891   0.774   0.896   3.673 -0.0434 -0.2586  0.0309
  193DOPC   H4X23892   0.731   0.794   3.684 -1.2165  0.3161  0.9913
  193DOPC   H4Y23893   0.700   0.953   3.613  0.3407  0.2633  0.0412
  193DOPC   C3523894   0.781   0.963   3.810  0.5053 -0.4894 -0.0953
  193DOPC   H5X23895   0.817   1.066   3.790 -2.2722  0.3149 -1.4298
  193DOPC   H5Y23896   0.855   0.908   3.872 -0.8029 -1.3804  0.7139
  193DOPC   C3623897   0.648   0.981   3.881 -0.1657 -0.4253  0.6250
  193DOPC   H6X23898   0.583   1.054   3.829 -1.7446 -1.8361  0.5178
  193DOPC   H6Y23899   0.590   0.887   3.893  0.1372 -0.6031  0.7131
  193DOPC   C3723900   0.650   1.047   4.016 -0.6930  0.0353 -0.2208
  193DOPC   H7X23901   0.743   1.025   4.073  0.5307  1.5806 -1.5184
  193DOPC   H7Y23902   0.667   1.156   4.003 -0.2347  0.1910  1.4321
  193DOPC   C3823903   0.518   1.037   4.101 -0.1825 -0.5385  0.1590
  193DOPC   H8X23904   0.487   0.931   4.110  1.3610 -0.8885  1.8456
  193DOPC   H8Y23905   0.439   1.075   4.033 -0.2577 -0.1522  0.4638
  193DOPC   C3923906   0.513   1.120   4.229 -0.3906  0.2837  0.0856
  193DOPC   H9X23907   0.498   1.228   4.210  0.5006  0.3364 -0.3283
  193DOPC  C31023908   0.539   1.068   4.348 -0.1457  0.0251  0.1711
  193DOPC  H10X23909   0.534   1.132   4.437 -3.0093  1.8757 -1.1579
  193DOPC  C31123910   0.556   0.922   4.368  0.0331 -0.1324 -0.6913
  193DOPC  H11X23911   0.574   0.865   4.274  1.1240 -2.8597  1.0410
  193DOPC  H11Y23912   0.464   0.881   4.415 -0.4371 -1.0189 -2.2867
  193DOPC  C31223913   0.675   0.903   4.462  1.0541  0.1903 -0.1285
  193DOPC  H12X23914   0.657   0.961   4.556  0.7290  0.0720 -0.1151
  193DOPC  H12Y23915   0.769   0.939   4.415 -0.9001  4.8340 -1.0047
  193DOPC  C31323916   0.687   0.758   4.510  0.1093  0.7853  0.4602
  193DOPC  H13X23917   0.713   0.683   4.433 -2.2802  0.3298  0.0231
  193DOPC  H13Y23918   0.768   0.764   4.586  0.6606 -2.3002  0.2314
  193DOPC  C31423919   0.558   0.697   4.570  0.0603 -0.8325  0.1641
  193DOPC  H14X23920   0.520   0.757   4.656  0.3920 -1.0943  0.4966
  193DOPC  H14Y23921   0.482   0.673   4.492  0.9961 -2.1494 -0.3951
  193DOPC  C31523922   0.586   0.565   4.646 -0.2739  0.5314 -0.2282
  193DOPC  H15X23923   0.654   0.581   4.732  0.3513 -1.0180 -0.4122
  193DOPC  H15Y23924   0.640   0.506   4.569 -0.6049  1.2945 -1.0687
  193DOPC  C31623925   0.461   0.484   4.694 -0.3011 -0.4899  0.6065
  193DOPC  H16X23926   0.383   0.471   4.617  0.5755 -1.1322 -0.1977
  193DOPC  H16Y23927   0.513   0.390   4.722  2.8034  0.7842 -0.4030
  193DOPC  C31723928   0.382   0.549   4.811 -0.2976 -0.1511  0.3922
  193DOPC  H17X23929   0.441   0.552   4.906 -0.1766 -3.0245  0.5098
  193DOPC  H17Y23930   0.361   0.652   4.774  0.1630 -1.1551 -2.9908
  193DOPC  C31823931   0.259   0.477   4.858  0.2897 -0.0390 -0.3398
  193DOPC  H18X23932   0.288   0.378   4.898 -1.0660 -0.6305 -0.7681
  193DOPC  H18Y23933   0.207   0.529   4.942  1.1601  0.6405 -0.1998
  193DOPC  H18Z23934   0.180   0.470   4.781  0.1556  0.5428 -0.2637
  194DOPC     N23935   0.392   6.555   2.489 -0.3671 -0.0053 -0.1960
  194DOPC   C1223936   0.469   6.554   2.618  0.2845  0.8363 -0.7505
  194DOPC  H12A23937   0.548   6.627   2.605  0.6994  0.1700 -2.0675
  194DOPC  H12B23938   0.523   6.461   2.628  1.0106  1.3831  0.6708
  194DOPC   C1323939   0.290   6.450   2.502  1.6852 -0.7416 -0.4483
  194DOPC  H13A23940   0.209   6.462   2.431  1.7427 -2.2842 -0.8255
  194DOPC  H13B23941   0.329   6.349   2.493  0.7561 -0.9811 -2.3777
  194DOPC  H13C23942   0.238   6.466   2.595  0.5946  1.2301 -1.3427
  194DOPC   C1423943   0.484   6.528   2.368  0.7236  0.7926  0.6495
  194DOPC  H14A23944   0.548   6.609   2.335  0.9831  0.3158 -0.0253
  194DOPC  H14B23945   0.542   6.439   2.382 -1.5091 -0.9716 -0.6724
  194DOPC  H14C23946   0.423   6.520   2.279  2.5554  0.0788 -0.5987
  194DOPC   C1523947   0.321   6.686   2.446 -0.2951  0.0048  0.1837
  194DOPC  H15A23948   0.395   6.757   2.412  0.8210 -0.9661  0.5084
  194DOPC  H15B23949   0.281   6.717   2.542  0.7863 -1.7576  1.2777
  194DOPC  H15C23950   0.236   6.658   2.386 -0.0810 -2.7772  1.0385
  194DOPC   C1123951   0.382   6.576   2.753  0.4959 -0.0091  0.0557
  194DOPC  H11A23952   0.297   6.505   2.762 -1.4797  2.1419 -0.6323
  194DOPC  H11B23953   0.458   6.547   2.829  0.6018 -0.1523 -0.1042
  194DOPC     P23954   0.409   6.833   2.817  0.3592 -0.0268 -0.1564
  194DOPC   O1323955   0.417   6.934   2.711 -0.4410  0.5644 -0.0118
  194DOPC   O1423956   0.530   6.783   2.882 -0.6279  0.1739  0.0479
  194DOPC   O1223957   0.334   6.712   2.751  0.5929 -0.1165 -0.0601
  194DOPC   O1123958   0.308   6.887   2.931 -0.2067 -0.9160  0.0148
  194DOPC    C123959   0.205   6.804   2.991  0.2330  0.3210  0.1942
  194DOPC    HA23960   0.201   6.698   2.960  1.3909  0.6514 -1.1763
  194DOPC    HB23961   0.100   6.837   2.974 -0.3456 -0.8269  1.3715
  194DOPC    C223962   0.238   6.795   3.143  0.2174 -0.1832 -0.0295
  194DOPC    HS23963   0.150   6.732   3.168  0.9684 -0.8504  1.0204
  194DOPC   O2123964   0.243   6.921   3.215 -0.3025 -0.0952  0.3421
  194DOPC   C2123965   0.127   6.984   3.231 -0.3094  0.4481  0.3815
  194DOPC   O2223966   0.019   6.947   3.185 -0.1222 -0.3897  0.8983
  194DOPC   C2223967   0.145   7.109   3.320  0.0027 -0.4748  0.1819
  194DOPC   H2R23968   0.131   7.203   3.263 -0.7745  0.2347  1.4703
  194DOPC   H2S23969   0.249   7.107   3.358 -0.4640 -1.3036  1.5032
  194DOPC    C323970   0.372   6.726   3.182  0.1595 -0.5379  0.1239
  194DOPC    HX23971   0.450   6.801   3.157 -0.6354  0.2282 -0.1474
  194DOPC    HY23972   0.385   6.640   3.114  1.4936 -1.2785  1.2585
  194DOPC   O3123973   0.379   6.689   3.319 -0.2562  0.4692  0.3779
  194DOPC   C3123974   0.311   6.584   3.354  0.0259 -0.2491 -0.4356
  194DOPC   O3223975   0.228   6.532   3.282 -0.2702 -0.6776  0.1970
  194DOPC   C3223976   0.338   6.546   3.503  0.0007 -0.5684 -0.3347
  194DOPC   H2X23977   0.380   6.444   3.516  0.7423  0.0399  3.5677
  194DOPC   H2Y23978   0.409   6.619   3.549 -0.2605 -0.0375 -0.7538
  194DOPC   C2323979   0.038   7.108   3.435 -0.8161 -0.3651 -0.0360
  194DOPC   H3R23980   0.071   7.053   3.525 -1.5754 -0.2117  0.3392
  194DOPC   H3S23981  -0.055   7.056   3.406 -2.0937  1.4141  0.6953
  194DOPC   C2423982  -0.007   7.253   3.467 -0.2459 -0.2444  0.2404
  194DOPC   H4R23983  -0.038   7.300   3.371  1.2116  0.9024  0.2912
  194DOPC   H4S23984   0.082   7.305   3.509 -0.8552  1.6068 -0.6279
  194DOPC   C2523985  -0.130   7.273   3.558 -0.4081  0.6957  0.1321
  194DOPC   H5R23986  -0.209   7.211   3.510  0.8826  1.4286 -3.2490
  194DOPC   H5S23987  -0.155   7.381   3.562  2.0629  1.2887  0.8073
  194DOPC   C2623988  -0.108   7.236   3.709  0.0883  0.3558  0.2899
  194DOPC   H6R23989  -0.072   7.132   3.723  2.2082  0.9258 -0.4128
  194DOPC   H6S23990  -0.206   7.236   3.760  2.4500 -2.6042  5.6780
  194DOPC   C2723991  -0.000   7.322   3.778  0.2153  0.9349  0.4675
  194DOPC   H7R23992  -0.040   7.426   3.773 -1.4301  0.2660 -1.3143
  194DOPC   H7S23993   0.096   7.306   3.726  0.0138  0.2194  0.3146
  194DOPC   C2823994   0.029   7.290   3.933  0.0691  0.1810 -1.0190
  194DOPC   H8R23995   0.088   7.381   3.959 -1.2304  0.6429  0.4491
  194DOPC   H8S23996   0.098   7.206   3.956  2.1821  1.5654 -1.8936
  194DOPC   C2923997  -0.099   7.288   4.016 -0.1289 -0.3230  0.1634
  194DOPC   H9R23998  -0.179   7.359   3.992 -0.2592  0.6790  3.1810
  194DOPC  C21023999  -0.128   7.184   4.094 -0.2412 -0.0008 -0.3910
  194DOPC  H10R24000  -0.227   7.193   4.140  1.1206  1.4955  2.5577
  194DOPC  C21124001  -0.061   7.051   4.110  0.2474  0.2359 -0.3120
  194DOPC  H11R24002  -0.008   7.029   4.015  0.2696  0.7370 -0.4196
  194DOPC  H11S24003  -0.128   6.965   4.133  2.6507 -2.1410 -1.7260
  194DOPC  C21224004   0.056   7.047   4.215 -0.5497 -0.0597 -0.5410
  194DOPC  H12R24005   0.143   7.109   4.184 -0.3243  0.4163  0.9831
  194DOPC  H12S24006   0.090   6.941   4.212  3.5018  0.9774  1.8574
  194DOPC  C21324007   0.014   7.072   4.364 -0.2108 -0.0629  0.2490
  194DOPC  H13R24008  -0.037   6.977   4.391 -0.1259  0.8941  4.2807
  194DOPC  H13S24009  -0.062   7.151   4.377 -0.8215 -0.2733 -1.7320
  194DOPC  C21424010   0.137   7.101   4.459  0.3143  0.9325  0.5730
  194DOPC  H14R24011   0.192   7.193   4.431  0.4894  0.5236 -0.4833
  194DOPC  H14S24012   0.204   7.014   4.447 -0.1048  0.4968  1.3054
  194DOPC  C21524013   0.083   7.106   4.604  0.7380  0.2399 -0.0542
  194DOPC  H15R24014   0.029   7.203   4.603 -0.0337 -0.1776 -1.0953
  194DOPC  H15S24015   0.169   7.118   4.674 -0.1748 -1.8884  1.5679
  194DOPC  C21624016  -0.016   6.996   4.646  0.0333  0.6655 -0.1247
  194DOPC  H16R24017  -0.096   6.991   4.569  0.7706 -0.9842 -0.8369
  194DOPC  H16S24018  -0.060   7.019   4.746 -1.7362  1.0758 -0.9502
  194DOPC  C21724019   0.058   6.864   4.659  0.2395  0.1887  0.2687
  194DOPC  H17R24020   0.148   6.880   4.722  0.4517 -0.2266  0.0734
  194DOPC  H17S24021   0.105   6.838   4.561  0.6338 -0.4575  0.6243
  194DOPC  C21824022  -0.009   6.742   4.721 -0.0226  0.0508 -0.2476
  194DOPC  H18R24023  -0.023   6.775   4.826  0.8947  2.6383 -0.8720
  194DOPC  H18S24024   0.063   6.657   4.719 -0.3301 -0.5523  4.2777
  194DOPC  H18T24025  -0.108   6.711   4.681  0.8641 -1.7208 -1.2260
  194DOPC   C3324026   0.203   6.558   3.581 -0.1869 -0.2364 -0.3092
  194DOPC   H3X24027   0.121   6.494   3.544  1.6679 -2.9781  0.0053
  194DOPC   H3Y24028   0.163   6.662   3.584 -2.5247 -1.0664 -0.9740
  194DOPC   C3424029   0.226   6.509   3.725  0.5985  0.2184  0.4059
  194DOPC   H4X24030   0.314   6.560   3.771  1.1034 -1.4460  1.3649
  194DOPC   H4Y24031   0.247   6.400   3.725 -1.5078 -0.2288  0.4722
  194DOPC   C3524032   0.106   6.516   3.815  0.3526 -0.6180  0.2022
  194DOPC   H5X24033   0.023   6.453   3.777 -0.5190  0.4376  0.2906
  194DOPC   H5Y24034   0.052   6.613   3.806  2.0282  0.4487  1.2158
  194DOPC   C3624035   0.135   6.484   3.968  0.4164 -0.4068 -0.4041
  194DOPC   H6X24036   0.125   6.374   3.984  0.1260  0.0442  3.4569
  194DOPC   H6Y24037   0.244   6.504   3.980  0.3078 -0.0050 -0.0805
  194DOPC   C3724038   0.055   6.569   4.064 -0.0990  0.5505 -0.3899
  194DOPC   H7X24039   0.063   6.678   4.042 -1.2475  0.4836 -1.2416
  194DOPC   H7Y24040  -0.050   6.549   4.033  0.0458  0.2310 -0.6809
  194DOPC   C3824041   0.081   6.538   4.209  0.0978  0.0217 -0.2651
  194DOPC   H8X24042   0.190   6.557   4.218  0.6530 -2.3132 -1.2515
  194DOPC   H8Y24043   0.071   6.429   4.229  1.4096 -0.3269 -1.3662
  194DOPC   C3924044   0.013   6.625   4.307  0.2049 -0.3188  0.0234
  194DOPC   H9X24045   0.052   6.726   4.323  2.4625 -1.2741  0.8843
  194DOPC  C31024046  -0.090   6.592   4.381  0.1750 -0.1945  0.3161
  194DOPC  H10X24047  -0.126   6.666   4.454 -1.2064 -0.3911 -0.1324
  194DOPC  C31124048  -0.154   6.454   4.377  0.1199  0.3801 -0.1534
  194DOPC  H11X24049  -0.137   6.401   4.281 -0.0108 -2.5204  1.2975
  194DOPC  H11Y24050  -0.264   6.466   4.386  0.1882 -0.4370  4.4340
  194DOPC  C31224051  -0.121   6.375   4.500 -0.2679 -0.1262 -0.0266
  194DOPC  H12X24052  -0.098   6.440   4.588 -2.6261 -0.7838  1.1491
  194DOPC  H12Y24053  -0.026   6.319   4.484 -0.0533  0.8319 -2.7850
  194DOPC  C31324054  -0.238   6.293   4.560  0.0571 -0.2763  0.1769
  194DOPC  H13X24055  -0.308   6.373   4.592  0.1886  0.2017 -0.7041
  194DOPC  H13Y24056  -0.281   6.235   4.476  1.7715  0.1466 -1.0478
  194DOPC  C31424057  -0.189   6.204   4.677 -0.4247  0.3136  0.9199
  194DOPC  H14X24058  -0.100   6.147   4.642 -0.9521 -0.3182  0.5898
  194DOPC  H14Y24059  -0.156   6.272   4.758 -0.3900 -0.0389  1.1998
  194DOPC  C31524060  -0.295   6.105   4.726 -0.2478 -0.9602  1.1650
  194DOPC  H15X24061  -0.237   6.036   4.791  3.0287  0.1383 -0.4185
  194DOPC  H15Y24062  -0.332   6.043   4.642 -0.8461  1.5883 -0.5688
  194DOPC  C31624063  -0.410   6.190   4.791  0.4975 -0.3472  0.0138
  194DOPC  H16X24064  -0.366   6.267   4.858  0.5689 -0.0964 -0.3150
  194DOPC  H16Y24065  -0.456   6.240   4.703  2.5478 -0.6179 -1.2864
  194DOPC  C31724066  -0.511   6.109   4.876 -0.0021 -0.2089 -0.0144
  194DOPC  H17X24067  -0.607   6.163   4.888 -0.7788 -0.5534 -3.5770
  194DOPC  H17Y24068  -0.539   6.011   4.831  0.4954 -1.9347  3.1355
  194DOPC  C31824069  -0.455   6.064   5.014 -0.4035  0.3767 -0.1317
  194DOPC  H18X24070  -0.361   6.007   4.996  0.1170  1.0459  0.3870
  194DOPC  H18Y24071  -0.428   6.153   5.074  0.1465 -0.3397  0.7054
  194DOPC  H18Z24072  -0.537   6.012   5.068 -0.5496 -1.2422 -1.8095
  195DOPC     N24073   5.121   0.733   2.772  0.1068  0.2644 -0.2149
  195DOPC   C1224074   5.153   0.776   2.920  0.1412  0.1621 -0.2344
  195DOPC  H12A24075   5.258   0.795   2.939  0.7285 -0.3346 -2.6207
  195DOPC  H12B24076   5.123   0.695   2.986 -0.5292 -0.8862 -1.7565
  195DOPC   C1324077   5.194   0.601   2.740 -0.1261  0.2414  0.7375
  195DOPC  H13A24078   5.172   0.522   2.809 -1.7502  1.1926  1.3673
  195DOPC  H13B24079   5.170   0.567   2.640 -0.3133  0.0587  0.8462
  195DOPC  H13C24080   5.299   0.629   2.743 -0.1012  0.1178  1.1129
  195DOPC   C1424081   5.170   0.835   2.671  0.2768  0.5809 -0.1669
  195DOPC  H14A24082   5.277   0.827   2.655  0.2670 -2.5757  0.5697
  195DOPC  H14B24083   5.114   0.827   2.579 -2.6812 -0.5002  1.5900
  195DOPC  H14C24084   5.159   0.938   2.702  0.3871  1.3022 -2.3930
  195DOPC   C1524085   4.979   0.713   2.747 -0.4550  0.2094 -0.0996
  195DOPC  H15A24086   4.965   0.690   2.643  0.9406  0.5323 -0.3853
  195DOPC  H15B24087   4.920   0.794   2.786  1.6187  1.4868  0.6051
  195DOPC  H15C24088   4.948   0.624   2.801  3.3701  0.3137  2.7749
  195DOPC   C1124089   5.069   0.898   2.966 -0.4883  0.2806  0.2222
  195DOPC  H11A24090   5.089   0.983   2.897  0.6640  1.4843  1.9451
  195DOPC  H11B24091   4.960   0.875   2.965 -0.4488  0.0574 -0.9388
  195DOPC     P24092   5.034   0.947   3.219 -0.2452 -0.1041 -0.7246
  195DOPC   O1324093   4.982   0.809   3.247  0.4966 -0.4723 -0.4318
  195DOPC   O1424094   4.938   1.062   3.218  0.1659  0.1825  0.3533
  195DOPC   O1224095   5.123   0.939   3.086 -0.1590  0.3104  0.7794
  195DOPC   O1124096   5.139   0.978   3.339  0.2612 -0.4051  1.1040
  195DOPC    C124097   5.263   0.902   3.348  0.8048 -0.9352  0.0966
  195DOPC    HA24098   5.330   0.917   3.261  2.3200  0.0290  1.3743
  195DOPC    HB24099   5.235   0.795   3.354 -0.7022 -0.4918  2.9968
  195DOPC    C224100   5.339   0.939   3.468 -0.0450 -0.0083  0.7766
  195DOPC    HS24101   5.411   0.856   3.479 -0.9255 -1.3296 -2.2500
  195DOPC   O2124102   5.259   0.953   3.578  0.3597  0.0142 -0.2293
  195DOPC   C2124103   5.231   0.846   3.644 -0.4181 -0.3479 -0.0405
  195DOPC   O2224104   5.289   0.738   3.632  0.5677  0.2432 -0.4847
  195DOPC   C2224105   5.122   0.880   3.747  0.0747  0.0736  0.2790
  195DOPC   H2R24106   5.096   0.988   3.736 -0.1884 -0.2090 -2.9360
  195DOPC   H2S24107   5.162   0.852   3.847 -0.2581  1.0251  0.6947
  195DOPC    C324108   5.416   1.070   3.454  0.0607 -0.1146 -1.5278
  195DOPC    HX24109   5.370   1.149   3.391  0.1210  1.4480  0.2890
  195DOPC    HY24110   5.509   1.041   3.401  0.6161 -0.9839 -0.1349
  195DOPC   O3124111   5.451   1.123   3.587  0.2744 -0.2163 -0.2175
  195DOPC   C3124112   5.373   1.223   3.637  0.7487 -0.4238  0.2033
  195DOPC   O3224113   5.274   1.268   3.580  0.1375 -0.1141  0.3604
  195DOPC   C3224114   5.433   1.267   3.765  0.2883  0.1126 -0.1420
  195DOPC   H2X24115   5.535   1.224   3.770  0.5575  0.8184  0.7513
  195DOPC   H2Y24116   5.443   1.378   3.761  1.8060  0.0377  0.7040
  195DOPC   C2324117   4.998   0.794   3.700 -0.3342 -0.0550 -0.0216
  195DOPC   H3R24118   5.029   0.691   3.675  1.0978  0.2630  0.3315
  195DOPC   H3S24119   4.955   0.844   3.611  2.0288  1.7374 -0.2779
  195DOPC   C2424120   4.895   0.770   3.814 -0.1346 -0.0194  0.1230
  195DOPC   H4R24121   4.811   0.718   3.764  0.4588  1.5629 -2.7780
  195DOPC   H4S24122   4.859   0.872   3.837  1.4957  0.6525 -0.1136
  195DOPC   C2524123   4.947   0.698   3.937  0.6222  0.5610  0.0844
  195DOPC   H5R24124   5.049   0.732   3.964 -0.4130  3.6855  0.5017
  195DOPC   H5S24125   4.965   0.588   3.929 -0.2089  0.4801 -0.9323
  195DOPC   C2624126   4.845   0.712   4.052 -0.0999  0.1626 -0.1152
  195DOPC   H6R24127   4.742   0.698   4.014 -0.1295 -1.8599  0.6038
  195DOPC   H6S24128   4.861   0.812   4.099  1.4028 -0.9990  2.0453
  195DOPC   C2724129   4.879   0.620   4.170 -0.1576  0.5473  0.4325
  195DOPC   H7R24130   4.978   0.658   4.206  0.4826  1.1725 -1.8130
  195DOPC   H7S24131   4.889   0.519   4.126  0.3438  1.6846 -2.2359
  195DOPC   C2824132   4.772   0.640   4.279 -0.5631  0.2871 -0.8917
  195DOPC   H8R24133   4.669   0.624   4.240 -0.5587 -0.5127 -0.5949
  195DOPC   H8S24134   4.775   0.740   4.328  1.3700 -1.4765  3.0140
  195DOPC   C2924135   4.777   0.536   4.388 -0.9308  0.1430 -0.9153
  195DOPC   H9R24136   4.862   0.553   4.455 -0.1441 -0.8663 -1.6368
  195DOPC  C21024137   4.695   0.437   4.432 -0.1644 -0.5398 -0.2177
  195DOPC  H10R24138   4.732   0.374   4.515  0.2373 -1.0335 -0.7607
  195DOPC  C21124139   4.555   0.397   4.379  1.0120  0.2682 -0.0869
  195DOPC  H11R24140   4.568   0.294   4.338 -1.0630  0.6026 -1.7264
  195DOPC  H11S24141   4.515   0.462   4.298 -3.6595 -0.5140  1.3247
  195DOPC  C21224142   4.446   0.391   4.495  0.2329  0.6437  0.4946
  195DOPC  H12R24143   4.357   0.338   4.455  1.8985 -0.7588 -1.5522
  195DOPC  H12S24144   4.415   0.491   4.532  0.4906  0.2094  1.9147
  195DOPC  C21324145   4.499   0.306   4.622  0.1941  0.0444 -0.4561
  195DOPC  H13R24146   4.580   0.354   4.681 -1.2497  1.1065  0.7621
  195DOPC  H13S24147   4.546   0.212   4.586  1.5353  1.4880 -2.6954
  195DOPC  C21424148   4.383   0.287   4.720  0.0120  0.3331 -0.6381
  195DOPC  H14R24149   4.305   0.222   4.676 -1.1044  0.1966  1.4084
  195DOPC  H14S24150   4.340   0.387   4.744 -2.8589 -0.9639  0.0054
  195DOPC  C21524151   4.427   0.218   4.850 -0.0489 -0.2989 -0.4568
  195DOPC  H15R24152   4.517   0.266   4.893  0.1858 -0.5668 -0.6407
  195DOPC  H15S24153   4.447   0.112   4.823  0.3287 -1.0379  2.4279
  195DOPC  C21624154   4.312   0.212   4.950 -0.5553 -0.1435 -0.3653
  195DOPC  H16R24155   4.228   0.157   4.902  0.9129 -0.9756 -2.0823
  195DOPC  H16S24156   4.266   0.312   4.966  0.0906 -0.0514  1.0886
  195DOPC  C21724157   4.358   0.162   5.091  0.6401  0.4099 -0.1700
  195DOPC  H17R24158   4.455   0.203   5.125  0.2076 -0.1639  1.8828
  195DOPC  H17S24159   4.380   0.054   5.075 -1.6461 -0.1643  0.0765
  195DOPC  C21824160   4.259   0.173   5.201 -0.3574 -0.5162 -0.3934
  195DOPC  H18R24161   4.166   0.118   5.175 -0.8822 -0.2996  0.9636
  195DOPC  H18S24162   4.242   0.282   5.218 -0.7755 -0.6945  0.3644
  195DOPC  H18T24163   4.299   0.125   5.292  1.8300  0.4021 -0.8046
  195DOPC   C3324164   5.358   1.216   3.889 -0.5231 -0.3988  0.1098
  195DOPC   H3X24165   5.411   1.259   3.977  1.9202 -2.0390 -0.4579
  195DOPC   H3Y24166   5.380   1.108   3.904  1.3384  0.0390  0.8131
  195DOPC   C3424167   5.211   1.235   3.882  0.0247  0.2206  0.3799
  195DOPC   H4X24168   5.177   1.142   3.833  1.4190 -0.0200 -0.1782
  195DOPC   H4Y24169   5.182   1.318   3.814  0.9675  1.8637  1.8963
  195DOPC   C3524170   5.137   1.269   4.012  0.2995 -0.2492  0.0401
  195DOPC   H5X24171   5.136   1.378   4.036 -0.1210 -0.3943  0.6961
  195DOPC   H5Y24172   5.185   1.220   4.099 -0.0248 -0.2797  0.2028
  195DOPC   C3624173   4.990   1.244   3.992  0.0081 -0.3487  0.0111
  195DOPC   H6X24174   4.939   1.340   3.972  0.7876  0.3963  1.4352
  195DOPC   H6Y24175   4.986   1.180   3.901  1.3094  0.1568 -0.4247
  195DOPC   C3724176   4.926   1.173   4.109  0.0132 -0.2076 -0.0213
  195DOPC   H7X24177   4.819   1.169   4.080  0.3898  0.3173 -1.5436
  195DOPC   H7Y24178   4.974   1.073   4.118  2.1017  0.8559  1.3252
  195DOPC   C3824179   4.937   1.243   4.246  0.4337 -0.3609  0.3945
  195DOPC   H8X24180   5.029   1.208   4.297  0.4829 -2.6485 -1.1488
  195DOPC   H8Y24181   4.855   1.197   4.305 -0.0143  1.4824  1.2886
  195DOPC   C3924182   4.918   1.397   4.265 -0.1582 -0.0919 -0.2760
  195DOPC   H9X24183   5.007   1.450   4.301  0.7850 -1.1085 -1.0545
  195DOPC  C31024184   4.805   1.472   4.256 -0.0991  0.1509  1.3057
  195DOPC  H10X24185   4.795   1.581   4.269  0.8204  0.5730 -1.0494
  195DOPC  C31124186   4.679   1.415   4.200 -0.3143 -0.1925  0.3796
  195DOPC  H11X24187   4.695   1.338   4.122 -2.2534  0.4950 -0.7675
  195DOPC  H11Y24188   4.630   1.486   4.129  0.4796 -1.2190 -1.2525
  195DOPC  C31224189   4.579   1.378   4.318  0.0260  0.3074  0.0791
  195DOPC  H12X24190   4.614   1.288   4.372 -1.0775  1.2254  2.4844
  195DOPC  H12Y24191   4.478   1.347   4.284 -0.1044 -1.8813  2.1748
  195DOPC  C31324192   4.554   1.492   4.425  0.9696  0.3137 -0.1194
  195DOPC  H13X24193   4.655   1.522   4.460  0.5130  0.2784  1.2736
  195DOPC  H13Y24194   4.509   1.578   4.372  1.7291  1.5018  1.1156
  195DOPC  C31424195   4.466   1.446   4.539 -0.3095  0.7612  0.2105
  195DOPC  H14X24196   4.373   1.406   4.494 -1.0602  2.9257 -0.3131
  195DOPC  H14Y24197   4.515   1.361   4.591 -1.6462 -1.8323 -2.5417
  195DOPC  C31524198   4.446   1.550   4.636  0.2230 -0.3379 -1.3910
  195DOPC  H15X24199   4.375   1.626   4.596 -1.5821  0.2223  2.4500
  195DOPC  H15Y24200   4.543   1.601   4.653 -0.1020  0.2871 -1.4017
  195DOPC  C31624201   4.374   1.491   4.760  0.4176  0.2930  0.4743
  195DOPC  H16X24202   4.284   1.435   4.727  0.3230  2.0324 -2.6328
  195DOPC  H16Y24203   4.437   1.429   4.827  0.4813  1.9822  2.0622
  195DOPC  C31724204   4.324   1.602   4.858  1.0410  0.6551  0.0068
  195DOPC  H17X24205   4.253   1.668   4.805  1.0390  2.0802  1.7057
  195DOPC  H17Y24206   4.270   1.548   4.939  2.1529  1.5292  1.3694
  195DOPC  C31824207   4.431   1.698   4.919 -0.6730 -0.0480  0.2222
  195DOPC  H18X24208   4.518   1.646   4.964  0.3266 -1.4921 -3.0678
  195DOPC  H18Y24209   4.480   1.764   4.845 -2.4654  2.7321  1.3518
  195DOPC  H18Z24210   4.383   1.772   4.987 -2.1610  0.0689 -0.8969
  196DOPC     N24211   7.418   0.394   2.904  0.5900 -0.3143  0.6657
  196DOPC   C1224212   7.377   0.438   3.049  0.2363  0.0673  0.1149
  196DOPC  H12A24213   7.289   0.500   3.039 -0.6349 -1.0018  0.9172
  196DOPC  H12B24214   7.462   0.489   3.092 -0.2130  0.4658  0.5420
  196DOPC   C1324215   7.489   0.500   2.828  0.7625  0.3981 -0.9139
  196DOPC  H13A24216   7.436   0.592   2.844 -0.4256 -0.2718 -0.8640
  196DOPC  H13B24217   7.592   0.502   2.861  0.8078 -1.7305 -0.7910
  196DOPC  H13C24218   7.483   0.476   2.722  2.1348  0.6801 -1.0730
  196DOPC   C1424219   7.292   0.347   2.834 -0.8163 -0.1243 -0.3661
  196DOPC  H14A24220   7.313   0.289   2.746  2.9459  0.3270  0.0709
  196DOPC  H14B24221   7.235   0.289   2.905 -0.9462  1.0054  0.4798
  196DOPC  H14C24222   7.232   0.427   2.794 -0.0200  0.1351 -1.0754
  196DOPC   C1524223   7.502   0.272   2.904 -0.0781 -0.3775  0.5697
  196DOPC  H15A24224   7.450   0.190   2.953  2.2193 -3.1509 -1.2598
  196DOPC  H15B24225   7.601   0.295   2.941 -0.2147 -1.0975  1.4341
  196DOPC  H15C24226   7.501   0.227   2.806 -3.2727  0.4068  0.1353
  196DOPC   C1124227   7.329   0.321   3.146  0.2241  0.4065 -0.0255
  196DOPC  H11A24228   7.416   0.252   3.153 -0.7709 -0.8758  0.0037
  196DOPC  H11B24229   7.309   0.372   3.242 -1.7566  1.6004 -1.0095
  196DOPC     P24230   7.072   0.290   3.136 -0.0641  0.3141  0.4759
  196DOPC   O1324231   6.988   0.222   3.042 -0.9438  0.2235  0.0941
  196DOPC   O1424232   7.055   0.432   3.135 -0.6246  0.0313  0.1369
  196DOPC   O1224233   7.215   0.254   3.094 -0.2334 -0.0954 -0.6510
  196DOPC   O1124234   7.054   0.228   3.281  0.3148  0.0349  0.2922
  196DOPC    C124235   7.045   0.094   3.317 -0.1331  1.2135 -0.0090
  196DOPC    HA24236   7.102   0.016   3.262  0.0265  0.4186  1.2441
  196DOPC    HB24237   6.941   0.058   3.302  0.5615 -0.5255 -0.8837
  196DOPC    C224238   7.073   0.072   3.463  1.1064 -0.1537  0.7322
  196DOPC    HS24239   7.079  -0.039   3.467 -2.9902 -0.5754 -0.5443
  196DOPC   O2124240   6.957   0.110   3.542 -0.3894 -0.1986  0.5442
  196DOPC   C2124241   6.932   0.028   3.647 -0.2168 -0.1532 -0.4490
  196DOPC   O2224242   6.974  -0.085   3.666  0.3876 -0.2892  0.1360
  196DOPC   C2224243   6.841   0.098   3.747 -0.2802  0.5652  0.1665
  196DOPC   H2R24244   6.746   0.120   3.694 -0.7715  0.0574  0.8254
  196DOPC   H2S24245   6.886   0.197   3.767  0.4197  0.5070 -0.9910
  196DOPC    C324246   7.194   0.154   3.521 -0.3489  0.2395  0.9156
  196DOPC    HX24247   7.174   0.263   3.509  0.3875  0.2462 -0.5300
  196DOPC    HY24248   7.275   0.131   3.448 -0.0484 -1.7942  1.8175
  196DOPC   O3124249   7.230   0.106   3.654 -0.3054 -0.2748 -0.4323
  196DOPC   C3124250   7.298  -0.007   3.666 -0.4487  0.2515  0.2426
  196DOPC   O3224251   7.368  -0.057   3.578 -0.2351 -0.1838 -0.1471
  196DOPC   C3224252   7.295  -0.055   3.809 -0.3838  0.0705 -0.9147
  196DOPC   H2X24253   7.394  -0.041   3.856 -0.5373 -1.4226 -0.1045
  196DOPC   H2Y24254   7.215  -0.003   3.865  1.5534  0.4859  1.6379
  196DOPC   C2324255   6.805   0.018   3.874  0.0894  0.0099  0.1271
  196DOPC   H3R24256   6.899  -0.004   3.928 -0.5366 -0.2946  1.1010
  196DOPC   H3S24257   6.759  -0.081   3.852 -1.6988  1.1259 -1.4695
  196DOPC   C2424258   6.709   0.094   3.960  0.0913  0.1554 -0.2182
  196DOPC   H4R24259   6.613   0.126   3.914  0.2933 -0.4042 -1.0531
  196DOPC   H4S24260   6.744   0.198   3.969 -1.6663  1.1467 -3.2260
  196DOPC   C2524261   6.674   0.021   4.086  0.1629  0.1376  0.0454
  196DOPC   H5R24262   6.634  -0.081   4.065 -0.8408 -0.2850  3.4284
  196DOPC   H5S24263   6.589   0.081   4.123  0.7446  0.4991  0.8310
  196DOPC   C2624264   6.783   0.015   4.191 -0.0406 -0.0922 -0.4261
  196DOPC   H6R24265   6.800   0.122   4.216 -1.8718  0.5678 -1.8117
  196DOPC   H6S24266   6.877  -0.018   4.141  1.1771 -0.2026  1.7978
  196DOPC   C2724267   6.752  -0.071   4.311 -0.4231  0.1287  0.0806
  196DOPC   H7R24268   6.684  -0.152   4.276  1.7514 -1.8183  0.1764
  196DOPC   H7S24269   6.698  -0.009   4.386 -0.5345 -2.2442  2.0783
  196DOPC   C2824270   6.880  -0.137   4.371  0.3265 -0.3514  0.3680
  196DOPC   H8R24271   6.954  -0.064   4.411  0.7617 -1.3505  1.4496
  196DOPC   H8S24272   6.935  -0.197   4.296  0.6242 -0.0384  0.3332
  196DOPC   C2924273   6.850  -0.223   4.487  0.5345 -0.5104  0.5056
  196DOPC   H9R24274   6.753  -0.197   4.531  0.3146  0.7232 -0.6312
  196DOPC  C21024275   6.917  -0.336   4.534  0.2587  0.1966 -0.3443
  196DOPC  H10R24276   6.869  -0.389   4.617 -2.4171  1.8979 -0.6555
  196DOPC  C21124277   7.047  -0.390   4.482  0.0454 -0.3470  0.1410
  196DOPC  H11R24278   7.106  -0.299   4.463 -0.8191 -0.0044 -1.0766
  196DOPC  H11S24279   7.030  -0.439   4.384 -0.8184 -0.8471  0.5278
  196DOPC  C21224280   7.126  -0.478   4.581  0.1793 -0.5301  0.1114
  196DOPC  H12R24281   7.201  -0.512   4.507 -1.8084 -1.3967 -1.5961
  196DOPC  H12S24282   7.064  -0.564   4.613 -0.5813  0.6966  2.1053
  196DOPC  C21324283   7.196  -0.427   4.710 -0.4568 -0.5178 -0.4796
  196DOPC  H13R24284   7.112  -0.393   4.774 -1.1154 -1.4288 -0.8342
  196DOPC  H13S24285   7.252  -0.332   4.695  0.6543 -0.9918  0.4921
  196DOPC  C21424286   7.274  -0.547   4.780 -0.3156  0.0400 -0.0381
  196DOPC  H14R24287   7.377  -0.562   4.739  0.3334 -2.8984  2.3142
  196DOPC  H14S24288   7.214  -0.640   4.787 -0.7237  0.4121  1.6405
  196DOPC  C21524289   7.315  -0.511   4.920  0.1152  0.2705  0.0143
  196DOPC  H15R24290   7.217  -0.503   4.971 -1.4931  0.2048 -2.8698
  196DOPC  H15S24291   7.353  -0.407   4.927  0.2250  0.3131 -0.9736
  196DOPC  C21624292   7.409  -0.620   4.983  0.3747  0.1295  0.7990
  196DOPC  H16R24293   7.498  -0.574   5.032  0.0015 -0.1273  1.7357
  196DOPC  H16S24294   7.432  -0.694   4.903  1.4565  1.3223 -0.0401
  196DOPC  C21724295   7.337  -0.705   5.091  0.0218 -0.1025  1.1316
  196DOPC  H17R24296   7.270  -0.781   5.044 -0.2446  0.4314  0.6433
  196DOPC  H17S24297   7.280  -0.638   5.159  2.7548  0.5278  2.9801
  196DOPC  C21824298   7.436  -0.774   5.178  0.2785 -0.3560  0.5222
  196DOPC  H18R24299   7.503  -0.838   5.116  2.0865  1.7069  0.2635
  196DOPC  H18S24300   7.391  -0.852   5.243 -2.3968  1.4133  0.9227
  196DOPC  H18T24301   7.492  -0.699   5.237  1.5869 -0.2630 -0.7679
  196DOPC   C3324302   7.263  -0.206   3.823  0.1039  0.3134 -0.4178
  196DOPC   H3X24303   7.348  -0.260   3.776  0.3606  0.6610 -0.3591
  196DOPC   H3Y24304   7.168  -0.230   3.772  1.6853 -4.3789 -1.6435
  196DOPC   C3424305   7.232  -0.242   3.969 -0.0355 -0.1064 -0.8509
  196DOPC   H4X24306   7.153  -0.174   4.005  0.2413 -1.7496  3.3860
  196DOPC   H4Y24307   7.313  -0.217   4.041 -0.4068  1.4030 -0.9328
  196DOPC   C3524308   7.193  -0.394   3.993 -0.1302 -0.2812  0.3623
  196DOPC   H5X24309   7.194  -0.424   4.100  0.7933  0.9132  0.7152
  196DOPC   H5Y24310   7.261  -0.461   3.935 -0.5101 -0.3067 -0.0569
  196DOPC   C3624311   7.054  -0.427   3.933 -0.9302 -0.4167  0.0350
  196DOPC   H6X24312   7.049  -0.389   3.829  0.4199  0.1213  0.1438
  196DOPC   H6Y24313   7.039  -0.537   3.930  1.3486 -0.8464  1.4700
  196DOPC   C3724314   6.940  -0.360   4.003  0.7563 -0.2830  0.2809
  196DOPC   H7X24315   6.938  -0.385   4.111  1.6809  2.5237  1.0391
  196DOPC   H7Y24316   6.960  -0.251   3.997  0.3201 -0.1970  0.4005
  196DOPC   C3824317   6.804  -0.378   3.936  0.0987  0.4045 -0.3930
  196DOPC   H8X24318   6.822  -0.357   3.829  1.2092 -0.0402 -0.3062
  196DOPC   H8Y24319   6.733  -0.303   3.977 -2.0556 -1.5245 -0.3791
  196DOPC   C3924320   6.746  -0.517   3.960 -0.1968  0.9934  0.3080
  196DOPC   H9X24321   6.756  -0.579   3.870 -1.9735  0.8639  0.1735
  196DOPC  C31024322   6.713  -0.570   4.078 -0.0785 -0.0216 -0.3597
  196DOPC  H10X24323   6.676  -0.674   4.080  0.7177 -0.2991  1.7465
  196DOPC  C31124324   6.720  -0.522   4.217  0.0480  0.0400 -0.2300
  196DOPC  H11X24325   6.706  -0.412   4.219  0.0988  0.1540 -2.7741
  196DOPC  H11Y24326   6.815  -0.549   4.268 -0.3632  1.0464  1.1344
  196DOPC  C31224327   6.617  -0.595   4.299  0.1546 -0.2041 -0.2512
  196DOPC  H12X24328   6.625  -0.706   4.295  0.2026 -0.1837 -0.8579
  196DOPC  H12Y24329   6.514  -0.580   4.260 -0.3758 -1.5875  0.5662
  196DOPC  C31324330   6.616  -0.555   4.450 -0.2366  0.1375  0.2657
  196DOPC  H13X24331   6.709  -0.590   4.499 -0.9310 -0.8820  0.8883
  196DOPC  H13Y24332   6.609  -0.444   4.453 -0.5825  0.1333 -0.2240
  196DOPC  C31424333   6.496  -0.610   4.524 -0.3328 -0.0716  0.4273
  196DOPC  H14X24334   6.413  -0.591   4.454 -0.2361  0.9415  0.5724
  196DOPC  H14Y24335   6.512  -0.718   4.548  1.5490 -0.0836 -0.6540
  196DOPC  C31524336   6.475  -0.540   4.664 -0.3012 -0.5809 -0.5134
  196DOPC  H15X24337   6.543  -0.583   4.739 -0.5285 -1.5075 -0.8271
  196DOPC  H15Y24338   6.372  -0.572   4.690 -0.0410 -1.3327 -0.3950
  196DOPC  C31624339   6.490  -0.383   4.674  0.1232 -0.1837 -0.0736
  196DOPC  H16X24340   6.591  -0.366   4.631 -0.8764  0.7228 -2.2389
  196DOPC  H16Y24341   6.416  -0.341   4.603 -0.3803  0.6729  0.9197
  196DOPC  C31724342   6.471  -0.319   4.812 -0.3930  0.1136 -0.3567
  196DOPC  H17X24343   6.442  -0.213   4.798  0.2669  0.6862  2.0671
  196DOPC  H17Y24344   6.383  -0.355   4.871 -1.9980  1.2813 -1.9386
  196DOPC  C31824345   6.608  -0.323   4.891  1.0201  0.2384  0.5953
  196DOPC  H18X24346   6.647  -0.427   4.893  0.8644  0.1673 -0.0173
  196DOPC  H18Y24347   6.670  -0.249   4.836 -1.3117  0.2648 -2.2550
  196DOPC  H18Z24348   6.599  -0.272   4.989  1.3581  1.2994  0.0918
  197DOPC     N24349   3.222   6.238   2.528 -0.1311  0.6282 -0.1519
  197DOPC   C1224350   3.142   6.265   2.666 -0.1694  0.7065  0.4647
  197DOPC  H12A24351   3.193   6.216   2.747  0.5252  1.3811  0.4477
  197DOPC  H12B24352   3.043   6.224   2.657 -0.0522  0.0764  1.8348
  197DOPC   C1324353   3.366   6.287   2.536 -0.2432 -0.4891  0.6637
  197DOPC  H13A24354   3.416   6.279   2.440  0.0445  0.8487  0.6832
  197DOPC  H13B24355   3.376   6.390   2.566 -1.2658 -0.7421  1.9404
  197DOPC  H13C24356   3.420   6.233   2.612 -0.0213 -0.2824  0.6567
  197DOPC   C1424357   3.148   6.306   2.418  0.0662  0.3651 -0.1090
  197DOPC  H14A24358   3.050   6.263   2.414 -0.3610  1.3122 -0.0470
  197DOPC  H14B24359   3.139   6.408   2.453  2.0108  0.3834  0.4997
  197DOPC  H14C24360   3.182   6.300   2.316  0.1595 -1.2032 -0.0001
  197DOPC   C1524361   3.224   6.092   2.499 -0.2237  1.2296 -0.5545
  197DOPC  H15A24362   3.298   6.032   2.550 -1.8084 -1.3867 -1.1296
  197DOPC  H15B24363   3.251   6.068   2.397  2.4537  3.5558 -0.5166
  197DOPC  H15C24364   3.129   6.048   2.525  0.3476  0.5829  0.5405
  197DOPC   C1124365   3.127   6.419   2.702  0.5554  0.5066  0.5050
  197DOPC  H11A24366   3.110   6.428   2.812  2.2120  0.6779  0.7699
  197DOPC  H11B24367   3.224   6.468   2.682  1.4969 -2.3275 -2.6602
  197DOPC     P24368   2.868   6.447   2.634  0.0315  0.4635 -0.3089
  197DOPC   O1324369   2.857   6.307   2.603 -0.5425 -0.9602 -0.2841
  197DOPC   O1424370   2.791   6.545   2.554  0.1772  0.4073  0.6918
  197DOPC   O1224371   3.026   6.486   2.624  0.2659 -0.2683  0.5912
  197DOPC   O1124372   2.838   6.471   2.789  0.0172  0.3972  0.4265
  197DOPC    C124373   2.833   6.613   2.818 -0.4928 -0.0770 -0.5769
  197DOPC    HA24374   2.749   6.660   2.763 -1.0752  0.6256  0.8480
  197DOPC    HB24375   2.927   6.660   2.781 -0.3573 -1.6257 -2.3344
  197DOPC    C224376   2.820   6.650   2.969  0.0961 -0.0884 -0.2844
  197DOPC    HS24377   2.810   6.760   2.979  0.6443  0.0620 -1.2977
  197DOPC   O2124378   2.917   6.602   3.059 -0.7158  0.0174 -0.5863
  197DOPC   C2124379   3.041   6.653   3.066 -0.2451 -0.4394  0.1984
  197DOPC   O2224380   3.084   6.750   3.001  0.2251  0.1880 -0.1389
  197DOPC   C2224381   3.124   6.577   3.167  0.6369  0.3852  0.0006
  197DOPC   H2R24382   3.108   6.468   3.152 -2.5583  0.8549 -0.6979
  197DOPC   H2S24383   3.078   6.597   3.266  0.0121  1.3922 -0.4735
  197DOPC    C324384   2.679   6.596   3.015 -0.6237  0.3667  0.1339
  197DOPC    HX24385   2.655   6.495   2.975 -0.5814  0.0144  0.9742
  197DOPC    HY24386   2.604   6.655   2.959 -0.7187 -2.4115 -2.9760
  197DOPC   O3124387   2.655   6.607   3.158 -0.0921  0.5784  0.4779
  197DOPC   C3124388   2.685   6.511   3.234 -0.5876 -0.0081 -0.3732
  197DOPC   O3224389   2.723   6.396   3.200  0.1928 -0.9005 -0.0149
  197DOPC   C3224390   2.706   6.556   3.378 -0.1221  0.5897  0.2963
  197DOPC   H2X24391   2.815   6.540   3.395 -0.0070 -0.0984 -0.9408
  197DOPC   H2Y24392   2.679   6.663   3.381  2.6832  1.4104 -0.3492
  197DOPC   C2324393   3.275   6.599   3.157  0.2286  0.1704  0.3588
  197DOPC   H3R24394   3.293   6.709   3.154  2.2867 -0.0800  1.4604
  197DOPC   H3S24395   3.316   6.556   3.063 -0.8861 -0.7435  0.2775
  197DOPC   C2424396   3.351   6.539   3.275  0.0537 -0.7314  0.1334
  197DOPC   H4R24397   3.315   6.433   3.279 -5.0962  0.6473 -1.3183
  197DOPC   H4S24398   3.315   6.592   3.366  0.0023  0.3318 -0.4899
  197DOPC   C2524399   3.503   6.546   3.255 -0.3555  0.0565  0.1734
  197DOPC   H5R24400   3.532   6.504   3.156  0.3981 -1.0598  0.8420
  197DOPC   H5S24401   3.543   6.475   3.331  2.5804  0.8137 -0.5022
  197DOPC   C2624402   3.576   6.684   3.269  0.0505  0.4745 -0.1829
  197DOPC   H6R24403   3.527   6.743   3.348 -1.5676 -0.4189 -0.4865
  197DOPC   H6S24404   3.567   6.740   3.173  1.9529  0.8498 -0.1823
  197DOPC   C2724405   3.729   6.667   3.290 -0.2287  0.5733 -0.2811
  197DOPC   H7R24406   3.771   6.768   3.271  0.7665 -0.0696 -1.6816
  197DOPC   H7S24407   3.763   6.596   3.211  0.4195 -0.0724  0.5609
  197DOPC   C2824408   3.776   6.605   3.425 -0.2335 -0.2942  0.1470
  197DOPC   H8R24409   3.726   6.506   3.431 -1.0769 -0.3061 -3.9802
  197DOPC   H8S24410   3.738   6.671   3.506 -0.8442  1.2343 -1.3189
  197DOPC   C2924411   3.922   6.601   3.444 -0.2467  0.5175  0.0672
  197DOPC   H9R24412   3.976   6.576   3.351  1.1352 -1.5816  1.3322
  197DOPC  C21024413   3.988   6.624   3.558  0.1613  0.2119 -0.1715
  197DOPC  H10R24414   4.097   6.613   3.569 -0.0803 -0.1375  2.9102
  197DOPC  C21124415   3.920   6.636   3.691 -0.0713  0.4263 -0.0731
  197DOPC  H11R24416   3.826   6.694   3.685 -0.2784  0.2399  1.1215
  197DOPC  H11S24417   3.982   6.686   3.769  2.1460 -2.1764 -0.0153
  197DOPC  C21224418   3.895   6.485   3.738 -0.5363 -0.2428  0.7375
  197DOPC  H12R24419   3.990   6.428   3.740 -0.9467 -0.9671  0.2642
  197DOPC  H12S24420   3.829   6.433   3.665  1.5769 -0.9546 -0.7610
  197DOPC  C21324421   3.828   6.485   3.878 -0.1249 -0.0310  0.3815
  197DOPC  H13R24422   3.742   6.555   3.873  0.6254  0.9811  1.3010
  197DOPC  H13S24423   3.899   6.522   3.955  1.5204 -0.0030 -1.0649
  197DOPC  C21424424   3.748   6.357   3.908  0.2735  0.4580  0.4667
  197DOPC  H14R24425   3.801   6.260   3.923 -0.9563 -0.6160 -1.6865
  197DOPC  H14S24426   3.672   6.341   3.829 -2.1134  1.8476  2.3267
  197DOPC  C21524427   3.681   6.368   4.040  0.1928 -0.2371 -0.1936
  197DOPC  H15R24428   3.620   6.275   4.045 -2.9469  1.7370  1.7420
  197DOPC  H15S24429   3.609   6.451   4.026 -0.1687 -0.6661 -1.0005
  197DOPC  C21624430   3.763   6.377   4.170 -0.2864 -0.6881  0.2479
  197DOPC  H16R24431   3.825   6.469   4.176 -2.3035  0.7793 -0.1126
  197DOPC  H16S24432   3.837   6.295   4.175  0.7339  0.1430 -0.6012
  197DOPC  C21724433   3.670   6.394   4.297  0.1426  0.0384  0.2905
  197DOPC  H17R24434   3.614   6.299   4.289  0.4172 -0.0282 -1.0371
  197DOPC  H17S24435   3.594   6.473   4.281 -0.1938 -0.2308  0.5500
  197DOPC  C21824436   3.742   6.402   4.425 -1.0688 -0.3278  0.3365
  197DOPC  H18R24437   3.673   6.391   4.512 -0.9259 -0.2409  0.4617
  197DOPC  H18S24438   3.789   6.501   4.442  1.7864 -1.1548 -2.0352
  197DOPC  H18T24439   3.821   6.324   4.427 -1.0579 -0.3989 -1.3718
  197DOPC   C3324440   2.623   6.472   3.476  0.6293  0.0261 -0.6070
  197DOPC   H3X24441   2.642   6.363   3.462 -2.4784 -0.8946  1.2429
  197DOPC   H3Y24442   2.516   6.491   3.450  0.4485  1.9395  1.2815
  197DOPC   C3424443   2.633   6.510   3.624 -0.0560 -0.4072  0.6248
  197DOPC   H4X24444   2.611   6.617   3.645 -1.6639 -0.3698 -0.9896
  197DOPC   H4Y24445   2.737   6.496   3.661  0.5307 -0.9832 -1.1132
  197DOPC   C3524446   2.542   6.428   3.718 -0.6345 -0.3311  0.7747
  197DOPC   H5X24447   2.570   6.321   3.713  1.4535 -0.0078  3.2278
  197DOPC   H5Y24448   2.434   6.441   3.699 -0.5542 -1.6113 -0.6893
  197DOPC   C3624449   2.568   6.460   3.864  0.7820  0.7819 -0.1139
  197DOPC   H6X24450   2.672   6.425   3.879  0.1668 -1.1071 -0.0334
  197DOPC   H6Y24451   2.557   6.566   3.895 -0.6182  0.9496 -1.0815
  197DOPC   C3724452   2.474   6.379   3.961  0.0693  0.3467 -0.7564
  197DOPC   H7X24453   2.373   6.426   3.954  0.0526  0.5213  0.4920
  197DOPC   H7Y24454   2.457   6.273   3.931 -1.4677  0.3474 -0.0099
  197DOPC   C3824455   2.530   6.367   4.106 -0.4281  0.2857 -0.0574
  197DOPC   H8X24456   2.588   6.458   4.130  1.8250 -0.7180 -1.3797
  197DOPC   H8Y24457   2.609   6.289   4.097  0.0654  0.7682  0.0730
  197DOPC   C3924458   2.429   6.339   4.213 -0.6349 -0.5647  0.6894
  197DOPC   H9X24459   2.365   6.256   4.182  1.0959 -2.1709  1.2230
  197DOPC  C31024460   2.423   6.383   4.342 -0.0800 -0.3661  0.7047
  197DOPC  H10X24461   2.336   6.359   4.406  0.9000 -0.3810  2.0595
  197DOPC  C31124462   2.523   6.466   4.414  0.6281 -0.3764 -0.1371
  197DOPC  H11X24463   2.464   6.537   4.475  0.3453 -0.6149 -0.1343
  197DOPC  H11Y24464   2.591   6.526   4.348  2.0106 -1.0012  0.6753
  197DOPC  C31224465   2.628   6.390   4.498 -0.6208  0.0550  0.1399
  197DOPC  H12X24466   2.707   6.466   4.517 -1.3474  1.1952 -1.1838
  197DOPC  H12Y24467   2.658   6.307   4.429  0.9728  1.1371 -0.5475
  197DOPC  C31324468   2.570   6.320   4.623  0.3368 -0.1880  0.0251
  197DOPC  H13X24469   2.520   6.404   4.677  1.7390  1.3952 -1.0138
  197DOPC  H13Y24470   2.488   6.252   4.591  0.0977 -0.0412  0.3156
  197DOPC  C31424471   2.686   6.257   4.704 -0.0403 -0.4760 -0.1296
  197DOPC  H14X24472   2.755   6.204   4.635  0.4019  1.1614 -0.9960
  197DOPC  H14Y24473   2.749   6.345   4.730 -0.1583 -0.9505  1.9020
  197DOPC  C31524474   2.634   6.189   4.828  0.2516  0.0488 -0.4291
  197DOPC  H15X24475   2.581   6.096   4.799 -1.0248  0.2752  1.0556
  197DOPC  H15Y24476   2.556   6.261   4.862  2.2836  1.4779  1.4744
  197DOPC  C31624477   2.735   6.178   4.941  0.1639  0.0251  0.0841
  197DOPC  H16X24478   2.802   6.090   4.931 -1.2121 -1.0275 -0.0547
  197DOPC  H16Y24479   2.802   6.267   4.935  0.4287 -0.1806 -0.0455
  197DOPC  C31724480   2.662   6.184   5.078 -0.0738  0.1700  0.1309
  197DOPC  H17X24481   2.587   6.264   5.094 -1.4767 -1.3194  1.3863
  197DOPC  H17Y24482   2.602   6.092   5.095 -1.0873  0.9012  0.5316
  197DOPC  C31824483   2.761   6.190   5.196 -0.5631 -0.4079 -0.9761
  197DOPC  H18X24484   2.699   6.190   5.288 -2.1316 -0.9566 -1.9859
  197DOPC  H18Y24485   2.836   6.108   5.192  0.7444  0.5318  1.6107
  197DOPC  H18Z24486   2.822   6.283   5.201 -0.4458 -0.5236 -0.0267
  198DOPC     N24487   6.050   7.418   3.070 -0.0873  0.3384 -0.2073
  198DOPC   C1224488   6.179   7.455   3.137 -0.0759  0.7242 -0.4448
  198DOPC  H12A24489   6.230   7.537   3.087  2.3109  0.0903  0.8500
  198DOPC  H12B24490   6.247   7.374   3.116  0.4015  1.3751 -1.5202
  198DOPC   C1324491   6.057   7.414   2.928 -0.0046  0.3909  0.6502
  198DOPC  H13A24492   6.130   7.341   2.895 -2.5118 -1.0308 -2.2077
  198DOPC  H13B24493   5.965   7.396   2.875  1.1374  0.4562 -1.4996
  198DOPC  H13C24494   6.090   7.509   2.889 -2.0904  1.3667  1.1876
  198DOPC   C1424495   5.952   7.520   3.112 -0.1700 -0.8549  0.1050
  198DOPC  H14A24496   5.973   7.548   3.214 -1.0836 -0.9904  0.3416
  198DOPC  H14B24497   5.956   7.610   3.053  0.5177 -0.4825  0.7091
  198DOPC  H14C24498   5.853   7.476   3.108 -0.2526 -0.5833 -1.4906
  198DOPC   C1524499   6.014   7.281   3.107  0.0130 -0.3306 -0.2842
  198DOPC  H15A24500   5.990   7.277   3.212  0.4998 -0.2297 -0.1672
  198DOPC  H15B24501   6.089   7.210   3.075  1.9008  2.0721 -1.5425
  198DOPC  H15C24502   5.926   7.259   3.049 -0.9422  1.9793  0.2014
  198DOPC   C1124503   6.171   7.481   3.289 -0.7763 -0.3687 -0.1445
  198DOPC  H11A24504   6.111   7.402   3.338  0.5284 -1.2445  0.0909
  198DOPC  H11B24505   6.274   7.478   3.332 -0.2708  1.2937 -1.1266
  198DOPC     P24506   6.198   7.740   3.280  0.1985  0.0499 -0.0508
  198DOPC   O1324507   6.107   7.849   3.227  0.3768  0.2914  0.3379
  198DOPC   O1424508   6.319   7.702   3.209  0.2564 -0.2280 -0.5893
  198DOPC   O1224509   6.112   7.610   3.322  0.2168 -0.3232  0.2300
  198DOPC   O1124510   6.241   7.788   3.426  0.5297 -0.2895 -0.7889
  198DOPC    C124511   6.138   7.825   3.522  0.2505 -0.4898  0.6110
  198DOPC    HA24512   6.046   7.764   3.508 -0.1513  0.2975 -0.3232
  198DOPC    HB24513   6.114   7.933   3.507  1.2291 -0.1686  1.2904
  198DOPC    C224514   6.184   7.796   3.667 -0.6032 -0.4021 -0.0919
  198DOPC    HS24515   6.271   7.864   3.672 -0.9897  0.4382 -2.8723
  198DOPC   O2124516   6.217   7.656   3.686 -0.0086  0.1004 -0.0207
  198DOPC   C2124517   6.300   7.648   3.787 -0.1642  0.5670  0.6934
  198DOPC   O2224518   6.331   7.733   3.870  0.3934 -0.0707  0.7289
  198DOPC   C2224519   6.349   7.499   3.788 -0.1690  0.3454  0.5858
  198DOPC   H2R24520   6.426   7.496   3.708  0.7748  1.2139  1.4297
  198DOPC   H2S24521   6.268   7.429   3.758 -0.2150  0.0440  1.4039
  198DOPC    C324522   6.065   7.836   3.772 -0.5383 -0.5440  0.1690
  198DOPC    HX24523   6.106   7.837   3.875  0.4874  1.8886 -0.2129
  198DOPC    HY24524   5.995   7.750   3.776  0.0884 -1.0038  1.7323
  198DOPC   O3124525   6.006   7.960   3.739 -0.4592 -0.3896  0.3444
  198DOPC   C3124526   5.875   7.970   3.773 -0.3763  0.1068  0.3418
  198DOPC   O3224527   5.810   7.891   3.832 -0.7379  0.2468  0.2787
  198DOPC   C3224528   5.817   8.092   3.700  0.4408  0.2535  0.4952
  198DOPC   H2X24529   5.880   8.184   3.708 -2.6639  2.7162 -1.0034
  198DOPC   H2Y24530   5.820   8.055   3.595  0.2519  0.3915  0.4398
  198DOPC   C2324531   6.409   7.446   3.915 -0.0153  0.2119 -0.1030
  198DOPC   H3R24532   6.499   7.507   3.937 -1.9649  2.2667  2.8118
  198DOPC   H3S24533   6.449   7.342   3.907 -1.4458 -0.4015  0.3487
  198DOPC   C2424534   6.318   7.453   4.029  0.2175 -0.1106 -0.5909
  198DOPC   H4R24535   6.221   7.404   4.007 -0.2843  0.2080  0.8085
  198DOPC   H4S24536   6.296   7.560   4.049 -0.0420 -0.2782  0.0676
  198DOPC   C2524537   6.391   7.391   4.159 -0.1082 -0.0617 -0.8305
  198DOPC   H5R24538   6.491   7.440   4.166 -0.6949  1.1927 -0.9257
  198DOPC   H5S24539   6.405   7.281   4.151 -0.7027 -0.2361  0.3356
  198DOPC   C2624540   6.324   7.430   4.294  0.1226 -0.0527 -0.1835
  198DOPC   H6R24541   6.303   7.539   4.291 -2.1259 -0.4766 -1.9120
  198DOPC   H6S24542   6.397   7.417   4.376  0.1670 -2.0202 -0.4885
  198DOPC   C2724543   6.192   7.356   4.322 -0.1815 -0.2391  0.0945
  198DOPC   H7R24544   6.226   7.250   4.324  2.7810  0.5722 -1.8947
  198DOPC   H7S24545   6.125   7.378   4.236 -2.7269 -2.3538  1.3607
  198DOPC   C2824546   6.119   7.395   4.450 -0.2232  0.6547 -0.9195
  198DOPC   H8R24547   6.114   7.505   4.464  0.8197  0.3228  3.6863
  198DOPC   H8S24548   6.181   7.361   4.535  1.2541 -1.4025 -2.7310
  198DOPC   C2924549   5.984   7.338   4.461 -0.0943  0.5063 -0.1011
  198DOPC   H9R24550   5.914   7.374   4.385 -0.8281  2.5083  1.4109
  198DOPC  C21024551   5.946   7.242   4.548  0.4954  0.1189 -0.0373
  198DOPC  H10R24552   5.839   7.226   4.563  0.6526 -1.2176 -0.1984
  198DOPC  C21124553   6.033   7.178   4.653  0.3225  0.4831  0.8130
  198DOPC  H11R24554   6.138   7.198   4.622 -0.0358  0.8924 -0.1585
  198DOPC  H11S24555   6.010   7.070   4.655 -0.7253  0.6985  1.7863
  198DOPC  C21224556   6.029   7.235   4.794  0.0750 -0.2400 -0.2727
  198DOPC  H12R24557   6.090   7.177   4.867 -0.3028  1.6814  1.6679
  198DOPC  H12S24558   5.923   7.215   4.819 -0.0439 -0.6261 -1.0747
  198DOPC  C21324559   6.054   7.387   4.802  0.0520 -0.0130 -0.6369
  198DOPC  H13R24560   6.016   7.435   4.709 -0.0851 -3.1604 -2.3482
  198DOPC  H13S24561   6.164   7.400   4.816  0.1393 -1.6295  0.5095
  198DOPC  C21424562   5.990   7.466   4.923  0.2570  0.1495  0.2945
  198DOPC  H14R24563   6.024   7.572   4.928 -0.4171  0.3739  0.3545
  198DOPC  H14S24564   6.025   7.415   5.016 -1.1141  0.1401  0.8367
  198DOPC  C21524565   5.835   7.464   4.913 -0.4465  0.0399 -0.2806
  198DOPC  H15R24566   5.792   7.524   4.996 -1.6105  0.9742 -1.5101
  198DOPC  H15S24567   5.796   7.361   4.923 -0.0094 -0.5899 -3.8203
  198DOPC  C21624568   5.773   7.522   4.787  0.2121 -0.5298 -0.3430
  198DOPC  H16R24569   5.792   7.465   4.693  0.7543  1.9541 -1.8396
  198DOPC  H16S24570   5.814   7.624   4.766 -0.7412 -0.4827 -2.1878
  198DOPC  C21724571   5.622   7.551   4.797  0.4912  0.0315  0.3631
  198DOPC  H17R24572   5.601   7.631   4.871 -3.2345  1.6929 -2.1542
  198DOPC  H17S24573   5.575   7.460   4.840  0.0357 -0.2054 -0.6157
  198DOPC  C21824574   5.559   7.596   4.664  0.8427 -0.1413  0.4207
  198DOPC  H18R24575   5.606   7.691   4.630 -2.8651  1.0057 -2.2084
  198DOPC  H18S24576   5.451   7.623   4.668  0.2800 -2.1921  0.3217
  198DOPC  H18T24577   5.577   7.519   4.586  0.2922  0.3658 -0.2246
  198DOPC   C3324578   5.673   8.132   3.727  0.1946 -0.3965 -0.1873
  198DOPC   H3X24579   5.608   8.042   3.725 -2.5158  1.3801  1.0144
  198DOPC   H3Y24580   5.631   8.198   3.648  0.3665 -1.1517 -0.9185
  198DOPC   C3424581   5.663   8.197   3.867  0.0472 -0.1427  0.0340
  198DOPC   H4X24582   5.743   8.272   3.881 -0.5915  0.5447  0.0868
  198DOPC   H4Y24583   5.685   8.116   3.940 -0.3998 -1.0713 -0.8383
  198DOPC   C3524584   5.526   8.260   3.895  0.2442  0.0179  0.1702
  198DOPC   H5X24585   5.444   8.210   3.840 -0.2709  0.4825  0.5045
  198DOPC   H5Y24586   5.528   8.363   3.854  1.1903  0.3542  1.0109
  198DOPC   C3624587   5.509   8.280   4.043  0.1892 -0.2968  0.2824
  198DOPC   H6X24588   5.501   8.176   4.084  1.2041 -0.4540  0.1041
  198DOPC   H6Y24589   5.597   8.332   4.086 -0.1787 -0.5094  1.3502
  198DOPC   C3724590   5.380   8.363   4.074 -0.1041 -0.7600  0.1971
  198DOPC   H7X24591   5.293   8.336   4.011 -0.0864 -2.5362  0.8917
  198DOPC   H7Y24592   5.341   8.344   4.177 -1.0318 -2.1113 -0.3843
  198DOPC   C3824593   5.413   8.513   4.057 -0.0958 -0.4564 -0.3023
  198DOPC   H8X24594   5.425   8.542   3.950 -2.3214 -0.3660 -0.5731
  198DOPC   H8Y24595   5.507   8.545   4.106 -2.1774 -0.0990  3.8237
  198DOPC   C3924596   5.299   8.603   4.105 -0.1826 -0.5470 -0.3585
  198DOPC   H9X24597   5.227   8.619   4.024 -1.7727  0.7520  1.2244
  198DOPC  C31024598   5.280   8.656   4.232 -0.4954  0.0624 -0.3176
  198DOPC  H10X24599   5.194   8.720   4.258 -0.3047  0.1775  0.0502
  198DOPC  C31124600   5.375   8.631   4.355  0.2732 -0.1589 -0.4573
  198DOPC  H11X24601   5.468   8.580   4.322  0.4523  1.7562 -3.3074
  198DOPC  H11Y24602   5.325   8.563   4.427  0.6968  0.1119  0.1109
  198DOPC  C31224603   5.425   8.758   4.425  0.0259  0.4119  0.2298
  198DOPC  H12X24604   5.343   8.827   4.453 -1.4602 -0.9069 -0.6975
  198DOPC  H12Y24605   5.500   8.804   4.357  1.5224 -2.3421 -0.1239
  198DOPC  C31324606   5.511   8.717   4.551  0.0841  0.2877 -0.4674
  198DOPC  H13X24607   5.446   8.661   4.622  0.4735 -0.1053 -0.4153
  198DOPC  H13Y24608   5.587   8.643   4.518 -1.1520 -1.3767  0.2252
  198DOPC  C31424609   5.577   8.836   4.630 -0.1677 -0.0895 -0.0274
  198DOPC  H14X24610   5.645   8.799   4.710  0.0116 -1.9481 -0.9976
  198DOPC  H14Y24611   5.634   8.902   4.561  0.8922 -2.1512 -1.2098
  198DOPC  C31524612   5.476   8.914   4.708 -0.8948 -0.0009  0.4074
  198DOPC  H15X24613   5.462   8.850   4.798 -0.8833  0.2554  0.5938
  198DOPC  H15Y24614   5.373   8.923   4.666 -1.8675  2.3630  2.9875
  198DOPC  C31624615   5.520   9.058   4.740 -0.2692  0.0071  0.3487
  198DOPC  H16X24616   5.630   9.064   4.730  0.1563 -4.6289  0.3780
  198DOPC  H16Y24617   5.472   9.123   4.663  1.0585 -0.6185 -1.0599
  198DOPC  C31724618   5.479   9.105   4.884 -0.3621  0.5768  0.2365
  198DOPC  H17X24619   5.529   9.035   4.954  0.9923  1.8537  0.5904
  198DOPC  H17Y24620   5.533   9.202   4.894 -0.1584  0.5796 -0.7809
  198DOPC  C31824621   5.331   9.105   4.909 -0.4378 -0.2183 -0.6918
  198DOPC  H18X24622   5.273   9.165   4.836 -1.8154 -0.0802  0.4603
  198DOPC  H18Y24623   5.273   9.010   4.908 -1.5312  0.4258 -0.3680
  198DOPC  H18Z24624   5.310   9.147   5.010 -0.3626 -0.9416 -0.3736
  199DOPC     N24625   6.137   1.306   2.907  0.3899 -0.5931 -0.7696
  199DOPC   C1224626   6.083   1.179   2.844 -0.2180  0.0754 -0.0209
  199DOPC  H12A24627   6.166   1.114   2.820  0.1675  0.1282  1.1132
  199DOPC  H12B24628   6.036   1.195   2.749  1.7924 -1.7277 -1.4287
  199DOPC   C1324629   6.241   1.371   2.822  0.2309  0.0799 -0.6504
  199DOPC  H13A24630   6.261   1.464   2.872  0.6212  0.3416 -1.2737
  199DOPC  H13B24631   6.330   1.311   2.823  1.0740  1.2902  0.8891
  199DOPC  H13C24632   6.208   1.390   2.720 -0.6248  0.0065 -0.3993
  199DOPC   C1424633   6.202   1.270   3.044 -0.3712 -0.5279 -0.2266
  199DOPC  H14A24634   6.243   1.358   3.092 -1.4481  0.1668 -0.5515
  199DOPC  H14B24635   6.131   1.216   3.104  0.3642 -3.0232 -1.4172
  199DOPC  H14C24636   6.289   1.208   3.027 -0.0679  0.1615 -1.2741
  199DOPC   C1524637   6.036   1.407   2.936 -0.4551 -0.2829  0.3966
  199DOPC  H15A24638   6.079   1.494   2.984 -0.0732 -0.1222 -0.2291
  199DOPC  H15B24639   5.962   1.356   2.997  0.4793  0.3822  2.1311
  199DOPC  H15C24640   5.998   1.432   2.838  0.5701 -1.6594 -0.3992
  199DOPC   C1124641   5.978   1.081   2.913  0.5393 -0.3217  0.2932
  199DOPC  H11A24642   5.960   0.993   2.848 -1.8211  0.9341 -0.9089
  199DOPC  H11B24643   6.023   1.049   3.010  0.4270 -1.8267 -0.1265
  199DOPC     P24644   5.730   1.080   3.002 -0.1010 -0.3383 -0.0619
  199DOPC   O1324645   5.701   0.953   2.935  0.2565  0.1011  0.0148
  199DOPC   O1424646   5.625   1.183   3.007  0.2516  0.0933  0.8214
  199DOPC   O1224647   5.854   1.148   2.928  0.1687  0.6362 -0.0808
  199DOPC   O1124648   5.778   1.051   3.154  0.4762 -0.1358  0.5609
  199DOPC    C124649   5.857   1.150   3.223 -0.4806 -0.5666  0.0887
  199DOPC    HA24650   5.875   1.238   3.158  1.0214 -1.6973 -1.0890
  199DOPC    HB24651   5.959   1.112   3.243 -0.0703  0.3218 -0.2521
  199DOPC    C224652   5.786   1.184   3.354 -0.1318 -0.2656  0.2218
  199DOPC    HS24653   5.865   1.231   3.417  0.2064  0.1776 -0.5255
  199DOPC   O2124654   5.732   1.072   3.422  0.1922  0.1656 -0.2980
  199DOPC   C2124655   5.825   1.008   3.506  1.0057  0.1455  0.5923
  199DOPC   O2224656   5.936   1.035   3.529  0.6975 -0.3259  0.2807
  199DOPC   C2224657   5.755   0.891   3.569 -0.5214  0.6650 -0.1713
  199DOPC   H2R24658   5.820   0.801   3.560  0.4391  1.2926  0.2894
  199DOPC   H2S24659   5.670   0.862   3.504 -0.4914  0.6831 -0.2191
  199DOPC    C324660   5.672   1.290   3.343 -0.0418 -0.2604  0.4243
  199DOPC    HX24661   5.580   1.232   3.322 -1.5605  2.2436 -0.2434
  199DOPC    HY24662   5.683   1.354   3.252  0.9922  0.4157  0.9989
  199DOPC   O3124663   5.653   1.367   3.459 -0.2267  0.3983  0.0527
  199DOPC   C3124664   5.715   1.481   3.475 -0.1466 -0.9770  0.3600
  199DOPC   O3224665   5.799   1.531   3.397 -0.5675  0.0271  0.4780
  199DOPC   C3224666   5.669   1.548   3.604 -0.6475 -0.4471  0.0364
  199DOPC   H2X24667   5.668   1.482   3.693  0.0134 -0.6425 -0.0976
  199DOPC   H2Y24668   5.736   1.633   3.626 -2.1086  0.7326  0.0983
  199DOPC   C2324669   5.709   0.919   3.714 -0.1746 -0.2177 -0.2382
  199DOPC   H3R24670   5.640   0.841   3.754  0.3465 -0.3183  0.4809
  199DOPC   H3S24671   5.637   1.002   3.706 -2.6301 -1.9487  2.0185
  199DOPC   C2424672   5.823   0.944   3.816  0.5409 -0.3204  0.3387
  199DOPC   H4R24673   5.873   1.039   3.785  1.6870 -1.0943 -0.2593
  199DOPC   H4S24674   5.888   0.854   3.804 -0.4657 -0.9410 -0.5872
  199DOPC   C2524675   5.769   0.960   3.959  0.6038 -0.5421 -0.7520
  199DOPC   H5R24676   5.712   0.870   3.989 -0.6857  1.1200  2.1943
  199DOPC   H5S24677   5.706   1.050   3.975  0.8244 -0.9848  4.2924
  199DOPC   C2624678   5.880   0.977   4.066 -0.1070  0.1373  0.1076
  199DOPC   H6R24679   5.944   1.061   4.031  0.1231 -0.2419 -0.3974
  199DOPC   H6S24680   5.944   0.887   4.056  0.0776  0.2150  0.5837
  199DOPC   C2724681   5.839   1.002   4.208 -0.5334 -0.2322 -0.8597
  199DOPC   H7R24682   5.768   0.927   4.250 -0.9173  0.3056 -0.5328
  199DOPC   H7S24683   5.784   1.099   4.202 -2.8372 -1.5154 -2.3357
  199DOPC   C2824684   5.948   1.010   4.311  0.0093 -0.0455  0.4147
  199DOPC   H8R24685   5.917   1.067   4.402  1.1183  2.3583 -0.6330
  199DOPC   H8S24686   6.023   1.080   4.269  1.0634 -1.4253 -0.0829
  199DOPC   C2924687   6.013   0.878   4.366  0.6640 -0.2296 -0.1003
  199DOPC   H9R24688   6.070   0.821   4.291  1.2871 -1.0740  0.9976
  199DOPC  C21024689   5.995   0.821   4.489 -0.5753  0.0342 -0.6216
  199DOPC  H10R24690   6.046   0.726   4.510 -0.9630 -0.3240 -1.2740
  199DOPC  C21124691   5.912   0.887   4.594 -0.0702  0.2274 -0.2575
  199DOPC  H11R24692   5.852   0.809   4.646 -0.8598  0.4247 -0.8475
  199DOPC  H11S24693   5.847   0.966   4.551 -0.2120  0.6924  0.7814
  199DOPC  C21224694   6.001   0.961   4.692  0.3814  0.3531 -0.1412
  199DOPC  H12R24695   6.065   1.029   4.632  0.5036  1.1397  0.8603
  199DOPC  H12S24696   6.072   0.890   4.739  2.1909  0.8624 -1.9665
  199DOPC  C21324697   5.924   1.040   4.803  0.0096  0.2618 -0.7919
  199DOPC  H13R24698   5.870   0.972   4.872 -2.0108  2.8090  0.2547
  199DOPC  H13S24699   5.844   1.104   4.761 -1.1816  1.8748  3.4462
  199DOPC  C21424700   6.006   1.142   4.878  0.2481 -0.4926  0.2377
  199DOPC  H14R24701   6.010   1.239   4.825 -0.8897 -0.8660 -0.5762
  199DOPC  H14S24702   6.110   1.107   4.893  0.5740  1.0817  1.9775
  199DOPC  C21524703   5.946   1.179   5.016 -0.1737  0.3689 -0.3295
  199DOPC  H15R24704   5.960   1.094   5.085 -2.5163 -1.5681 -2.0749
  199DOPC  H15S24705   5.837   1.196   5.000 -0.0968  2.2236  0.8770
  199DOPC  C21624706   6.021   1.302   5.075 -0.1847 -0.1660  0.0541
  199DOPC  H16R24707   6.057   1.361   4.987 -1.3175 -0.8291 -0.8820
  199DOPC  H16S24708   6.115   1.267   5.122  0.1088 -0.2099 -0.5517
  199DOPC  C21724709   5.937   1.390   5.162 -0.1294  0.7133 -0.7879
  199DOPC  H17R24710   5.921   1.347   5.263 -2.2902  1.8098 -0.5992
  199DOPC  H17S24711   5.840   1.411   5.111 -0.8639  4.0593  1.6965
  199DOPC  C21824712   6.002   1.525   5.176  0.1494 -0.2071  0.3545
  199DOPC  H18R24713   5.953   1.599   5.242 -1.6528  0.6505 -1.8088
  199DOPC  H18S24714   6.009   1.572   5.075 -1.1595 -1.2437 -0.2450
  199DOPC  H18T24715   6.109   1.514   5.205 -0.1944 -2.4564  0.9410
  199DOPC   C3324716   5.526   1.598   3.593  0.4088  0.0647 -0.3002
  199DOPC   H3X24717   5.460   1.510   3.579 -0.8084  1.1451 -1.5002
  199DOPC   H3Y24718   5.525   1.660   3.501 -0.0408 -1.4047 -1.3210
  199DOPC   C3424719   5.469   1.664   3.722  0.0360  0.7285  0.9209
  199DOPC   H4X24720   5.450   1.598   3.810 -3.1393  2.8601  2.0171
  199DOPC   H4Y24721   5.366   1.694   3.692 -0.1125  1.3857  2.0126
  199DOPC   C3524722   5.539   1.789   3.766 -0.2818  0.1245  1.0731
  199DOPC   H5X24723   5.553   1.850   3.675 -0.7332 -2.4388 -0.8351
  199DOPC   H5Y24724   5.642   1.759   3.792  1.2795  2.2067 -2.1159
  199DOPC   C3624725   5.474   1.871   3.872 -0.5464  0.0484 -0.5734
  199DOPC   H6X24726   5.368   1.893   3.847 -1.6674 -1.9764  1.9088
  199DOPC   H6Y24727   5.472   1.813   3.967 -1.1424  1.6029  0.4202
  199DOPC   C3724728   5.551   2.002   3.882 -0.1785  0.0342 -0.4781
  199DOPC   H7X24729   5.661   1.991   3.883 -0.2482 -0.8836  1.0493
  199DOPC   H7Y24730   5.525   2.068   3.797 -2.9386  0.7408  0.7963
  199DOPC   C3824731   5.512   2.082   4.012 -0.1673 -0.2970  0.4038
  199DOPC   H8X24732   5.567   2.036   4.097  0.9919 -0.2677 -0.3118
  199DOPC   H8Y24733   5.405   2.054   4.025 -0.0903 -1.7714 -1.6239
  199DOPC   C3924734   5.545   2.229   4.000 -0.3083 -0.2119  0.3102
  199DOPC   H9X24735   5.593   2.269   3.909  2.7186  0.7979  2.2118
  199DOPC  C31024736   5.513   2.319   4.099  0.3793 -0.2341  0.5065
  199DOPC  H10X24737   5.548   2.423   4.087  0.2091 -0.2704 -0.4190
  199DOPC  C31124738   5.438   2.292   4.229  0.0615  0.4470  0.0534
  199DOPC  H11X24739   5.398   2.188   4.232 -2.0049  1.0783 -2.4745
  199DOPC  H11Y24740   5.352   2.361   4.236 -0.8160 -0.6756  0.6909
  199DOPC  C31224741   5.525   2.292   4.365 -0.2571 -0.5656  0.2090
  199DOPC  H12X24742   5.458   2.330   4.445  0.8473  2.1099 -0.0154
  199DOPC  H12Y24743   5.606   2.366   4.351  0.4767 -1.4211 -0.1338
  199DOPC  C31324744   5.581   2.161   4.398 -0.4064  0.2990  0.4816
  199DOPC  H13X24745   5.515   2.071   4.401 -0.4195  0.3257  1.9336
  199DOPC  H13Y24746   5.669   2.158   4.330 -0.2834  0.7237  0.6181
  199DOPC  C31424747   5.647   2.156   4.537 -0.6736 -0.1227  0.4764
  199DOPC  H14X24748   5.737   2.221   4.533 -1.2462  0.6386 -1.0701
  199DOPC  H14Y24749   5.584   2.188   4.623  0.6855  2.4445  0.6188
  199DOPC  C31524750   5.690   2.020   4.578 -0.9396  0.0561  0.2559
  199DOPC  H15X24751   5.768   1.979   4.510 -0.3332  0.6537  0.5761
  199DOPC  H15Y24752   5.594   1.964   4.577 -0.7120 -0.4491  2.4241
  199DOPC  C31624753   5.743   2.005   4.719  0.0039  0.5260 -0.5145
  199DOPC  H16X24754   5.840   2.059   4.723  0.4351 -0.3127  1.9841
  199DOPC  H16Y24755   5.669   2.068   4.774  1.0308  1.4831 -0.1909
  199DOPC  C31724756   5.760   1.861   4.772 -0.5155 -0.8392 -0.0984
  199DOPC  H17X24757   5.836   1.809   4.711 -1.6179 -0.3743 -1.9334
  199DOPC  H17Y24758   5.808   1.873   4.872  1.6828  0.8023 -1.2871
  199DOPC  C31824759   5.641   1.763   4.769 -0.6923 -0.4737 -0.1779
  199DOPC  H18X24760   5.558   1.821   4.722  0.2857 -0.6319 -2.1971
  199DOPC  H18Y24761   5.666   1.684   4.696  0.6356  0.4873 -0.8113
  199DOPC  H18Z24762   5.610   1.730   4.871  1.1327 -0.5573  0.3809
  200DOPC     N24763   2.158   5.870   2.569  0.0714  0.4118 -0.2307
  200DOPC   C1224764   2.121   5.975   2.674 -0.7923  0.8811  0.3943
  200DOPC  H12A24765   2.216   6.021   2.700  0.6104  0.2901 -3.0885
  200DOPC  H12B24766   2.089   5.927   2.765  1.7182 -3.4374 -0.7297
  200DOPC   C1324767   2.265   5.781   2.624 -1.3386  0.2419  0.6094
  200DOPC  H13A24768   2.240   5.737   2.720 -0.7869 -2.5671 -0.4358
  200DOPC  H13B24769   2.297   5.701   2.559 -0.5297  1.5464 -0.6469
  200DOPC  H13C24770   2.358   5.835   2.628 -1.8431  1.1424  0.2561
  200DOPC   C1424771   2.212   5.934   2.451  0.3198 -0.5079  0.1684
  200DOPC  H14A24772   2.140   6.001   2.407  1.7090  1.3456  0.5621
  200DOPC  H14B24773   2.300   5.991   2.477 -1.0267  0.8661  1.8850
  200DOPC  H14C24774   2.247   5.854   2.388  0.0086 -3.0976  3.0726
  200DOPC   C1524775   2.032   5.790   2.539  0.1500 -0.1098  0.1747
  200DOPC  H15A24776   2.001   5.716   2.612 -0.7072  0.3712  0.3115
  200DOPC  H15B24777   2.057   5.736   2.449  1.7983 -2.2505  1.7841
  200DOPC  H15C24778   1.951   5.861   2.542  1.9928  2.0744  2.7611
  200DOPC   C1124779   1.997   6.072   2.637 -0.0173 -0.3642 -0.2765
  200DOPC  H11A24780   2.008   6.158   2.706 -0.0720 -0.9449  0.4679
  200DOPC  H11B24781   2.005   6.111   2.533 -2.7547  2.6555  0.4643
  200DOPC     P24782   1.783   6.007   2.769 -0.2970  0.0125 -0.3888
  200DOPC   O1324783   1.680   5.910   2.745  0.0957  0.2574 -0.0417
  200DOPC   O1424784   1.734   6.143   2.787  0.0148 -0.2942 -0.0473
  200DOPC   O1224785   1.872   6.005   2.641 -0.2593  0.4014 -0.4752
  200DOPC   O1124786   1.868   5.969   2.895 -0.3054 -0.0460 -0.0151
  200DOPC    C124787   1.955   6.064   2.967 -0.3704  0.8295 -0.5741
  200DOPC    HA24788   1.937   6.170   2.939 -1.6671  0.5254 -0.9832
  200DOPC    HB24789   2.063   6.050   2.946 -0.3101  0.2539  0.0555
  200DOPC    C224790   1.960   6.045   3.121  0.5400  0.4525  0.2428
  200DOPC    HS24791   1.988   5.939   3.139  3.8743  1.4699  2.0868
  200DOPC   O2124792   1.833   6.087   3.179  0.3466  0.3083  0.0724
  200DOPC   C2124793   1.802   6.016   3.288 -0.3453  0.0004 -0.2894
  200DOPC   O2224794   1.858   5.916   3.333 -0.0897  0.0353  0.2552
  200DOPC   C2224795   1.686   6.090   3.360 -0.1412 -0.8791  0.2195
  200DOPC   H2R24796   1.589   6.039   3.343 -0.6030  0.5725 -1.8831
  200DOPC   H2S24797   1.680   6.189   3.308 -1.9642 -2.3841 -2.7060
  200DOPC    C324798   2.071   6.137   3.180  0.5112  0.5198 -0.2073
  200DOPC    HX24799   2.055   6.234   3.127  2.0388 -0.3944 -2.5313
  200DOPC    HY24800   2.172   6.103   3.149 -0.2916 -1.1647 -1.1386
  200DOPC   O3124801   2.059   6.150   3.325 -0.1662 -0.1343 -0.2882
  200DOPC   C3124802   2.152   6.235   3.376 -0.0195  0.0456 -0.4266
  200DOPC   O3224803   2.225   6.298   3.305  0.2908 -0.3357 -0.2956
  200DOPC   C3224804   2.126   6.259   3.529  0.1086  0.4401  0.4648
  200DOPC   H2X24805   2.092   6.164   3.575  2.2972 -0.5363  0.1754
  200DOPC   H2Y24806   2.230   6.277   3.563 -0.0266  0.7688  0.7102
  200DOPC   C2324807   1.708   6.122   3.512 -0.2397 -0.2648 -0.4272
  200DOPC   H3R24808   1.789   6.198   3.513  1.1116 -1.4687 -3.9221
  200DOPC   H3S24809   1.750   6.037   3.570 -1.1852 -0.2065  0.3615
  200DOPC   C2424810   1.582   6.162   3.584  0.2432 -0.4451  0.4242
  200DOPC   H4R24811   1.517   6.077   3.616  1.4522 -1.3062  0.6646
  200DOPC   H4S24812   1.522   6.235   3.525 -0.4060 -0.5521  0.9339
  200DOPC   C2524813   1.608   6.243   3.708 -0.8327  0.1542  0.1741
  200DOPC   H5R24814   1.662   6.337   3.682  0.1060  0.1005  1.7273
  200DOPC   H5S24815   1.676   6.177   3.767 -2.3192 -2.9751 -1.4410
  200DOPC   C2624816   1.486   6.258   3.801 -0.0751  0.0239 -0.5946
  200DOPC   H6R24817   1.430   6.165   3.825 -0.1929  0.5431  1.3481
  200DOPC   H6S24818   1.407   6.322   3.758  0.7649  0.6875 -1.1768
  200DOPC   C2724819   1.532   6.329   3.934  0.2930  0.6726  0.3729
  200DOPC   H7R24820   1.598   6.413   3.905  1.2762 -0.3692 -0.5583
  200DOPC   H7S24821   1.597   6.255   3.986  0.9465  2.3365  1.9987
  200DOPC   C2824822   1.415   6.380   4.018  0.7090  0.0569 -0.1438
  200DOPC   H8R24823   1.359   6.462   3.967  1.0396  0.6533  0.4451
  200DOPC   H8S24824   1.450   6.432   4.109 -0.8647 -1.2137  1.2601
  200DOPC   C2924825   1.319   6.269   4.051  0.2078  0.2265 -0.3873
  200DOPC   H9R24826   1.362   6.183   4.103  0.7742  0.9399  0.3428
  200DOPC  C21024827   1.187   6.257   4.025 -0.3465  0.2515  0.0374
  200DOPC  H10R24828   1.148   6.162   4.064  1.0084 -0.4062 -0.1645
  200DOPC  C21124829   1.089   6.355   3.960 -0.4015 -0.2098  0.7580
  200DOPC  H11R24830   1.094   6.325   3.853  3.4274  1.2526  0.3753
  200DOPC  H11S24831   1.133   6.457   3.955  0.4122 -0.5924 -1.5832
  200DOPC  C21224832   0.951   6.362   4.018  0.1642 -0.8898  0.5336
  200DOPC  H12R24833   0.904   6.261   4.024  0.9510 -1.2606  0.5262
  200DOPC  H12S24834   0.897   6.424   3.942 -0.8279  0.2004  2.0795
  200DOPC  C21324835   0.942   6.422   4.159  0.1409 -0.1153  0.4960
  200DOPC  H13R24836   1.010   6.372   4.232 -2.3154 -3.3913  0.7721
  200DOPC  H13S24837   0.839   6.409   4.199  0.0587  1.4502  0.8678
  200DOPC  C21424838   0.954   6.577   4.168 -0.5217  0.4738  0.2259
  200DOPC  H14R24839   0.883   6.629   4.100  1.5132  0.7858 -1.7717
  200DOPC  H14S24840   1.050   6.613   4.127 -0.9747  1.7225  0.2212
  200DOPC  C21524841   0.934   6.628   4.305  0.4685 -0.2724 -0.3215
  200DOPC  H15R24842   1.028   6.615   4.362 -0.9526 -1.3339  1.8961
  200DOPC  H15S24843   0.853   6.581   4.364 -0.9592  1.3157 -0.9248
  200DOPC  C21624844   0.913   6.782   4.310  0.1148 -0.4032 -0.2284
  200DOPC  H16R24845   0.814   6.804   4.265 -0.5314  0.2763  1.4427
  200DOPC  H16S24846   0.999   6.828   4.257  0.7992 -0.4421  0.8074
  200DOPC  C21724847   0.901   6.830   4.461  0.1402  0.3496 -0.2209
  200DOPC  H17R24848   0.819   6.773   4.510 -1.5083  3.2113  0.5836
  200DOPC  H17S24849   0.862   6.934   4.458  1.3134  0.8405  0.6034
  200DOPC  C21824850   1.030   6.834   4.543  0.0236 -0.5455 -0.4059
  200DOPC  H18R24851   1.045   6.735   4.592  0.5807 -0.1721  0.2027
  200DOPC  H18S24852   1.011   6.911   4.621 -4.9150  0.0737 -1.9090
  200DOPC  H18T24853   1.117   6.851   4.476 -0.4898 -0.3824 -1.0417
  200DOPC   C3324854   2.045   6.386   3.562  1.0493  0.2391  0.1679
  200DOPC   H3X24855   1.939   6.377   3.529  1.4906  0.3310 -1.3557
  200DOPC   H3Y24856   2.102   6.469   3.515 -0.3349 -0.6864 -3.4906
  200DOPC   C3424857   2.050   6.409   3.713  0.2604  0.0692 -0.0533
  200DOPC   H4X24858   1.992   6.504   3.722 -1.7205 -0.9130 -1.6459
  200DOPC   H4Y24859   2.148   6.421   3.763 -0.6302 -0.9435  2.0847
  200DOPC   C3524860   1.975   6.308   3.802  0.5686  0.0346 -0.2888
  200DOPC   H5X24861   2.012   6.205   3.781  0.2419  0.2009 -1.7917
  200DOPC   H5Y24862   1.869   6.310   3.769  0.1593 -1.9586  0.7372
  200DOPC   C3624863   1.985   6.333   3.955  0.1589  0.0012  0.2979
  200DOPC   H6X24864   1.939   6.250   4.012  1.6025  0.0196  1.5540
  200DOPC   H6Y24865   2.086   6.345   4.000  0.1786  1.4300 -0.0519
  200DOPC   C3724866   1.929   6.471   3.975  0.4709 -0.3068 -1.2082
  200DOPC   H7X24867   2.003   6.545   3.937  0.4863  0.9635  1.1229
  200DOPC   H7Y24868   1.835   6.484   3.918 -2.3369  3.0075  3.4636
  200DOPC   C3824869   1.912   6.499   4.131  0.3421  0.0468 -0.3083
  200DOPC   H8X24870   2.011   6.503   4.181 -0.4648  0.3008  1.3031
  200DOPC   H8Y24871   1.857   6.411   4.171  0.1467 -0.3908 -1.4814
  200DOPC   C3924872   1.827   6.619   4.166  0.4881  0.1659 -0.3609
  200DOPC   H9X24873   1.815   6.688   4.082  1.0027  0.1207 -0.4793
  200DOPC  C31024874   1.791   6.651   4.289 -0.4498 -0.1343 -0.4881
  200DOPC  H10X24875   1.725   6.738   4.296 -0.1679 -0.0325  1.3754
  200DOPC  C31124876   1.840   6.575   4.414  0.3618 -0.4996 -0.7526
  200DOPC  H11X24877   1.832   6.466   4.391  0.3941 -0.8806  0.9321
  200DOPC  H11Y24878   1.768   6.590   4.497  0.8995 -1.4002 -0.1045
  200DOPC  C31224879   1.979   6.608   4.457 -0.3852 -0.2185  0.2683
  200DOPC  H12X24880   1.987   6.701   4.517  1.6856  0.0965 -0.4058
  200DOPC  H12Y24881   2.030   6.625   4.360  0.0004  0.7571  0.6298
  200DOPC  C31324882   2.057   6.494   4.531 -0.8713  0.6597  0.4472
  200DOPC  H13X24883   2.059   6.403   4.467 -0.6300  2.0924 -1.6526
  200DOPC  H13Y24884   2.162   6.528   4.549 -0.8137  0.4692  0.4746
  200DOPC  C31424885   1.986   6.452   4.663 -0.1894 -0.4140 -0.0116
  200DOPC  H14X24886   1.993   6.535   4.737  0.8466 -0.3101 -0.2096
  200DOPC  H14Y24887   1.881   6.424   4.638  0.2356 -0.7655 -1.5125
  200DOPC  C31524888   2.040   6.318   4.731  0.2751 -0.2248  0.5151
  200DOPC  H15X24889   2.031   6.232   4.662  1.1183  1.7930 -2.2899
  200DOPC  H15Y24890   1.967   6.301   4.814 -0.8336  0.3069 -0.3192
  200DOPC  C31624891   2.184   6.328   4.781 -0.4985 -0.2256 -0.0165
  200DOPC  H16X24892   2.247   6.317   4.690 -0.0277 -0.1086  0.2901
  200DOPC  H16Y24893   2.187   6.434   4.815 -1.6013 -0.2839  0.2884
  200DOPC  C31724894   2.232   6.250   4.906  0.9259 -0.9437 -0.1719
  200DOPC  H17X24895   2.330   6.294   4.933  0.6144  0.5219 -1.2938
  200DOPC  H17Y24896   2.154   6.265   4.983 -1.4412 -0.3915 -2.5319
  200DOPC  C31824897   2.256   6.098   4.871  0.5452 -0.6439  0.4441
  200DOPC  H18X24898   2.341   6.097   4.798  1.9225  0.0022  1.9730
  200DOPC  H18Y24899   2.290   6.049   4.964  1.4028 -0.6710  0.1270
  200DOPC  H18Z24900   2.168   6.053   4.820  0.4882 -1.1050  0.9437
  201SOD    SOD24901   7.231   0.078   7.281 -0.2202 -0.2307 -0.3626
  202SOD    SOD24902   1.714   1.438   2.696  0.2682  0.2640 -0.1570
  203SOD    SOD24903   3.890   5.445   7.491 -0.0797 -0.0649  0.1164
  204SOD    SOD24904   5.593   3.165   1.642 -0.1462 -0.0509  0.3896
  205SOD    SOD24905   1.476   3.695   7.063  0.1174 -0.6267  0.1571
  206SOD    SOD24906   4.790   0.706   3.180 -0.0394  0.1305  0.3559
  207SOD    SOD24907   6.477   3.303   1.965 -0.4298 -0.2420  0.1048
  208SOD    SOD24908   1.356   4.193   7.530 -0.1393  0.2045 -0.5409
  209SOD    SOD24909   6.655   3.202   3.067 -0.2672  0.5790  0.4663
  210SOD    SOD24910   3.243   3.046   7.759 -0.0818  0.1648  0.1910
  211SOD    SOD24911   2.812   1.510   8.370  0.5418 -0.1563 -0.0061
  212SOD    SOD24912   1.735   2.785   6.595 -0.2934 -0.0473 -0.3415
  213SOD    SOD24913   4.875   2.126   3.482  0.1227 -0.3375 -0.2202
  214SOD    SOD24914   7.277   2.538   8.564  0.3961  0.0072  0.2425
  215SOD    SOD24915   2.640   5.497   8.602 -0.4876  0.4897  0.0675
  216SOD    SOD24916   4.397   6.182   7.482 -0.1368 -0.1170  0.2745
  217SOD    SOD24917   1.219   6.892   2.433 -0.4377 -0.8572 -0.3271
  218SOD    SOD24918   3.498   6.983   7.628  0.0871 -0.2485 -0.6203
  219SOD    SOD24919   6.300   7.610   7.566  0.1453 -0.0044 -0.3434
  220SOD    SOD24920   6.214   3.694   2.103 -0.0689  0.3226 -0.4449
  221SOD    SOD24921   1.967   0.086   1.457  0.4886  0.2757  0.1640
  222SOD    SOD24922   4.341   7.287   8.377  0.5123 -0.7405  0.4094
  223SOD    SOD24923   6.940   6.931   2.427 -0.1615  0.0010 -0.1216
  224SOD    SOD24924   4.190   6.999   0.659  0.3293 -0.2367  0.4315
  225SOD    SOD24925   2.379   0.783   2.434 -0.0868 -0.2259 -0.3454
  226SOD    SOD24926   0.705   5.008   8.642  0.4005 -0.3876 -0.0038
  227CLA    CLA24927   3.629   6.851   2.011  0.0200  0.0159  0.0945
  228CLA    CLA24928   5.819   6.111   2.279  0.0854 -0.1353 -0.5221
  229CLA    CLA24929   5.935   3.408   1.894 -0.3891 -0.4460 -0.0869
  230CLA    CLA24930   1.353   2.617   8.034  0.1093  0.2631  0.0330
  231CLA    CLA24931   2.402   5.667   8.629  0.1524 -0.2734  0.0515
  232CLA    CLA24932   3.558   4.744   8.874 -0.2466  0.0436 -0.1676
  233CLA    CLA24933   0.532   2.610   8.941 -0.0362  0.3179 -0.0675
  234CLA    CLA24934   5.023   5.003   7.780  0.2526 -0.3634 -0.0800
  235CLA    CLA24935   1.886   4.481   2.119 -0.7132 -0.0827  0.3374
  236CLA    CLA24936   3.716   6.140   7.584 -0.0012 -0.3869 -0.1757
  237CLA    CLA24937   4.771   3.690   8.328  0.5349  0.1248 -0.1366
  238CLA    CLA24938   0.020   2.271   1.491  0.3236 -0.4958  0.0543
  239CLA    CLA24939   0.785   0.531   1.560 -0.2467  0.0748  0.1881
  240CLA    CLA24940   3.535   6.276   8.567 -0.1564 -0.0975  0.0351
  241CLA    CLA24941   6.527   0.683   2.341  0.5527 -0.6023  0.0962
  242CLA    CLA24942   4.794   6.714   8.244  0.1708  0.2073 -0.3697
  243CLA    CLA24943   1.554   6.156   1.265  0.2494 -0.2091  0.1079
  244CLA    CLA24944   2.012   2.100   1.079 -0.0983 -0.0533 -0.3710
  245CLA    CLA24945   4.486   5.211   2.458 -0.0442  0.1345  0.0866
  246CLA    CLA24946   0.312   1.737   8.444 -0.2319 -0.0461 -0.5712
  247CLA    CLA24947   5.465   2.445   0.928  0.0427  0.0079  0.4258
  248CLA    CLA24948   1.160   2.704   1.689  0.2724  0.0270  0.3047
  249CLA    CLA24949   5.238   4.940   2.293 -0.0045 -0.1719  0.0941
  250CLA    CLA24950   2.286   1.660   7.827 -0.6303 -0.1177  0.3105
  251CLA    CLA24951   6.520   1.087   8.164  0.0176 -0.1145  0.2861
  252CLA    CLA24952   5.056   4.261   1.044 -0.1080 -0.2851  0.0588
  253TIP3   OH224953   7.663   2.952   6.841 -0.1626  0.1547  0.3224
  253TIP3    H124954   7.659   2.892   6.766  0.2569  0.6272 -0.0862
  253TIP3    H224955   7.575   2.952   6.877 -1.0141  1.7406 -1.6052
  254TIP3   OH224956   4.613   6.749   7.207 -0.3486 -0.1780  0.2271
  254TIP3    H124957   4.576   6.837   7.203 -0.9041 -0.4512 -2.3032
  254TIP3    H224958   4.704   6.760   7.180 -0.1445 -0.2817  0.8484
  255TIP3   OH224959   2.415   0.383   9.470 -0.1150  0.1754 -0.0251
  255TIP3    H124960   2.357   0.355   9.399  1.0283  0.5420 -1.1327
  255TIP3    H224961   2.451   0.301   9.505 -1.2016 -0.0477  0.6010
  256TIP3   OH224962   4.624   7.084   9.161  0.0791 -0.0020 -0.2406
  256TIP3    H124963   4.698   7.071   9.102  1.3571  0.4440  1.1922
  256TIP3    H224964   4.657   7.143   9.228 -0.7153 -1.8536  1.9086
  257TIP3   OH224965   2.053   6.031   7.732  0.7117  0.1191  0.8205
  257TIP3    H124966   2.048   6.122   7.705 -1.1072 -0.2178 -0.1321
  257TIP3    H224967   2.146   6.008   7.723  1.1344  1.7496  0.7606
  258TIP3   OH224968   4.271   4.706   8.479 -0.0599  0.1184 -0.8238
  258TIP3    H124969   4.236   4.690   8.567  2.1930 -0.8003 -0.0404
  258TIP3    H224970   4.201   4.676   8.420 -1.1603 -0.3191  0.6305
  259TIP3   OH224971   2.897   7.114   9.431  0.0325 -0.1084  0.0986
  259TIP3    H124972   2.969   7.155   9.384 -0.9829  1.1390 -0.4193
  259TIP3    H224973   2.920   7.021   9.433  2.8590  0.5008  2.1597
  260TIP3   OH224974   1.697   2.808   9.068 -0.0597  0.2385  0.6456
  260TIP3    H124975   1.632   2.739   9.079 -0.0272  0.0774 -0.0841
  260TIP3    H224976   1.646   2.890   9.068 -0.1010  0.2196  1.4786
  261TIP3   OH224977   5.429   7.406   8.284 -0.5141  0.5316 -0.7570
  261TIP3    H124978   5.431   7.492   8.324  0.4077  0.5919 -0.9103
  261TIP3    H224979   5.425   7.423   8.190 -0.0494  0.4217 -0.8025
  262TIP3   OH224980   0.815   6.886   8.216  0.1168  0.4011 -0.0005
  262TIP3    H124981   0.868   6.824   8.165 -0.3215  0.2319 -0.2579
  262TIP3    H224982   0.758   6.830   8.269  0.1723  0.5806  0.2457
  263TIP3   OH224983   2.497   6.316   6.927  0.1818  0.1346 -0.1870
  263TIP3    H124984   2.503   6.229   6.887 -0.1864 -0.4971  1.0698
  263TIP3    H224985   2.404   6.338   6.922  0.3486  0.7033 -0.9708
  264TIP3   OH224986   2.134   5.663   7.068 -0.1288 -0.0201  0.6652
  264TIP3    H124987   2.087   5.588   7.032  1.6171 -0.3360 -1.1236
  264TIP3    H224988   2.118   5.659   7.162 -2.0933 -1.1653  0.3202
  265TIP3   OH224989   3.977   6.576   9.308  0.1948  0.5563 -0.0704
  265TIP3    H124990   4.023   6.634   9.369 -0.4363  1.0733 -0.0683
  265TIP3    H224991   4.017   6.594   9.223  1.9435 -1.0800  0.3525
  266TIP3   OH224992   0.522   4.591   8.244  0.4040 -0.1561 -0.3452
  266TIP3    H124993   0.448   4.626   8.195  0.6773  1.2310  0.1889
  266TIP3    H224994   0.492   4.592   8.336  1.6927  2.2117  0.1205
  267TIP3   OH224995   3.897   4.266   7.309  0.1272  0.7277 -0.8106
  267TIP3    H124996   3.897   4.258   7.404  1.3712  0.0424 -0.8489
  267TIP3    H224997   3.982   4.304   7.288 -0.8007  2.4696 -1.5513
  268TIP3   OH224998   4.913   1.886   8.530  0.3992 -0.7141  0.2738
  268TIP3    H124999   4.840   1.942   8.555  1.4793  1.0006 -0.2984
  268TIP3    H225000   4.873   1.799   8.521 -0.9650 -0.4598  2.9021
  269TIP3   OH225001   0.071   7.578   8.229 -0.1695 -0.7194 -0.1162
  269TIP3    H125002   0.153   7.628   8.228  0.1204 -1.1972 -0.5829
  269TIP3    H225003   0.048   7.573   8.322  0.3308 -0.5841  0.0187
  270TIP3   OH225004   2.988   7.289   8.642  0.2505 -0.2917 -0.0054
  270TIP3    H125005   2.959   7.293   8.733  1.9896 -1.7624  0.6855
  270TIP3    H225006   3.031   7.203   8.634 -0.8035 -0.6883 -2.5273
  271TIP3   OH225007   4.300   2.232   8.196 -0.2534  0.3301 -0.5931
  271TIP3    H125008   4.358   2.281   8.254  0.2849  0.0790 -0.9064
  271TIP3    H225009   4.343   2.235   8.111 -0.8426  0.3680 -0.8972
  272TIP3   OH225010   6.952   6.039   7.956  0.4776 -0.0454 -0.2907
  272TIP3    H125011   6.884   5.983   7.919  1.1918 -1.4914  0.4824
  272TIP3    H225012   6.905   6.118   7.984 -0.2438  0.6707 -3.2012
  273TIP3   OH225013   2.775   7.375   8.090 -0.0135 -0.3558  0.0938
  273TIP3    H125014   2.817   7.459   8.109 -2.7520  1.5381 -1.4623
  273TIP3    H225015   2.750   7.341   8.176 -0.0930  1.1539  0.7053
  274TIP3   OH225016   1.782   5.905   9.008  0.1026 -0.4189  0.0833
  274TIP3    H125017   1.743   5.820   9.026 -1.5783  0.1852 -0.4738
  274TIP3    H225018   1.732   5.967   9.061  0.7355  0.3269 -0.1584
  275TIP3   OH225019   2.675   0.637   7.718 -0.5258 -0.0971  0.4837
  275TIP3    H125020   2.601   0.629   7.778 -0.8371  0.9396  0.2652
  275TIP3    H225021   2.729   0.560   7.735 -0.8878 -0.0950  1.7026
  276TIP3   OH225022   0.946   2.138   9.575 -0.2922 -0.3352 -0.3093
  276TIP3    H125023   1.040   2.153   9.576 -0.5462  2.9666  4.1611
  276TIP3    H225024   0.910   2.208   9.521 -0.3063 -0.9387 -1.1063
  277TIP3   OH225025   6.625   7.147   8.665 -0.0161  0.3117  0.3180
  277TIP3    H125026   6.714   7.141   8.629 -0.1282 -3.2267  0.2777
  277TIP3    H225027   6.628   7.222   8.725  2.8648  0.5067  0.0664
  278TIP3   OH225028   0.304   7.483   8.704  0.7890  0.0991 -0.3368
  278TIP3    H125029   0.286   7.437   8.787 -0.5059  1.3335  0.0918
  278TIP3    H225030   0.289   7.416   8.637  0.5573 -0.5621  0.3514
  279TIP3   OH225031   3.368   4.631   6.963  0.1480 -0.2119  0.5721
  279TIP3    H125032   3.367   4.686   6.886 -1.8467 -0.1706  0.5730
  279TIP3    H225033   3.361   4.542   6.929 -2.8689 -0.1046  0.6671
  280TIP3   OH225034   3.387   6.073   7.293 -0.2993  0.3960 -0.0608
  280TIP3    H125035   3.349   6.160   7.285 -2.6410 -0.3827  1.5461
  280TIP3    H225036   3.351   6.024   7.220 -0.4000  0.3146  0.0429
  281TIP3   OH225037   5.883   0.900   6.934  0.1605  0.6422 -0.0747
  281TIP3    H125038   5.863   0.981   6.980 -0.6043  0.5955 -0.3041
  281TIP3    H225039   5.906   0.927   6.845  0.4662  0.6491  0.0071
  282TIP3   OH225040   2.885   6.473   7.563  0.1684 -0.0062  0.6237
  282TIP3    H125041   2.825   6.429   7.623 -0.8440 -1.6283 -1.4544
  282TIP3    H225042   2.951   6.408   7.543 -1.3798 -0.7863 -2.5463
  283TIP3   OH225043   5.963   2.084   8.702  0.4239  0.3328  0.1260
  283TIP3    H125044   5.971   2.109   8.610  2.4478 -0.4177  0.0424
  283TIP3    H225045   5.869   2.089   8.721 -0.1508 -0.4473 -2.2285
  284TIP3   OH225046   7.680   4.502   1.171 -0.3020 -0.6793 -0.4016
  284TIP3    H125047   7.711   4.463   1.089 -2.3850  0.1565 -1.6676
  284TIP3    H225048   7.678   4.596   1.154  2.9331  0.0043  2.0165
  285TIP3   OH225049   2.032   3.212   1.909  0.1859 -0.5135  0.2341
  285TIP3    H125050   1.957   3.263   1.939  0.5729  0.6338 -0.6721
  285TIP3    H225051   2.028   3.130   1.960 -1.4701 -0.3346  0.4385
  286TIP3   OH225052   2.550   7.520   0.873  0.0924 -1.1230  0.4888
  286TIP3    H125053   2.630   7.554   0.833 -0.1053 -1.1831  0.0472
  286TIP3    H225054   2.580   7.478   0.954  0.9204 -3.7283 -1.0515
  287TIP3   OH225055   4.698   0.087   0.988  0.6097  0.2031  0.7561
  287TIP3    H125056   4.732  -0.002   0.976 -0.2045  0.0693 -0.8680
  287TIP3    H225057   4.661   0.087   1.076 -0.0446 -1.3209  0.5212
  288TIP3   OH225058   7.128   4.494   2.800 -0.3701  0.0238 -0.1426
  288TIP3    H125059   7.111   4.419   2.857 -0.1059 -0.4822 -0.7233
  288TIP3    H225060   7.202   4.539   2.842 -2.1701  1.5124  1.6858
  289TIP3   OH225061   4.117   2.090   1.199  0.5043  0.0400  0.5448
  289TIP3    H125062   4.143   2.074   1.290  2.5501  0.0267  0.0128
  289TIP3    H225063   4.089   2.003   1.167  1.6910 -0.3839  0.6131
  290TIP3   OH225064   1.344   2.415   1.672 -0.4618 -0.0316  0.2290
  290TIP3    H125065   1.311   2.354   1.738 -0.7993  0.8494  0.8922
  290TIP3    H225066   1.297   2.497   1.689 -2.5524 -0.4364 -2.7345
  291TIP3   OH225067   4.426   4.853   1.888 -0.3598 -0.2967 -0.4483
  291TIP3    H125068   4.471   4.796   1.951 -1.1323  0.2707  0.6450
  291TIP3    H225069   4.497   4.891   1.836  0.2040 -1.8431 -0.8801
  292TIP3   OH225070   5.195   0.479   2.162  0.6387  0.6065 -0.1261
  292TIP3    H125071   5.273   0.536   2.159 -0.4211  2.0724 -1.9327
  292TIP3    H225072   5.125   0.537   2.193  0.1249 -0.5629  0.9735
  293TIP3   OH225073   4.641   7.087   3.176 -0.1272  0.4872  0.3227
  293TIP3    H125074   4.692   7.009   3.153  1.0057  0.7705  1.7459
  293TIP3    H225075   4.684   7.158   3.129 -0.5354  0.4151 -0.1662
  294TIP3   OH225076   2.794   2.398   3.277  0.1097 -0.1913  0.4295
  294TIP3    H125077   2.818   2.472   3.332  4.9085 -1.7669  0.9101
  294TIP3    H225078   2.802   2.322   3.334  1.9219 -1.5742 -1.5111
  295TIP3   OH225079   2.036   5.431   1.238  0.1584  0.5724 -0.1717
  295TIP3    H125080   1.960   5.427   1.180 -0.9296 -0.4053  1.2524
  295TIP3    H225081   2.085   5.351   1.218 -0.3061  0.1505  0.3698
  296TIP3   OH225082   4.841   6.347   1.700 -0.2055 -0.0729  0.4197
  296TIP3    H125083   4.868   6.404   1.771  1.0963 -0.6504  0.4337
  296TIP3    H225084   4.890   6.265   1.715 -1.0597 -0.7338 -0.2886
  297TIP3   OH225085   2.133   3.938   1.454 -0.5611 -0.4606  0.0879
  297TIP3    H125086   2.154   3.880   1.527 -1.7428  0.2166  0.9879
  297TIP3    H225087   2.094   3.880   1.388  1.5809 -1.2817 -0.5535
  298TIP3   OH225088   7.575   2.831   2.278  0.5195 -0.5087 -0.1398
  298TIP3    H125089   7.632   2.764   2.238 -0.2885 -1.0591 -0.3915
  298TIP3    H225090   7.515   2.782   2.334 -0.0149  0.0186 -0.2380
  299TIP3   OH225091   6.218   0.609   1.962 -0.1981 -0.0105  0.9072
  299TIP3    H125092   6.140   0.563   1.992 -0.1034 -1.3629 -0.7498
  299TIP3    H225093   6.195   0.701   1.966 -1.7997 -0.3743  0.6864
  300TIP3   OH225094   2.948   2.435   1.960 -0.2416 -0.4847 -0.2565
  300TIP3    H125095   2.871   2.448   2.015 -1.0185 -1.1609 -1.1566
  300TIP3    H225096   3.019   2.478   2.008 -1.5278  1.8169 -0.2867
  301TIP3   OH225097   1.901   1.539   2.554  0.5306 -0.2698 -0.4075
  301TIP3    H125098   1.872   1.607   2.494  1.1993 -1.2152 -1.8579
  301TIP3    H225099   1.983   1.572   2.590 -2.6648  3.2846  5.1378
  302TIP3   OH225100   1.219   5.743   1.739  0.0907  0.5087  0.5120
  302TIP3    H125101   1.239   5.760   1.646 -0.9546  2.1325  0.5473
  302TIP3    H225102   1.144   5.684   1.737  0.1372  0.4537  0.3277
  303TIP3   OH225103   0.389   7.598   1.223  0.0928  0.1690 -0.0339
  303TIP3    H125104   0.421   7.571   1.136  1.5727  0.7160  0.3076
  303TIP3    H225105   0.421   7.687   1.233  0.3182 -0.0454  1.2617
  304TIP3   OH225106   7.301   4.369   0.609 -0.2777  0.4091  0.1625
  304TIP3    H125107   7.374   4.348   0.667 -0.0910  0.6010 -0.0006
  304TIP3    H225108   7.257   4.443   0.651  0.5179  1.2824 -0.4873
  305TIP3   OH225109   5.379   1.327   1.704  0.3827  0.2432  0.0542
  305TIP3    H125110   5.325   1.381   1.762  1.9239  0.9390  0.9112
  305TIP3    H225111   5.389   1.244   1.751 -1.1062 -0.4531 -0.7809
  306TIP3   OH225112   5.887   0.359   1.358  0.1416  0.2000  0.3964
  306TIP3    H125113   5.876   0.421   1.286  0.4880  0.3271  0.4520
  306TIP3    H225114   5.942   0.405   1.422 -1.1443  0.5310  1.2844
  307TIP3   OH225115   3.797   2.710   2.536 -0.4184  0.1053  0.0749
  307TIP3    H125116   3.795   2.758   2.619 -1.6079  1.0500 -0.4727
  307TIP3    H225117   3.835   2.771   2.474  0.3965 -0.5744 -0.1112
  308TIP3   OH225118   2.153   1.899   2.375 -0.0565 -0.0394 -0.0583
  308TIP3    H125119   2.138   1.875   2.284  0.9408 -0.1051 -0.2126
  308TIP3    H225120   2.226   1.960   2.372  0.0788 -0.1544  0.7107
  309TIP3   OH225121   3.113   6.666   1.000 -0.2919 -0.1544  0.5778
  309TIP3    H125122   3.068   6.652   0.916  0.7249 -1.3603  0.1978
  309TIP3    H225123   3.050   6.638   1.066 -0.7965  0.0009  0.1688
  310TIP3   OH225124   3.404   6.288   0.953 -0.0410  0.2910  0.3621
  310TIP3    H125125   3.382   6.306   0.862 -0.1917  2.6781  0.8279
  310TIP3    H225126   3.474   6.222   0.948 -0.4914 -0.0993 -1.4310
  311TIP3   OH225127   0.068   3.343   3.845  0.2851  0.9667 -0.0171
  311TIP3    H125128   0.158   3.351   3.877  0.6044  0.9757 -0.9035
  311TIP3    H225129   0.073   3.278   3.775 -0.4695  0.6845  0.1793
  312TIP3   OH225130   7.231   1.438   2.679 -0.5448  0.3027 -0.1014
  312TIP3    H125131   7.292   1.416   2.749 -0.1042  1.0874 -0.2233
  312TIP3    H225132   7.278   1.502   2.626 -1.0173  0.0095 -0.8967
  313TIP3   OH225133   2.790   3.459   0.964  0.1969  0.2723  0.0938
  313TIP3    H125134   2.801   3.421   1.051 -0.0799 -0.4235 -0.1638
  313TIP3    H225135   2.698   3.486   0.961 -0.0009 -0.4056 -0.2414
  314TIP3   OH225136   4.700   6.950   1.494 -0.6502  0.3179  0.2660
  314TIP3    H125137   4.670   6.870   1.539 -0.1938  0.9957  1.8506
  314TIP3    H225138   4.750   6.997   1.561 -1.6409  2.3572 -0.3621
  315TIP3   OH225139   7.408   5.928   2.321 -0.1347 -0.1187  0.4156
  315TIP3    H125140   7.460   5.847   2.313  0.1946  0.0362  0.9106
  315TIP3    H225141   7.381   5.930   2.413 -2.8088 -1.2627 -0.2495
  316TIP3   OH225142   1.475   4.035   2.215 -0.2731  0.5587  0.2769
  316TIP3    H125143   1.451   3.944   2.196 -0.0949  0.4978  0.3441
  316TIP3    H225144   1.541   4.028   2.284 -2.0158  0.8007  2.0887
  317TIP3   OH225145   1.706   4.932   1.512 -0.0794  0.2840 -0.1203
  317TIP3    H125146   1.755   4.863   1.469  0.4632  1.4858 -1.5101
  317TIP3    H225147   1.619   4.929   1.472 -0.1639  0.1966  0.0667
  318TIP3   OH225148   6.502   7.204   1.249  0.6685  0.2823  0.6398
  318TIP3    H125149   6.428   7.261   1.228  2.0146  1.7783 -0.2548
  318TIP3    H225150   6.571   7.230   1.189  1.9827 -0.9955  1.5107
  319TIP3   OH225151   4.796   5.780   1.405  0.2261  0.2982  0.1016
  319TIP3    H125152   4.796   5.856   1.347  0.7668  0.2905  0.0848
  319TIP3    H225153   4.798   5.818   1.493  0.8177  0.3114  0.0898
  320TIP3   OH225154   5.700   2.741   1.844 -0.1067 -0.0795  0.1509
  320TIP3    H125155   5.761   2.803   1.883  1.1226 -2.3195  1.9886
  320TIP3    H225156   5.745   2.708   1.767 -1.0457  1.6957 -1.2341
  321TIP3   OH225157   3.706   1.552   1.632 -0.1140  0.2102  0.2181
  321TIP3    H125158   3.769   1.484   1.654  0.8153  0.4824 -1.4033
  321TIP3    H225159   3.759   1.628   1.611 -0.9501  0.4362 -1.2352
  322TIP3   OH225160   6.085   2.481   1.273 -0.4884 -0.2188  0.3030
  322TIP3    H125161   6.017   2.524   1.324 -0.0673 -1.6181  2.1603
  322TIP3    H225162   6.156   2.545   1.269 -0.7000  0.0819  1.1229
  323TIP3   OH225163   7.217   5.706   8.510  0.1704 -0.1672 -0.9684
  323TIP3    H125164   7.203   5.775   8.446 -0.1274 -0.9742 -1.8025
  323TIP3    H225165   7.187   5.626   8.466  0.3573 -0.8060  0.0217
  324TIP3   OH225166   7.147   0.255   7.137 -0.2492 -0.4504 -0.0018
  324TIP3    H125167   7.062   0.212   7.130 -0.1844 -0.4289 -1.1188
  324TIP3    H225168   7.161   0.295   7.051  1.1673 -0.9777 -0.0464
  325TIP3   OH225169   4.551   0.273   8.778  0.1260  0.0513 -0.1898
  325TIP3    H125170   4.622   0.313   8.728  0.2701 -1.0539 -0.9012
  325TIP3    H225171   4.592   0.197   8.820 -0.4876 -0.2123 -0.0699
  326TIP3   OH225172   1.546   1.991   9.103 -0.5949  0.4082  0.0412
  326TIP3    H125173   1.497   2.020   9.026 -0.6077 -0.4861 -0.2964
  326TIP3    H225174   1.618   2.054   9.110  1.1047 -1.1002 -2.4546
  327TIP3   OH225175   7.637   6.814   7.733 -0.0620 -0.1986 -0.1587
  327TIP3    H125176   7.637   6.908   7.716  1.0970 -0.3916 -1.3360
  327TIP3    H225177   7.678   6.805   7.819 -2.1995  0.4849  1.0247
  328TIP3   OH225178   6.939   3.970   7.367 -0.1728  0.3538  0.2260
  328TIP3    H125179   6.942   4.025   7.289 -1.1732 -1.2850 -1.0275
  328TIP3    H225180   6.846   3.950   7.379  0.2399 -1.9527 -0.0483
  329TIP3   OH225181   5.317   1.947   7.111 -0.3340  0.5046 -0.3491
  329TIP3    H125182   5.236   1.999   7.116  0.0817  1.2903 -1.3955
  329TIP3    H225183   5.382   2.008   7.077  0.5526 -0.2975 -0.1132
  330TIP3   OH225184   7.147   1.461   7.054  0.1923  0.0306  0.5950
  330TIP3    H125185   7.204   1.390   7.085  0.2877  1.0398  2.9954
  330TIP3    H225186   7.192   1.497   6.978  0.8454 -1.5694  0.1928
  331TIP3   OH225187   4.955   1.209   9.547  0.0461  0.1425 -0.2322
  331TIP3    H125188   4.944   1.185   9.639  0.1699  2.1856  0.3700
  331TIP3    H225189   4.897   1.149   9.500 -2.0301  0.6996  1.4348
  332TIP3   OH225190   2.312   5.782   7.491 -0.0721  0.2838  0.5013
  332TIP3    H125191   2.383   5.765   7.552  1.9958 -0.4375 -1.9164
  332TIP3    H225192   2.293   5.875   7.501  2.8741  1.0754 -0.2930
  333TIP3   OH225193   1.814   0.037   9.298  0.4565 -0.3842  0.6427
  333TIP3    H125194   1.761   0.101   9.250  1.0579 -1.5774 -1.8120
  333TIP3    H225195   1.761   0.012   9.373  0.0587  2.6692  1.5024
  334TIP3   OH225196   1.056   4.278   7.902 -0.1702  0.2825 -0.1573
  334TIP3    H125197   0.976   4.228   7.889 -0.3782  0.3779  0.7299
  334TIP3    H225198   1.027   4.368   7.914  0.2195  0.7210 -2.0594
  335TIP3   OH225199   4.447   1.960   8.992  0.4661 -0.0704  0.4284
  335TIP3    H125200   4.491   2.031   8.945  0.2870 -0.2577 -0.0268
  335TIP3    H225201   4.476   1.880   8.946 -0.6904 -0.1713 -0.1690
  336TIP3   OH225202   5.633   5.601   6.949  0.2794  0.5106 -0.1326
  336TIP3    H125203   5.710   5.585   7.004 -0.4386  1.3503  1.1594
  336TIP3    H225204   5.564   5.547   6.987  0.3441 -0.7472 -1.6759
  337TIP3   OH225205   5.699   7.435   7.950 -0.3313  0.1255 -0.0541
  337TIP3    H125206   5.769   7.471   7.894  0.1065 -0.6348 -0.0098
  337TIP3    H225207   5.632   7.405   7.888 -0.0205 -0.3581 -0.1626
  338TIP3   OH225208   4.753   1.318   9.238  0.3502  0.1783  0.2031
  338TIP3    H125209   4.772   1.226   9.217  0.5164  0.3362 -0.3558
  338TIP3    H225210   4.706   1.314   9.321  0.6982 -0.3871  0.3790
  339TIP3   OH225211   4.051   5.779   9.064 -0.7332 -0.5221 -0.1336
  339TIP3    H125212   4.053   5.820   8.977  1.1394 -1.0116 -0.3559
  339TIP3    H225213   4.034   5.852   9.124  0.3939  0.2518 -0.7205
  340TIP3   OH225214   6.266   7.259   8.647  0.3135  0.4603  0.4209
  340TIP3    H125215   6.220   7.321   8.591  0.1237  0.5961  0.7262
  340TIP3    H225216   6.344   7.307   8.677 -0.3806  0.9394  1.5241
  341TIP3   OH225217   6.150   6.793   8.465 -0.4060 -0.0057  0.5224
  341TIP3    H125218   6.137   6.700   8.445 -0.0879 -0.7421  3.3109
  341TIP3    H225219   6.124   6.802   8.556 -0.1026  2.6109  0.4333
  342TIP3   OH225220   2.500   3.167   8.415 -0.1037 -0.1345  0.7604
  342TIP3    H125221   2.575   3.119   8.380  0.4513  1.9738 -1.1884
  342TIP3    H225222   2.423   3.122   8.380  0.3736 -0.3369 -0.0447
  343TIP3   OH225223   5.331   3.487   8.784 -0.3938 -0.2289 -0.2074
  343TIP3    H125224   5.351   3.578   8.807 -1.7282 -0.2750  1.3631
  343TIP3    H225225   5.251   3.468   8.834 -0.8716 -1.8578 -1.5256
  344TIP3   OH225226   3.079   5.398   6.715 -0.2108  0.1912 -0.3787
  344TIP3    H125227   3.070   5.370   6.806  2.1720 -2.1665 -0.7608
  344TIP3    H225228   3.021   5.340   6.666  0.8871 -0.7442 -0.6294
  345TIP3   OH225229   2.823   7.674   6.754  0.2398 -0.2347 -0.5614
  345TIP3    H125230   2.754   7.618   6.720  0.0354  1.3482 -2.9523
  345TIP3    H225231   2.904   7.637   6.717  0.8344 -2.1412  2.3029
  346TIP3   OH225232   6.623   3.488   7.769 -0.3718  0.0241 -0.3154
  346TIP3    H125233   6.583   3.402   7.772 -1.9139  0.7150 -0.1893
  346TIP3    H225234   6.616   3.515   7.677 -0.3459  0.2186 -0.2615
  347TIP3   OH225235   4.500   1.590   7.698 -0.2248  0.2792 -0.4533
  347TIP3    H125236   4.404   1.590   7.703 -0.3915 -0.3134 -2.6874
  347TIP3    H225237   4.524   1.499   7.682  0.7714  0.3355  0.6096
  348TIP3   OH225238   4.629   4.835   8.327  0.3314  0.2984 -0.0016
  348TIP3    H125239   4.672   4.761   8.372  2.4916  1.6759  0.3781
  348TIP3    H225240   4.678   4.845   8.246 -0.4916  0.7901 -0.4462
  349TIP3   OH225241   1.892   4.579   7.212 -0.5886 -0.0204 -0.0444
  349TIP3    H125242   1.903   4.531   7.130  1.6528 -0.8409  0.6771
  349TIP3    H225243   1.940   4.661   7.198  0.2523 -0.3931  0.6105
  350TIP3   OH225244   3.561   5.781   8.904 -0.0044  0.4545  0.2965
  350TIP3    H125245   3.539   5.860   8.854 -0.9855  1.0022  1.5088
  350TIP3    H225246   3.592   5.719   8.839  0.6446  1.7895 -0.7181
  351TIP3   OH225247   3.861   3.225   9.299  0.3421  0.1542  0.3800
  351TIP3    H125248   3.893   3.154   9.354  0.8256  1.2919  1.6404
  351TIP3    H225249   3.796   3.185   9.243  0.4147 -1.2285  1.2341
  352TIP3   OH225250   6.837   2.929   8.509 -0.5082  0.3355 -1.0428
  352TIP3    H125251   6.794   2.934   8.594 -0.3726 -1.4815 -0.8499
  352TIP3    H225252   6.928   2.954   8.526 -0.3246 -0.6592 -0.5227
  353TIP3   OH225253   2.190   1.170   7.173 -0.2013 -0.0915 -0.1630
  353TIP3    H125254   2.205   1.088   7.126  0.5415 -0.0913  0.0582
  353TIP3    H225255   2.147   1.227   7.109  1.1489  0.0487 -0.9962
  354TIP3   OH225256   6.966   4.434   7.825 -0.0028 -0.1929  0.0265
  354TIP3    H125257   7.059   4.431   7.804  0.3073  0.3646  1.2073
  354TIP3    H225258   6.963   4.471   7.913 -1.3382 -0.3359  0.0611
  355TIP3   OH225259   0.249   4.067   8.102 -0.3681 -0.1264 -0.0073
  355TIP3    H125260   0.255   4.097   8.192  0.4627  1.7690 -0.6584
  355TIP3    H225261   0.330   4.018   8.087 -0.0678  0.3703 -0.0083
  356TIP3   OH225262   1.197   1.187   9.430  0.7330 -0.0800  0.0667
  356TIP3    H125263   1.189   1.125   9.502 -0.2232  2.4317  2.2671
  356TIP3    H225264   1.133   1.157   9.366  1.3705 -2.1818  0.3272
  357TIP3   OH225265   0.516   2.097   7.732 -0.5141  0.2840 -0.0080
  357TIP3    H125266   0.508   2.191   7.713  0.5667  0.5024  0.5360
  357TIP3    H225267   0.503   2.054   7.648 -1.3773  0.8904 -0.2046
  358TIP3   OH225268   4.179   2.036   8.966 -0.7024 -0.2121 -0.1346
  358TIP3    H125269   4.120   2.009   9.037 -0.8158 -2.8274 -1.1090
  358TIP3    H225270   4.265   2.002   8.991 -0.3979  0.2682 -0.5044
  359TIP3   OH225271   1.335   3.034   6.647  0.0645  0.6235  0.0702
  359TIP3    H125272   1.248   2.997   6.633 -0.0885  0.3172  1.7354
  359TIP3    H225273   1.332   3.119   6.602 -0.6905  0.1268 -0.8695
  360TIP3   OH225274   2.328   6.836   8.210  0.0483 -0.3188  0.2862
  360TIP3    H125275   2.288   6.844   8.296  0.1124  0.8270  0.2224
  360TIP3    H225276   2.421   6.858   8.224 -0.0147  0.2331 -0.1316
  361TIP3   OH225277   0.857   1.167   9.869  0.1404  0.1958  0.0265
  361TIP3    H125278   0.914   1.106   9.822  0.2601  1.0228 -0.9394
  361TIP3    H225279   0.808   1.112   9.930  0.6091 -0.7897 -0.4588
  362TIP3   OH225280   7.323   5.882   8.001  0.1894  0.3668  0.1738
  362TIP3    H125281   7.244   5.867   7.949 -0.1532  2.4346  0.0113
  362TIP3    H225282   7.295   5.869   8.091  0.5703 -2.3479 -0.0077
  363TIP3   OH225283   7.360   6.803   6.597  0.2666 -0.3408  0.0788
  363TIP3    H125284   7.267   6.812   6.620  0.3656  0.5438  0.1832
  363TIP3    H225285   7.381   6.885   6.552  1.1667 -0.2491  0.6401
  364TIP3   OH225286   7.195   4.621   8.214 -0.1546 -0.0501 -0.3048
  364TIP3    H125287   7.261   4.586   8.155  0.8960 -0.7028  1.1788
  364TIP3    H225288   7.187   4.554   8.282 -0.1775  1.3218  1.0891
  365TIP3   OH225289   2.797   1.001   9.251 -0.3642  0.3098 -0.1155
  365TIP3    H125290   2.707   1.031   9.262 -0.5719 -0.4740  0.3754
  365TIP3    H225291   2.790   0.909   9.226  0.3036  0.0482  0.5914
  366TIP3   OH225292   6.507   3.634   8.725  0.0561 -0.2468 -0.3136
  366TIP3    H125293   6.427   3.597   8.762 -1.2916  1.9870 -0.8456
  366TIP3    H225294   6.574   3.616   8.792 -1.3109 -0.3645  1.0876
  367TIP3   OH225295   3.713   5.871   8.457  0.0579 -0.0428 -0.2030
  367TIP3    H125296   3.624   5.886   8.426  0.4615  0.4296 -1.1652
  367TIP3    H225297   3.763   5.944   8.421  0.6298  0.3029  1.2445
  368TIP3   OH225298   5.790   6.784   9.418  0.4179 -0.3286  0.6585
  368TIP3    H125299   5.815   6.877   9.424 -0.7463  0.0826 -0.3164
  368TIP3    H225300   5.721   6.774   9.484  1.2087 -0.7601  1.4354
  369TIP3   OH225301   3.350   3.694   9.232  0.4243  0.0075 -0.2811
  369TIP3    H125302   3.361   3.687   9.137  0.7483  0.2314 -0.2594
  369TIP3    H225303   3.428   3.652   9.269 -0.7904 -2.2549 -0.0718
  370TIP3   OH225304   7.092   1.895   7.988 -0.0448  0.0516 -0.6191
  370TIP3    H125305   7.063   1.830   7.924 -0.8068 -0.4384  0.1915
  370TIP3    H225306   7.026   1.965   7.981 -0.5097 -0.3049  0.0718
  371TIP3   OH225307   1.241   1.033   8.223  0.1884 -0.5503  0.1567
  371TIP3    H125308   1.190   1.098   8.175  1.2547 -0.0588 -0.3411
  371TIP3    H225309   1.206   1.037   8.313 -1.6057 -1.2659 -0.4592
  372TIP3   OH225310   6.714   0.983   8.390  0.0004 -0.4845 -0.2397
  372TIP3    H125311   6.776   1.049   8.420 -2.9113  1.4439  2.1041
  372TIP3    H225312   6.652   1.031   8.335 -0.6425 -1.8596 -0.7707
  373TIP3   OH225313   3.765   3.703   9.041  0.0278 -0.1455  0.2729
  373TIP3    H125314   3.828   3.641   9.077  0.9301  0.2399 -0.5864
  373TIP3    H225315   3.735   3.754   9.116  0.2565 -0.7673  0.7858
  374TIP3   OH225316   3.826   2.960   8.240  0.2955 -0.2234  0.1527
  374TIP3    H125317   3.753   2.901   8.219  0.8808 -0.2371 -2.0974
  374TIP3    H225318   3.854   2.933   8.328 -0.1725 -2.5719 -0.3483
  375TIP3   OH225319   2.147   0.741   8.193 -0.3123  0.2563 -0.7206
  375TIP3    H125320   2.213   0.753   8.126 -0.0231  0.7404 -0.3577
  375TIP3    H225321   2.150   0.821   8.245  1.2093 -1.0643  1.3976
  376TIP3   OH225322   1.519   5.025   9.666  0.1913  0.4950 -0.1378
  376TIP3    H125323   1.532   5.109   9.709 -2.1754  0.2110  1.2849
  376TIP3    H225324   1.513   4.962   9.737  0.3465 -0.6495 -1.1087
  377TIP3   OH225325   5.708   1.297   7.218 -0.4976  0.3905  1.0421
  377TIP3    H125326   5.629   1.315   7.269 -1.3634  0.0452 -0.1264
  377TIP3    H225327   5.676   1.278   7.130  0.9740  1.2497  0.2804
  378TIP3   OH225328   5.265   6.595   7.454 -0.5119  0.0767  0.0270
  378TIP3    H125329   5.209   6.531   7.497 -2.1557 -0.6341 -2.8906
  378TIP3    H225330   5.340   6.544   7.422 -0.6303  0.0615 -0.2313
  379TIP3   OH225331   5.650   1.781   9.419 -0.0390 -0.1023 -0.1866
  379TIP3    H125332   5.632   1.695   9.381  0.7792 -0.7128  0.7566
  379TIP3    H225333   5.565   1.811   9.452 -0.6256  0.1359 -1.8157
  380TIP3   OH225334   2.536   6.386   9.350  0.2987  0.6775 -0.2334
  380TIP3    H125335   2.587   6.413   9.425  0.7776  0.9095 -0.6385
  380TIP3    H225336   2.600   6.375   9.279  0.1315 -1.3767 -0.1371
  381TIP3   OH225337   4.629   0.626   9.294  0.0968  0.4342  0.2683
  381TIP3    H125338   4.600   0.604   9.206  0.9613  1.2002 -0.2266
  381TIP3    H225339   4.654   0.543   9.333  1.0948  0.2473 -0.7327
  382TIP3   OH225340   4.759   4.610   8.424 -0.3632  0.0386 -0.5505
  382TIP3    H125341   4.792   4.560   8.350 -1.2288 -1.2062 -0.1088
  382TIP3    H225342   4.681   4.564   8.453  0.3959  0.0181  1.6543
  383TIP3   OH225343   2.022   5.987   8.938  0.0660 -0.1066 -0.5842
  383TIP3    H125344   2.020   5.975   8.843  0.7407 -0.2178 -0.5852
  383TIP3    H225345   1.954   5.927   8.971 -0.2381  0.0061 -0.9972
  384TIP3   OH225346   4.143   5.994   8.893 -0.2239  0.0377  0.6694
  384TIP3    H125347   4.053   5.994   8.859 -0.5058  1.6702  1.3245
  384TIP3    H225348   4.148   6.074   8.946  1.4960 -0.2526  0.9831
  385TIP3   OH225349   2.658   0.743   7.096 -0.0252  0.1256 -0.2483
  385TIP3    H125350   2.630   0.802   7.026  1.4334  2.1609  0.7894
  385TIP3    H225351   2.751   0.762   7.108  0.5234 -2.4174  0.1727
  386TIP3   OH225352   0.694   1.560   8.719 -0.2503 -0.3793  0.0418
  386TIP3    H125353   0.688   1.621   8.645  0.3217 -0.5072 -0.1197
  386TIP3    H225354   0.785   1.568   8.748 -0.5960  0.0398  1.0505
  387TIP3   OH225355   4.000   6.413   8.115  0.8358 -0.0400  0.0196
  387TIP3    H125356   3.962   6.411   8.203  0.8007 -0.9674 -0.0102
  387TIP3    H225357   4.059   6.338   8.112  3.6207  1.9959  0.4489
  388TIP3   OH225358   6.213   7.246   8.910  0.7449  0.8053  0.6338
  388TIP3    H125359   6.233   7.337   8.934 -1.4520  1.0824  1.7272
  388TIP3    H225360   6.218   7.245   8.815  0.0667  2.2942  0.5440
  389TIP3   OH225361   4.162   4.911   7.815  0.4121 -0.1636 -0.0477
  389TIP3    H125362   4.233   4.951   7.865  0.1755  0.7509 -0.4353
  389TIP3    H225363   4.110   4.865   7.881  1.3037 -0.7918  0.2504
  390TIP3   OH225364   1.031   4.335   9.403  0.6034 -0.4596  0.8012
  390TIP3    H125365   1.040   4.241   9.388 -0.6072 -0.3154 -1.1659
  390TIP3    H225366   1.097   4.375   9.346  0.6789 -0.0803  1.1442
  391TIP3   OH225367   1.486   3.907   8.229 -0.0366 -0.2935  0.2575
  391TIP3    H125368   1.537   3.948   8.299 -0.6285  0.7476  0.0956
  391TIP3    H225369   1.521   3.818   8.223 -0.0068 -0.4296  1.9073
  392TIP3   OH225370   1.166   7.529   7.854  0.1692  0.5500  0.3444
  392TIP3    H125371   1.189   7.493   7.939 -0.4408 -1.5450 -0.3263
  392TIP3    H225372   1.215   7.475   7.791 -0.2277  1.3592 -0.6849
  393TIP3   OH225373   5.446   5.108   8.677  0.3053  0.0996 -0.2730
  393TIP3    H125374   5.511   5.156   8.627  0.4759 -0.3665 -0.5038
  393TIP3    H225375   5.378   5.085   8.613  0.3385 -0.1645 -0.2170
  394TIP3   OH225376   4.505   1.855  22.525  0.6663 -0.1900  0.2203
  394TIP3    H125377   4.561   1.914  22.475 -0.8965  0.5960 -0.6998
  394TIP3    H225378   4.457   1.805  22.458 -0.5766  0.0127  0.9332
  395TIP3   OH225379   5.602   5.511   8.727 -0.6151 -0.1271  0.6701
  395TIP3    H125380   5.631   5.523   8.637 -2.3315  1.9949  0.3368
  395TIP3    H225381   5.566   5.422   8.729 -1.1105  0.0201 -0.8808
  396TIP3   OH225382   3.199   4.371   7.494  0.0228  0.1477  0.1618
  396TIP3    H125383   3.154   4.348   7.413 -1.1898  2.7531  0.0243
  396TIP3    H225384   3.250   4.448   7.473  0.8723 -0.0046  1.5284
  397TIP3   OH225385   6.787   6.283   8.757  0.7627  1.1487 -0.1219
  397TIP3    H125386   6.755   6.334   8.831  2.0492  2.3024 -0.3225
  397TIP3    H225387   6.797   6.346   8.686 -1.7946 -0.1432 -1.8193
  398TIP3   OH225388   3.539   4.176   6.961  0.0934  0.3392 -0.1861
  398TIP3    H125389   3.593   4.129   7.025 -0.3309  0.6050  0.3725
  398TIP3    H225390   3.603   4.219   6.904  0.5021 -1.0443 -0.8324
  399TIP3   OH225391   7.230   2.225   8.154 -0.5013 -0.1347  0.7198
  399TIP3    H125392   7.232   2.135   8.189  1.8261  0.2365  1.7310
  399TIP3    H225393   7.319   2.240   8.121 -1.0684  1.5535 -0.1780
  400TIP3   OH225394   7.291   6.132   7.774 -0.1188 -0.5405  0.1353
  400TIP3    H125395   7.361   6.160   7.716  0.8398 -1.1740  0.9604
  400TIP3    H225396   7.235   6.076   7.719  0.0588 -0.0927 -0.5044
  401TIP3   OH225397   6.041   6.093   9.277 -0.4208  0.1063 -0.5101
  401TIP3    H125398   5.952   6.081   9.245  0.0560 -0.0774 -1.8150
  401TIP3    H225399   6.065   6.008   9.315 -1.1324  0.4464  0.7705
  402TIP3   OH225400   7.235   3.645   7.919  0.1574 -0.3701  0.2037
  402TIP3    H125401   7.178   3.604   7.984 -0.8490 -1.5551 -1.3515
  402TIP3    H225402   7.322   3.640   7.957 -0.4736 -0.4125  1.7424
  403TIP3   OH225403   7.273   0.742   9.577  0.0318 -0.0444 -0.5481
  403TIP3    H125404   7.234   0.655   9.581  0.5600 -0.4164 -2.4557
  403TIP3    H225405   7.360   0.732   9.614  0.5954 -0.6864 -1.9581
  404TIP3   OH225406   4.143   2.527   8.815 -0.1831 -0.6991  0.5539
  404TIP3    H125407   4.184   2.482   8.889 -0.4481 -0.6967  0.7021
  404TIP3    H225408   4.158   2.620   8.833 -1.3715 -0.6301  1.2731
  405TIP3   OH225409   4.536   6.131   7.924 -0.1500  0.1913  0.1302
  405TIP3    H125410   4.466   6.078   7.962  0.8422 -0.5838  0.9409
  405TIP3    H225411   4.596   6.148   7.997 -0.4470  2.5069 -0.0965
  406TIP3   OH225412   0.249   5.668   7.899  0.2260 -0.0541  0.2992
  406TIP3    H125413   0.233   5.609   7.972 -0.1740  0.6992  0.8395
  406TIP3    H225414   0.255   5.755   7.939  2.4357  0.1026 -0.2809
  407TIP3   OH225415   6.324   6.234   8.225  0.6483  0.0129 -0.3736
  407TIP3    H125416   6.342   6.319   8.264  1.8469 -0.4363  0.0813
  407TIP3    H225417   6.242   6.206   8.265  1.4494 -0.0904  1.2720
  408TIP3   OH225418   7.539   2.157   7.447  0.4522 -0.4579  0.2611
  408TIP3    H125419   7.542   2.062   7.457  1.2224 -0.5561 -0.7198
  408TIP3    H225420   7.448   2.180   7.467  0.2940 -1.3770  0.6569
  409TIP3   OH225421   5.846   5.070   8.440  0.4857  0.1502 -0.1217
  409TIP3    H125422   5.827   4.979   8.418  0.8024  0.3513 -1.2944
  409TIP3    H225423   5.908   5.098   8.373 -0.0110  1.3791 -0.0900
  410TIP3   OH225424   6.278   3.997   8.139 -0.3829 -0.2410 -0.1463
  410TIP3    H125425   6.298   3.904   8.131  0.6207 -0.0613  0.1450
  410TIP3    H225426   6.255   4.025   8.051 -2.9750 -1.2426  0.1220
  411TIP3   OH225427   6.596   1.954   7.582 -0.1879 -0.3345  0.0056
  411TIP3    H125428   6.555   2.038   7.560 -0.1544 -0.1115  0.7366
  411TIP3    H225429   6.543   1.889   7.537 -1.0243 -0.0103  0.4814
  412TIP3   OH225430   0.784   3.819   9.635 -0.4780 -0.1831 -0.4399
  412TIP3    H125431   0.754   3.791   9.721 -1.5842  0.4463 -0.6048
  412TIP3    H225432   0.809   3.911   9.646  0.1058 -0.3128 -0.6250
  413TIP3   OH225433   6.120   1.718   9.122 -0.7014 -0.0964  0.2182
  413TIP3    H125434   6.060   1.647   9.145 -3.3665  1.4849 -1.3845
  413TIP3    H225435   6.146   1.699   9.031 -0.3493  0.2834  0.2368
  414TIP3   OH225436   6.209   2.374   7.940  0.0373 -0.2746 -0.0246
  414TIP3    H125437   6.220   2.335   8.026 -0.0075  0.6334  0.4103
  414TIP3    H225438   6.116   2.396   7.936 -0.0326 -0.6387 -0.4547
  415TIP3   OH225439   0.839   5.716   7.442 -0.0938  0.4483 -0.4324
  415TIP3    H125440   0.917   5.705   7.496 -1.6671 -1.1670  1.6486
  415TIP3    H225441   0.797   5.795   7.476 -0.9827 -0.4614  0.6713
  416TIP3   OH225442   1.481   0.413   8.260  0.5805  0.4730  0.1717
  416TIP3    H125443   1.571   0.433   8.285  1.3340  1.5571 -2.9549
  416TIP3    H225444   1.490   0.346   8.193 -0.9630  0.5948 -0.1817
  417TIP3   OH225445   1.535   1.426   8.798 -0.1144 -0.3390  0.4764
  417TIP3    H125446   1.587   1.432   8.878 -0.3723  1.2936  0.5433
  417TIP3    H225447   1.568   1.497   8.742 -1.4962 -0.0011  0.0673
  418TIP3   OH225448   1.970   3.420   6.323  0.0907  0.0013 -0.6006
  418TIP3    H125449   2.058   3.443   6.295  0.9100 -2.2600 -0.1030
  418TIP3    H225450   1.924   3.503   6.329  2.0779  1.2052 -1.2116
  419TIP3   OH225451   0.817   2.307   9.111  1.0005 -0.0171  0.4160
  419TIP3    H125452   0.888   2.244   9.101  0.2408 -1.0506  1.2686
  419TIP3    H225453   0.859   2.393   9.103  1.7758 -0.5830 -2.6631
  420TIP3   OH225454   0.171   1.745   9.207 -0.3086 -0.3846 -0.1006
  420TIP3    H125455   0.256   1.772   9.172 -0.3879  0.3228  0.2265
  420TIP3    H225456   0.124   1.707   9.133 -0.7020  1.5990 -0.9269
  421TIP3   OH225457   0.417   0.767   6.517 -0.0656  0.4298 -0.3443
  421TIP3    H125458   0.434   0.752   6.610  0.3836  1.1429 -0.3057
  421TIP3    H225459   0.459   0.851   6.498  1.2943 -0.4716 -1.5765
  422TIP3   OH225460   2.548   0.180   7.391  0.2586  0.2887  0.2065
  422TIP3    H125461   2.515   0.236   7.461 -1.1807  0.1035 -0.3013
  422TIP3    H225462   2.505   0.213   7.312  0.6563 -0.5115 -0.3541
  423TIP3   OH225463   2.107   4.891   7.560  0.5119 -0.3830 -0.7511
  423TIP3    H125464   2.092   4.985   7.559  1.8464 -0.1420 -0.5118
  423TIP3    H225465   2.091   4.863   7.470  0.3007  0.1049 -0.8675
  424TIP3   OH225466   6.826   2.519   7.565 -0.0166 -0.2918  0.6246
  424TIP3    H125467   6.871   2.560   7.638  0.6390 -0.7723  0.5061
  424TIP3    H225468   6.733   2.527   7.585  0.0618  1.6421  0.3737
  425TIP3   OH225469   5.340   4.674   8.668 -0.3968 -0.0957 -0.7863
  425TIP3    H125470   5.262   4.630   8.703 -0.5054  0.2654 -0.5717
  425TIP3    H225471   5.306   4.727   8.595 -0.4379  0.4647 -0.3675
  426TIP3   OH225472   0.872   2.497   7.658 -0.1452 -0.4555 -0.5317
  426TIP3    H125473   0.946   2.482   7.717 -1.4143 -1.3558  0.9223
  426TIP3    H225474   0.851   2.589   7.669  0.0590 -0.4608 -0.0891
  427TIP3   OH225475   7.484   4.581   9.159  0.6451  0.0332 -0.1489
  427TIP3    H125476   7.486   4.646   9.090  1.6004 -0.9033 -1.0478
  427TIP3    H225477   7.420   4.614   9.222  1.2272  1.9110 -0.4739
  428TIP3   OH225478   3.312   5.880   7.111 -0.6063  0.0872  0.2780
  428TIP3    H125479   3.325   5.795   7.069 -0.2134  0.1046  0.3571
  428TIP3    H225480   3.218   5.885   7.128 -1.2771  1.1407 -2.8887
  429TIP3   OH225481   5.717   1.187   8.836  0.2307 -0.5610  0.0376
  429TIP3    H125482   5.746   1.274   8.865 -2.3558  0.1750  0.7081
  429TIP3    H225483   5.663   1.155   8.908 -2.6389 -0.6815 -1.9830
  430TIP3   OH225484   7.041   5.778   7.929 -0.4113 -0.0448 -0.4190
  430TIP3    H125485   7.024   5.826   8.010  1.4522 -1.8600  1.1933
  430TIP3    H225486   7.017   5.687   7.950  2.0804 -0.9450 -1.0951
  431TIP3   OH225487   2.909   6.389   7.042  0.1197 -0.5611 -0.0591
  431TIP3    H125488   2.965   6.395   6.964  3.0242 -0.4343  1.8709
  431TIP3    H225489   2.947   6.318   7.094 -0.8935  0.2048  1.8452
  432TIP3   OH225490   7.292   0.110   7.935 -0.1899 -0.1285 -0.1200
  432TIP3    H125491   7.347   0.166   7.880 -1.1303  2.3616  1.3410
  432TIP3    H225492   7.337   0.106   8.019 -2.1951  2.1109  1.1640
  433TIP3   OH225493   4.501   5.794   7.785 -0.0990 -0.1881  0.0516
  433TIP3    H125494   4.430   5.742   7.745  1.1584 -0.1011 -2.4804
  433TIP3    H225495   4.458   5.876   7.811 -1.1541 -0.5769 -0.3790
  434TIP3   OH225496   2.547   5.183   9.247  0.2597  0.2241 -0.4287
  434TIP3    H125497   2.477   5.221   9.300 -0.3066 -0.6667 -0.5054
  434TIP3    H225498   2.616   5.162   9.310 -0.5417 -1.1331  0.0501
  435TIP3   OH225499   2.243   6.072   7.424 -0.1803 -0.5112  0.3564
  435TIP3    H125500   2.147   6.068   7.416 -0.2427 -0.1393  0.8363
  435TIP3    H225501   2.272   6.113   7.342 -0.7058  2.2431  1.4461
  436TIP3   OH225502   3.261   3.241   9.372 -0.4299 -0.9329  0.7264
  436TIP3    H125503   3.203   3.217   9.300  0.2399  0.0470 -0.1713
  436TIP3    H225504   3.340   3.274   9.330 -0.1044 -0.1314  1.8973
  437TIP3   OH225505   6.549   5.726   8.272  0.0477 -1.1948  0.3421
  437TIP3    H125506   6.574   5.709   8.363  0.7053  1.2822  0.6783
  437TIP3    H225507   6.462   5.765   8.279  0.7182  0.4058  0.0689
  438TIP3   OH225508   6.050   4.330   7.765 -0.1288 -0.4305  0.0127
  438TIP3    H125509   6.114   4.302   7.699 -0.4782 -0.4868 -0.3123
  438TIP3    H225510   5.991   4.255   7.773  0.6868 -0.9527  1.4004
  439TIP3   OH225511   7.649   0.708   8.586  0.4153  0.0206  0.2288
  439TIP3    H125512   7.653   0.776   8.519  3.0498 -0.0525  0.2094
  439TIP3    H225513   7.561   0.715   8.622  0.5298  3.4023  0.1715
  440TIP3   OH225514   3.094   1.170   8.197  0.3318 -0.0228 -0.1151
  440TIP3    H125515   3.104   1.260   8.165  1.6391 -0.0230  0.2541
  440TIP3    H225516   3.062   1.122   8.121 -0.5237  0.7735 -0.2779
  441TIP3   OH225517   5.591   2.749   8.106 -0.2715 -0.2504  0.1963
  441TIP3    H125518   5.618   2.832   8.145  0.2171 -1.0188  1.5580
  441TIP3    H225519   5.561   2.772   8.018  2.1589  1.0377 -0.3712
  442TIP3   OH225520   0.890   4.702   7.486 -0.0482  0.0611  0.3224
  442TIP3    H125521   0.815   4.730   7.538 -0.9359  2.5536 -2.0140
  442TIP3    H225522   0.967   4.723   7.539 -0.8931 -1.3410  2.2204
  443TIP3   OH225523   1.141   7.139   8.298  0.5070 -0.2564  0.3494
  443TIP3    H125524   1.219   7.105   8.253  1.6407  1.5861  0.8491
  443TIP3    H225525   1.174   7.178   8.378 -0.9816  0.3551  0.6997
  444TIP3   OH225526   6.206   5.505   8.860  0.0518 -0.3347  0.1513
  444TIP3    H125527   6.246   5.512   8.947 -0.4844  0.1284  0.3672
  444TIP3    H225528   6.232   5.585   8.815  0.0490 -0.4156  0.0068
  445TIP3   OH225529   3.329   7.113   7.555 -0.8523  0.0037  0.4847
  445TIP3    H125530   3.400   7.178   7.561 -0.3903 -0.6292  2.5679
  445TIP3    H225531   3.253   7.157   7.593 -1.1009  0.0282 -0.0291
  446TIP3   OH225532   2.126   4.785   7.319  0.0981  0.0806 -0.2603
  446TIP3    H125533   2.205   4.733   7.305 -0.8307 -1.4241 -0.2127
  446TIP3    H225534   2.098   4.810   7.231 -0.3453 -0.9776 -0.4495
  447TIP3   OH225535   3.499   3.648   7.579 -0.5760 -0.2209 -0.0028
  447TIP3    H125536   3.472   3.681   7.494 -0.4515 -0.6309 -0.2058
  447TIP3    H225537   3.553   3.571   7.559  0.7554  0.5673  0.3716
  448TIP3   OH225538   5.209   2.306   7.242 -0.4841  0.3870 -0.2139
  448TIP3    H125539   5.301   2.295   7.220 -0.7072  1.2740 -1.7641
  448TIP3    H225540   5.164   2.235   7.195 -0.6508  0.3623 -0.0164
  449TIP3   OH225541   5.902   1.922   8.009  0.0940  0.3805 -0.0280
  449TIP3    H125542   5.909   2.011   7.975  0.2899  0.0818 -0.7875
  449TIP3    H225543   5.967   1.918   8.079 -1.2572  1.4239  1.3737
  450TIP3   OH225544   6.936   0.477   9.515  0.5964 -0.2203 -0.4478
  450TIP3    H125545   6.957   0.531   9.439  1.1253 -0.5081 -0.5132
  450TIP3    H225546   6.869   0.527   9.562  0.4763  0.0939 -0.9483
  451TIP3   OH225547   2.749   0.010   7.292  0.3158 -0.0202 -0.5156
  451TIP3    H125548   2.675   0.066   7.318  0.5997  0.8991 -1.5900
  451TIP3    H225549   2.763   0.031   7.200  1.7825 -0.3301 -0.3864
  452TIP3   OH225550   6.981   3.858   7.773 -0.0490 -0.4860  0.6102
  452TIP3    H125551   6.973   3.861   7.868 -0.0385  0.2499  0.5909
  452TIP3    H225552   6.995   3.765   7.753 -0.9066 -0.7670  1.2550
  453TIP3   OH225553   7.043   5.697   9.313 -0.1918 -0.5432 -0.5287
  453TIP3    H125554   6.965   5.734   9.355 -0.5325 -2.6263  0.8436
  453TIP3    H225555   7.008   5.655   9.234 -0.3571 -0.8057 -0.3203
  454TIP3   OH225556   0.943   3.544   6.487 -0.0280  0.2002  0.1923
  454TIP3    H125557   0.866   3.597   6.463 -0.2432 -0.7722 -1.4133
  454TIP3    H225558   1.018   3.599   6.464 -0.2480 -0.1718 -1.5372
  455TIP3   OH225559   5.023   2.771   8.761 -0.0062 -0.3600  0.4835
  455TIP3    H125560   5.044   2.864   8.772  0.1589 -0.0993 -1.6359
  455TIP3    H225561   5.108   2.727   8.767  1.1847  0.4174 -5.2372
  456TIP3   OH225562   2.316   4.716   9.053  0.7370 -0.5449  0.4094
  456TIP3    H125563   2.373   4.791   9.070  0.9743 -1.0427  1.9777
  456TIP3    H225564   2.376   4.647   9.022  1.0151 -1.0241  1.9254
  457TIP3   OH225565   1.899   5.635   8.169  0.6581  0.2296 -0.4809
  457TIP3    H125566   1.894   5.552   8.217 -1.1492  0.3865 -0.3287
  457TIP3    H225567   1.985   5.633   8.126  0.4209 -2.0088 -0.9764
  458TIP3   OH225568   0.862   2.033   7.759 -1.0590  0.3082 -0.0211
  458TIP3    H125569   0.791   2.095   7.741 -0.8034  0.0860 -2.0366
  458TIP3    H225570   0.936   2.065   7.706 -0.0653 -0.2144  0.9966
  459TIP3   OH225571   3.529   2.265   7.816  0.2495  0.5996 -0.4037
  459TIP3    H125572   3.622   2.285   7.831  0.7591 -2.5707  1.7047
  459TIP3    H225573   3.530   2.196   7.750 -0.6837  0.9462 -0.7963
  460TIP3   OH225574   6.811   5.974   8.230  0.0443  0.0636 -0.2363
  460TIP3    H125575   6.834   6.060   8.194 -1.4968  1.2459  1.4117
  460TIP3    H225576   6.718   5.964   8.209 -0.5161  0.1373  2.0188
  461TIP3   OH225577   5.327   1.027   9.161  0.1094 -0.3257  0.0541
  461TIP3    H125578   5.281   1.086   9.102  1.3423  0.9192  0.2747
  461TIP3    H225579   5.359   1.084   9.231 -0.4963 -1.6134  1.4351
  462TIP3   OH225580   1.747   1.185   9.041  0.4069  0.5434  0.3313
  462TIP3    H125581   1.683   1.143   8.984  0.2568 -0.4426  1.1927
  462TIP3    H225582   1.804   1.234   8.982 -0.8964  1.1114 -0.4837
  463TIP3   OH225583   6.653   4.300   7.976  0.1170 -0.0527  1.1744
  463TIP3    H125584   6.703   4.301   8.057  3.1960  2.8300 -0.4814
  463TIP3    H225585   6.657   4.391   7.945 -0.5867 -1.0796 -2.3486
  464TIP3   OH225586   0.287   0.334   8.306  0.0635  0.1616 -0.4743
  464TIP3    H125587   0.354   0.316   8.239 -1.3864 -1.5594 -1.5635
  464TIP3    H225588   0.221   0.386   8.261  0.1057  0.8962  0.2807
  465TIP3   OH225589   4.772   1.343   7.293  0.2634 -0.3163 -0.0663
  465TIP3    H125590   4.823   1.357   7.373 -2.4280  0.7136  1.5992
  465TIP3    H225591   4.750   1.432   7.263 -0.3058 -0.7335 -0.9331
  466TIP3   OH225592   1.576   1.939   7.444 -0.6368  0.0393  0.5648
  466TIP3    H125593   1.605   1.961   7.533  0.5308 -0.6296  0.3770
  466TIP3    H225594   1.636   1.869   7.417 -1.7821 -0.6363 -0.2794
  467TIP3   OH225595   5.166   7.140   6.652  0.0121 -0.4820  0.2688
  467TIP3    H125596   5.148   7.224   6.610 -0.0958 -0.2017  0.8675
  467TIP3    H225597   5.108   7.078   6.607  1.7582 -0.7314 -1.8190
  468TIP3   OH225598   3.106   5.223   7.529  0.0832 -0.6163  0.1257
  468TIP3    H125599   3.143   5.210   7.442  2.2048 -0.6314  0.9612
  468TIP3    H225600   3.125   5.315   7.549  0.9527 -0.9945  1.1240
  469TIP3   OH225601   3.679   2.044   7.632 -0.0958  0.4749  0.0396
  469TIP3    H125602   3.632   2.007   7.558 -0.8815  0.1454  0.6885
  469TIP3    H225603   3.741   2.106   7.593  1.6154 -1.8206 -1.1700
  470TIP3   OH225604   5.557   1.288   8.257  0.4151 -0.3240 -0.1781
  470TIP3    H125605   5.636   1.266   8.208  0.8526 -0.5680  0.6242
  470TIP3    H225606   5.547   1.383   8.243 -0.1740 -0.5882 -1.7365
  471TIP3   OH225607   2.159   0.827   8.871 -0.0320  0.3231 -0.7000
  471TIP3    H125608   2.221   0.853   8.803  0.2895  0.7549 -0.2423
  471TIP3    H225609   2.206   0.762   8.923 -0.7114 -0.9623 -1.6293
  472TIP3   OH225610   4.044   0.113   7.227 -0.0675  0.0647 -0.2762
  472TIP3    H125611   3.950   0.129   7.233  0.1856  1.1679  1.5608
  472TIP3    H225612   4.055   0.023   7.258 -0.2780  1.0210  2.9943
  473TIP3   OH225613   2.951   1.727   8.721 -0.0198  0.1827 -0.2648
  473TIP3    H125614   2.869   1.725   8.770 -0.7491 -1.1328 -1.4452
  473TIP3    H225615   2.961   1.818   8.693 -0.3840  0.6213  0.9647
  474TIP3   OH225616   7.411   1.583   8.648  0.0240  0.4918 -0.3270
  474TIP3    H125617   7.424   1.659   8.705  1.3317  1.5659 -1.9640
  474TIP3    H225618   7.337   1.607   8.593 -0.0810  0.2188 -0.3073
  475TIP3   OH225619   1.839   5.351   7.624 -0.7201  0.5005 -0.1013
  475TIP3    H125620   1.865   5.267   7.587 -3.0158 -0.9867  1.3756
  475TIP3    H225621   1.921   5.395   7.645  0.6282 -2.2310  0.8464
  476TIP3   OH225622   3.383   5.428   8.378 -0.2314 -0.6690 -0.5416
  476TIP3    H125623   3.414   5.374   8.451  0.2296 -1.3555 -1.2327
  476TIP3    H225624   3.462   5.449   8.328 -0.3025  1.2457  0.0889
  477TIP3   OH225625   0.308   3.339   8.890  0.4037 -0.5767 -0.6088
  477TIP3    H125626   0.391   3.359   8.846  0.4750  0.6468  0.0301
  477TIP3    H225627   0.330   3.334   8.983 -0.2775  0.0832 -0.3963
  478TIP3   OH225628   5.358   4.251   8.581  0.1220  0.2026 -0.1659
  478TIP3    H125629   5.407   4.238   8.663  0.0678  0.5528 -0.0749
  478TIP3    H225630   5.284   4.191   8.588 -0.5559  1.0981  0.5976
  479TIP3   OH225631   1.937   2.028   7.500  0.3303  0.3578  0.7738
  479TIP3    H125632   1.868   1.973   7.537  0.4051  0.5793  1.2564
  479TIP3    H225633   1.892   2.086   7.439 -0.0376  1.0243  1.6607
  480TIP3   OH225634   7.268   3.482   9.298  0.0155  0.1038  0.3336
  480TIP3    H125635   7.339   3.418   9.313 -0.8978 -0.9545  0.2649
  480TIP3    H225636   7.193   3.445   9.344 -0.2551  1.7202  1.2781
  481TIP3   OH225637   7.467   5.685   9.308  0.0328 -0.4041 -0.3412
  481TIP3    H125638   7.554   5.725   9.305  0.9794 -2.4015 -0.9220
  481TIP3    H225639   7.410   5.748   9.262  0.7689  1.7082  1.4605
  482TIP3   OH225640   1.388   5.480   7.402 -0.2346 -0.0267 -0.1999
  482TIP3    H125641   1.385   5.575   7.392 -0.7863  0.3052  2.3100
  482TIP3    H225642   1.381   5.466   7.497 -0.7837 -2.5972 -0.5419
  483TIP3   OH225643   7.219   6.298   8.341  0.5061 -0.0874  0.1974
  483TIP3    H125644   7.179   6.237   8.280 -0.1169 -0.5890  1.0861
  483TIP3    H225645   7.228   6.380   8.291 -1.2703 -0.0670 -0.1505
  484TIP3   OH225646   2.946   6.957   7.268  0.1504  0.5794  0.3036
  484TIP3    H125647   2.885   6.901   7.317  0.4570  0.3196  0.3951
  484TIP3    H225648   3.025   6.959   7.322  0.9710 -0.7832 -0.7761
  485TIP3   OH225649   7.520   7.230   9.307  0.5152 -0.8343 -0.2362
  485TIP3    H125650   7.443   7.187   9.344 -0.1524  0.7137  0.2627
  485TIP3    H225651   7.594   7.183   9.345 -0.1834 -1.4697  0.3768
  486TIP3   OH225652   0.960   3.475   7.901  0.0624  0.6403 -0.5583
  486TIP3    H125653   1.008   3.521   7.969  0.9905 -3.5888  2.0151
  486TIP3    H225654   1.023   3.412   7.866 -2.1220 -1.5841 -0.7431
  487TIP3   OH225655   3.142   4.518   7.064 -0.1555  0.0085 -0.3598
  487TIP3    H125656   3.118   4.489   6.976  0.8273 -0.1528 -0.5827
  487TIP3    H225657   3.180   4.605   7.051  0.8230 -0.3877 -0.2099
  488TIP3   OH225658   1.841   6.107   8.478  0.6293  0.4149 -0.3333
  488TIP3    H125659   1.849   6.028   8.423  2.0844 -0.1588  0.6399
  488TIP3    H225660   1.840   6.179   8.415  2.0531 -0.2310 -1.1617
  489TIP3   OH225661   7.135   0.764   7.441  0.6502 -0.6373 -0.1839
  489TIP3    H125662   7.093   0.805   7.517  1.8137 -0.1929  0.2316
  489TIP3    H225663   7.170   0.681   7.474 -0.8143 -1.5341 -0.7886
  490TIP3   OH225664   1.209   7.481   9.457  0.5044  0.1021  0.1142
  490TIP3    H125665   1.144   7.420   9.421  0.5271 -0.7247  1.3957
  490TIP3    H225666   1.241   7.530   9.381  1.4342 -2.3835 -1.1983
  491TIP3   OH225667   0.307   0.394   7.620  0.1886 -0.0507  0.3785
  491TIP3    H125668   0.301   0.300   7.601  0.1635  0.2087 -0.9792
  491TIP3    H225669   0.355   0.399   7.703  1.9049 -1.1885 -0.4936
  492TIP3   OH225670   0.446   2.283   6.727 -0.2092  0.3276  0.3195
  492TIP3    H125671   0.355   2.271   6.756 -1.0712  0.6867 -1.9850
  492TIP3    H225672   0.447   2.370   6.686  0.8511 -0.1559 -0.7435
  493TIP3   OH225673   7.374   7.400   8.204  0.0111 -0.1947  0.5211
  493TIP3    H125674   7.400   7.467   8.267  0.2820 -1.2495  1.5561
  493TIP3    H225675   7.280   7.391   8.215 -0.0557  0.1581  0.2385
  494TIP3   OH225676   2.252   1.666   7.369 -0.0455 -0.6208 -0.3957
  494TIP3    H125677   2.262   1.576   7.401  0.5099 -0.1309  0.8386
  494TIP3    H225678   2.329   1.681   7.315  0.8762 -0.2433  0.9841
  495TIP3   OH225679   7.181   0.072   9.164 -0.0167 -0.8139 -0.1969
  495TIP3    H125680   7.261   0.021   9.172  1.2022  0.5318 -2.7110
  495TIP3    H225681   7.190   0.142   9.229  0.7174 -0.8289 -0.2783
  496TIP3   OH225682   2.238   0.144   7.463 -0.3751  0.2511 -0.0090
  496TIP3    H125683   2.241   0.173   7.554 -2.0467 -1.2864  0.5843
  496TIP3    H225684   2.281   0.058   7.463  0.4495  0.6401 -0.8761
  497TIP3   OH225685   7.215   6.535   8.233  0.1478  0.0360  0.1235
  497TIP3    H125686   7.230   6.629   8.226  1.1329 -0.1489 -0.5495
  497TIP3    H225687   7.211   6.504   8.143 -0.8940 -0.4762  0.3263
  498TIP3   OH225688   0.908   1.406   9.244 -0.2703 -0.2204  0.1329
  498TIP3    H125689   0.943   1.444   9.324 -2.0492 -1.6103  1.6457
  498TIP3    H225690   0.814   1.401   9.259 -0.5647 -1.1969 -1.7689
  499TIP3   OH225691   2.771   3.551   9.511 -0.0012 -0.2169  0.1040
  499TIP3    H125692   2.855   3.539   9.554 -0.4326  1.6412  1.5850
  499TIP3    H225693   2.777   3.638   9.471 -1.9302  0.9326  2.1133
  500TIP3   OH225694   1.008   7.024   7.661 -0.1525  0.4310  0.2331
  500TIP3    H125695   0.975   7.102   7.706  1.4659  1.4638 -0.2920
  500TIP3    H225696   0.948   7.010   7.588 -0.2459  1.4275  0.1112
  501TIP3   OH225697   1.915   0.729   8.819 -0.1106  0.0333 -0.3130
  501TIP3    H125698   1.994   0.774   8.789  0.3241 -0.6527 -0.2225
  501TIP3    H225699   1.947   0.651   8.864 -0.8473 -0.2905 -0.3297
  502TIP3   OH225700   7.467   0.333   9.460 -0.1376  0.0801  0.5636
  502TIP3    H125701   7.540   0.332   9.522  0.0066  1.8944  0.4885
  502TIP3    H225702   7.493   0.398   9.395 -0.0722 -2.1049 -1.7189
  503TIP3   OH225703   4.457   5.140   7.635  0.2568 -0.1280 -0.3673
  503TIP3    H125704   4.426   5.134   7.726  1.3353  0.0660  0.0303
  503TIP3    H225705   4.435   5.055   7.597 -0.4827 -0.1008 -0.0126
  504TIP3   OH225706   2.235   6.321   6.878  0.3991 -0.3322  0.0485
  504TIP3    H125707   2.251   6.363   6.793 -1.0570  1.1633  0.4431
  504TIP3    H225708   2.150   6.278   6.867  0.4634 -0.6014  0.5781
  505TIP3   OH225709   1.605   3.071   8.539  0.1542  0.3949  0.2006
  505TIP3    H125710   1.572   3.103   8.455 -0.0187  2.2019  0.9080
  505TIP3    H225711   1.565   3.129   8.604  0.0719 -1.1222  1.5730
  506TIP3   OH225712   2.864   5.683   8.042 -0.6666  0.1652  0.0027
  506TIP3    H125713   2.842   5.627   7.968  0.4947  0.2276 -0.4003
  506TIP3    H225714   2.859   5.625   8.118 -1.5743  0.0369 -0.1395
  507TIP3   OH225715   1.895   7.469   9.299 -0.6683  0.5358 -0.4515
  507TIP3    H125716   1.990   7.469   9.286 -0.4470  1.9390  0.8610
  507TIP3    H225717   1.870   7.561   9.286 -1.7486  0.3024 -0.0905
  508TIP3   OH225718   1.861   4.793   9.240 -0.2948 -0.1370 -0.1262
  508TIP3    H125719   1.881   4.882   9.266 -0.0190 -0.1286 -0.3591
  508TIP3    H225720   1.928   4.771   9.175  0.4135 -0.9533  0.8411
  509TIP3   OH225721   1.320   5.506   7.685  0.1943 -0.2082  0.0855
  509TIP3    H125722   1.383   5.566   7.725  0.5676 -0.3205 -0.3406
  509TIP3    H225723   1.261   5.484   7.757  0.2589  0.3930  0.3362
  510TIP3   OH225724   5.512   1.846   8.558 -0.4966 -0.3694 -0.4427
  510TIP3    H125725   5.589   1.845   8.616 -0.6593  0.7439 -0.1964
  510TIP3    H225726   5.458   1.773   8.589 -0.2142 -0.2658  0.3094
  511TIP3   OH225727   3.557   0.739   8.634  0.2377  0.4009 -0.1885
  511TIP3    H125728   3.540   0.780   8.719 -0.9112 -0.4464  0.0204
  511TIP3    H225729   3.478   0.756   8.583 -0.4873 -1.8838  0.0723
  512TIP3   OH225730   2.355   4.803   7.542 -0.0683  0.0687  0.2258
  512TIP3    H125731   2.271   4.850   7.542  0.1540  0.4661 -0.1829
  512TIP3    H225732   2.333   4.715   7.511 -0.4067  0.0350  0.5460
  513TIP3   OH225733   1.828   5.923   9.488 -0.3455  0.6206 -0.1978
  513TIP3    H125734   1.735   5.912   9.509 -0.2298 -1.0411 -0.3990
  513TIP3    H225735   1.837   6.016   9.468 -1.5830  1.1975  1.6441
  514TIP3   OH225736   3.992   4.251   8.696  0.2594 -0.1263  0.6260
  514TIP3    H125737   4.072   4.304   8.692 -0.2624  0.6161 -1.9473
  514TIP3    H225738   4.018   4.166   8.661  0.0622 -0.0748  0.3541
  515TIP3   OH225739   5.917   7.066   8.786  0.1516  0.0465  0.3215
  515TIP3    H125740   5.954   6.978   8.773  2.7078  1.0448  0.2675
  515TIP3    H225741   5.899   7.098   8.697 -2.9958 -1.1907  0.3942
  516TIP3   OH225742   3.312   2.089   9.366  0.2688 -0.6680 -0.5461
  516TIP3    H125743   3.266   2.022   9.417 -1.3911  0.1577 -0.9053
  516TIP3    H225744   3.398   2.050   9.348  0.1538 -1.8025  1.1160
  517TIP3   OH225745   6.169   3.123   7.695 -0.1529 -0.4130  0.7732
  517TIP3    H125746   6.244   3.098   7.641  0.5342  3.0651 -0.0727
  517TIP3    H225747   6.096   3.130   7.633  0.0418  1.0695  0.6751
  518TIP3   OH225748   4.670   5.289   8.239  0.0448 -0.3257 -0.5229
  518TIP3    H125749   4.703   5.367   8.284 -0.0025 -0.0745 -0.9115
  518TIP3    H225750   4.580   5.312   8.216 -0.0851 -0.6327 -0.3314
  519TIP3   OH225751   3.781   0.454   7.665 -0.0911  0.3136 -0.1728
  519TIP3    H125752   3.741   0.369   7.680  1.6812 -0.5135  0.1524
  519TIP3    H225753   3.825   0.445   7.580  0.1574  0.8840 -0.1084
  520TIP3   OH225754   6.205   0.645   8.888 -0.4029 -0.2153 -0.2276
  520TIP3    H125755   6.191   0.605   8.802 -1.1679  2.6386 -1.5603
  520TIP3    H225756   6.162   0.586   8.950 -1.0716 -1.6267 -1.9719
  521TIP3   OH225757   0.209   0.084   7.953  0.4461 -0.1046 -0.0759
  521TIP3    H125758   0.290   0.039   7.976  0.7883 -0.4619 -1.7898
  521TIP3    H225759   0.158   0.018   7.905 -1.9910 -0.6882  3.0131
  522TIP3   OH225760   3.664   3.571   7.915  0.6892  0.5768 -0.1523
  522TIP3    H125761   3.654   3.520   7.834 -0.6240 -0.9158  0.8793
  522TIP3    H225762   3.626   3.515   7.983 -0.1105  2.6202  1.1903
  523TIP3   OH225763   0.826   3.490   8.687  0.3623 -0.1904 -0.1802
  523TIP3    H125764   0.760   3.439   8.734  1.6874 -0.7949  1.0909
  523TIP3    H225765   0.817   3.578   8.722  0.1285 -0.2349 -0.1237
  524TIP3   OH225766   0.635   3.316   8.134  0.2736 -0.3908  0.2431
  524TIP3    H125767   0.675   3.255   8.196  0.8855 -0.8821 -0.6060
  524TIP3    H225768   0.699   3.386   8.124  0.1036 -0.2275  0.2890
  525TIP3   OH225769   5.465   2.360   8.357  0.1322  0.1246  0.1192
  525TIP3    H125770   5.429   2.274   8.334  0.8961 -0.2357  0.2251
  525TIP3    H225771   5.479   2.403   8.273  0.5952 -0.2124  0.0228
  526TIP3   OH225772   4.893   3.794   8.905 -0.3271 -0.6089 -0.0772
  526TIP3    H125773   4.852   3.865   8.855 -0.4466 -0.1031  0.7258
  526TIP3    H225774   4.955   3.754   8.843 -0.6291 -0.1398 -0.6952
  527TIP3   OH225775   7.273   2.232   7.706  0.2419 -0.0355  0.5949
  527TIP3    H125776   7.178   2.234   7.716  0.1676 -1.4379  0.2903
  527TIP3    H225777   7.287   2.232   7.611  0.5284 -0.4468  0.6375
  528TIP3   OH225778   1.397   2.070   7.816  0.1133 -0.0484  0.1003
  528TIP3    H125779   1.359   1.988   7.848 -0.6737  0.5192  0.6733
  528TIP3    H225780   1.401   2.126   7.893  1.3570  0.2070 -0.1352
  529TIP3   OH225781   0.553   1.001   8.857 -0.4416 -0.5200 -0.1039
  529TIP3    H125782   0.528   0.967   8.771  1.1970  3.2421 -2.3694
  529TIP3    H225783   0.484   1.064   8.878 -0.8986 -1.5105  1.4912
  530TIP3   OH225784   6.431   4.147   7.934  0.0481 -0.2149 -0.1611
  530TIP3    H125785   6.373   4.202   7.986  0.2543 -0.6479  0.5511
  530TIP3    H225786   6.519   4.176   7.959  0.1465 -0.1052 -0.6296
  531TIP3   OH225787   0.128   7.146   7.457  0.0089  0.8138  0.0194
  531TIP3    H125788   0.115   7.140   7.362 -0.7082  1.3308  0.0744
  531TIP3    H225789   0.216   7.113   7.471 -0.0064  0.3935 -0.7914
  532TIP3   OH225790   5.914   0.902   7.688  0.1025 -0.4664  0.2880
  532TIP3    H125791   5.977   0.840   7.725 -0.0846 -2.3139 -2.2741
  532TIP3    H225792   5.964   0.951   7.623 -0.5340 -0.1453  0.0378
  533TIP3   OH225793   3.907   6.009   7.353 -0.5051 -0.2116 -0.0767
  533TIP3    H125794   3.838   6.034   7.292  0.5977  1.6441 -0.6347
  533TIP3    H225795   3.885   6.053   7.434  0.7545  1.6241 -0.6840
  534TIP3   OH225796   5.290   0.362   7.961 -0.1836  0.1307  0.1145
  534TIP3    H125797   5.365   0.389   7.908 -1.9289  1.0766 -2.0697
  534TIP3    H225798   5.305   0.269   7.979  0.8953 -0.0247 -1.3940
  535TIP3   OH225799   1.305   3.896   8.726 -0.0991  0.1259 -0.0049
  535TIP3    H125800   1.312   3.894   8.821  1.5775  1.7046 -0.0377
  535TIP3    H225801   1.341   3.981   8.701  1.4065 -1.0445 -2.1636
  536TIP3   OH225802   4.613   3.157   8.959 -0.1084  0.0882 -0.1247
  536TIP3    H125803   4.640   3.233   9.010 -1.0071 -0.4378  1.1986
  536TIP3    H225804   4.544   3.190   8.901 -0.6929  0.2410  0.6433
  537TIP3   OH225805   2.927   7.272   9.133  0.0476  0.4098 -0.0861
  537TIP3    H125806   2.855   7.240   9.078  0.0334 -0.3682  0.3751
  537TIP3    H225807   3.005   7.232   9.096  0.5931  3.0287 -2.0026
  538TIP3   OH225808   6.527   7.144   7.925 -0.1321  0.6466  0.0936
  538TIP3    H125809   6.586   7.071   7.947 -0.5461 -0.3953 -2.0130
  538TIP3    H225810   6.439   7.107   7.932 -0.3823  1.1806 -0.1636
  539TIP3   OH225811   1.964   3.153   8.229  0.2136 -0.2193 -0.2035
  539TIP3    H125812   1.973   3.193   8.316 -1.0029  0.9591 -0.5828
  539TIP3    H225813   1.987   3.061   8.242 -0.2495 -0.1259  1.4284
  540TIP3   OH225814   1.533   0.196   8.121 -0.0558  0.3402 -0.9076
  540TIP3    H125815   1.455   0.170   8.073 -0.3700 -0.7948  0.1600
  540TIP3    H225816   1.554   0.120   8.176  0.5285  1.4160  0.4241
  541TIP3   OH225817   7.210   2.517   7.946  0.6590  0.4742  0.5993
  541TIP3    H125818   7.200   2.422   7.932 -0.1496  0.6725 -0.2703
  541TIP3    H225819   7.292   2.539   7.901  0.7442  0.2178  0.6264
  542TIP3   OH225820   3.053   2.712   9.040  1.5032  0.1779 -0.5287
  542TIP3    H125821   3.038   2.735   8.948  1.8712 -0.9805 -0.8974
  542TIP3    H225822   3.110   2.635   9.036  2.1179  0.5491  0.6900
  543TIP3   OH225823   0.061   3.668   8.078  0.2871 -0.4249 -0.3141
  543TIP3    H125824   0.094   3.721   8.006  0.7299 -1.6834 -1.0611
  543TIP3    H225825   0.137   3.617   8.108  0.2287  0.3873  1.3518
  544TIP3   OH225826   3.055   5.695   8.465 -0.4121 -0.0428 -0.6108
  544TIP3    H125827   3.018   5.620   8.510 -0.4455 -0.3849 -1.2073
  544TIP3    H225828   3.150   5.688   8.481 -0.2831 -0.8663 -1.6298
  545TIP3   OH225829   2.984   0.492   8.248 -0.1208  0.2738  0.2201
  545TIP3    H125830   2.927   0.553   8.294  1.6379  1.4422  0.9352
  545TIP3    H225831   3.053   0.546   8.210  0.2335 -1.0315 -1.1108
  546TIP3   OH225832   6.166   1.971   8.434 -0.1421 -0.6117 -0.0169
  546TIP3    H125833   6.095   1.981   8.371 -0.9084  1.4860  1.0710
  546TIP3    H225834   6.224   2.045   8.417  1.6366 -2.0661 -0.6218
  547TIP3   OH225835   5.015   5.171   8.792  0.1865 -0.7636 -0.0515
  547TIP3    H125836   4.940   5.132   8.839  0.0071  0.2989  0.5892
  547TIP3    H225837   4.976   5.210   8.714  0.3638 -1.7985 -0.6864
  548TIP3   OH225838   7.278   4.309   7.192 -0.0020  0.5587  0.1803
  548TIP3    H125839   7.333   4.327   7.116 -0.8816  0.1981 -0.5496
  548TIP3    H225840   7.213   4.247   7.161 -1.0583  1.2699  0.9263
  549TIP3   OH225841   7.533   4.265   9.047 -0.1236  0.5554 -0.1803
  549TIP3    H125842   7.550   4.347   9.001 -0.6505 -0.2135 -1.8087
  549TIP3    H225843   7.441   4.271   9.073 -0.3747  0.2138 -0.9400
  550TIP3   OH225844   0.234   1.739   9.492 -0.0611  0.0974 -0.1895
  550TIP3    H125845   0.319   1.698   9.475  0.0449  0.2655 -0.0686
  550TIP3    H225846   0.200   1.761   9.405 -0.8936 -1.7766 -0.3930
  551TIP3   OH225847   6.394   1.899   8.218 -0.3162  0.2535  0.0829
  551TIP3    H125848   6.466   1.940   8.169  0.3633  1.3453  1.8956
  551TIP3    H225849   6.409   1.926   8.309 -1.0179 -2.3859  1.0671
  552TIP3   OH225850   3.394   1.637   7.891  0.3326 -0.2544  0.3832
  552TIP3    H125851   3.400   1.671   7.980 -2.6569  1.7652 -0.0306
  552TIP3    H225852   3.478   1.658   7.851  0.7362  1.3185  1.9490
  553TIP3   OH225853   3.642   2.558   9.131  0.1739  0.4317  0.1653
  553TIP3    H125854   3.616   2.601   9.213 -2.6492  1.8117 -1.2713
  553TIP3    H225855   3.720   2.605   9.103  0.2727  0.9833  1.2899
  554TIP3   OH225856   2.145   3.321   8.550 -0.2855  0.2750  0.2196
  554TIP3    H125857   2.153   3.250   8.614  0.4457 -0.9468 -1.1729
  554TIP3    H225858   2.061   3.363   8.571  0.3515  0.5036  2.5274
  555TIP3   OH225859   5.989   4.029   7.096  0.3872 -0.6725  0.0318
  555TIP3    H125860   5.921   4.085   7.133  0.1085 -0.8130 -0.2577
  555TIP3    H225861   5.943   3.977   7.029  0.9023 -0.3443 -0.5840
  556TIP3   OH225862   2.413   0.884   7.408 -0.4151  0.1305  0.5637
  556TIP3    H125863   2.405   0.979   7.402 -0.8665  0.1580  1.3550
  556TIP3    H225864   2.505   0.869   7.430  0.0463  0.2759 -1.1804
  557TIP3   OH225865   2.523   2.433   7.596  0.1521  0.4803 -0.0315
  557TIP3    H125866   2.438   2.476   7.581  0.8036  2.1570  0.8466
  557TIP3    H225867   2.584   2.479   7.538  0.4809 -0.8223 -0.7831
  558TIP3   OH225868   3.196   4.408   7.932 -0.0715  0.2673 -0.6026
  558TIP3    H125869   3.173   4.499   7.952  0.0889  0.4526 -1.2133
  558TIP3    H225870   3.137   4.355   7.985  2.0574  0.6545  2.4008
  559TIP3   OH225871   7.546   1.402   8.253  0.0984  0.0541 -0.3353
  559TIP3    H125872   7.608   1.434   8.187  1.3735 -1.3194  0.1500
  559TIP3    H225873   7.469   1.375   8.202  0.4416  0.4953 -1.0967
  560TIP3   OH225874   1.246   2.910   7.906 -0.2029 -0.0449  0.8089
  560TIP3    H125875   1.293   2.853   7.966  0.9380  0.4950  0.4544
  560TIP3    H225876   1.275   2.998   7.928  1.7058  0.0666 -1.6934
  561TIP3   OH225877   2.790   2.872   8.864 -0.2157  0.0754 -0.0991
  561TIP3    H125878   2.859   2.923   8.906  0.0243 -1.7001  1.8234
  561TIP3    H225879   2.830   2.839   8.784 -0.8000  3.8525 -2.2103
  562TIP3   OH225880   7.450   7.427   6.895  0.1649  0.2007 -0.5261
  562TIP3    H125881   7.545   7.440   6.891  0.0854  0.8117 -0.5424
  562TIP3    H225882   7.414   7.511   6.868 -0.3858 -0.1720 -0.9520
  563TIP3   OH225883   0.954   5.931   8.634  0.0185 -0.2270 -0.4388
  563TIP3    H125884   1.003   5.945   8.554 -2.7334  3.8777 -1.7221
  563TIP3    H225885   0.879   5.877   8.608 -0.1969  0.0294 -0.3633
  564TIP3   OH225886   7.362   1.242   8.079  0.4672 -0.3173  0.0331
  564TIP3    H125887   7.321   1.272   7.998  1.1167 -0.9063 -0.5377
  564TIP3    H225888   7.289   1.217   8.136  0.0168 -1.5213 -1.0266
  565TIP3   OH225889   7.287   2.132   9.254  0.1464 -0.6698 -0.0590
  565TIP3    H125890   7.356   2.158   9.193  2.0331 -2.8097  1.0118
  565TIP3    H225891   7.299   2.187   9.331 -0.8361  0.5013 -0.7030
  566TIP3   OH225892   0.733   3.753   8.749 -0.6394  0.4679  0.2520
  566TIP3    H125893   0.691   3.747   8.664 -1.4399  0.4709  0.6374
  566TIP3    H225894   0.663   3.734   8.812  0.0152  0.1267  0.8941
  567TIP3   OH225895   5.107   5.588   8.594  0.2166 -0.0897  0.1334
  567TIP3    H125896   5.108   5.604   8.688 -0.5297 -0.6886  0.2535
  567TIP3    H225897   5.112   5.492   8.586  2.1956  0.0067 -0.4914
  568TIP3   OH225898   5.606   2.440   8.924  0.6314  0.5383 -0.6505
  568TIP3    H125899   5.604   2.412   9.016  0.9395  0.0384 -0.7966
  568TIP3    H225900   5.655   2.522   8.926  1.8160 -0.1625 -0.5488
  569TIP3   OH225901   0.628   0.864   8.140 -0.1118 -0.0473  0.1795
  569TIP3    H125902   0.671   0.784   8.112  1.2963  0.9759 -0.7095
  569TIP3    H225903   0.613   0.913   8.059 -1.5176  0.3418  0.6373
  570TIP3   OH225904   1.113   6.720   9.488  0.3115  0.1946  0.0094
  570TIP3    H125905   1.163   6.728   9.569  1.8190 -3.0544 -0.4768
  570TIP3    H225906   1.096   6.627   9.478 -1.6934  0.6826 -2.3871
  571TIP3   OH225907   3.057   1.851   8.406  0.4619  0.0578  0.5275
  571TIP3    H125908   3.088   1.922   8.349  3.1295  0.1217  1.8708
  571TIP3    H225909   3.045   1.892   8.491  2.1054 -1.0489  1.3443
  572TIP3   OH225910   0.195   0.048   7.310 -0.9005  0.1186 -0.6865
  572TIP3    H125911   0.152   0.132   7.324  1.8940  1.6885 -0.7098
  572TIP3    H225912   0.259   0.041   7.381 -0.1333 -1.3229 -1.4623
  573TIP3   OH225913   3.120   0.619   7.684 -0.4639  0.2813  0.0020
  573TIP3    H125914   3.207   0.578   7.688 -0.4334  0.4378  1.2086
  573TIP3    H225915   3.075   0.571   7.614  1.0685  1.1980 -1.7165
  574TIP3   OH225916   2.871   2.416   7.571  0.2714 -0.2760  0.4422
  574TIP3    H125917   2.945   2.391   7.516 -0.0896 -0.7823  0.1814
  574TIP3    H225918   2.810   2.460   7.512  0.8547  1.1757  0.8763
  575TIP3   OH225919   6.647   0.306   8.295  0.2130  0.5114  0.0401
  575TIP3    H125920   6.660   0.399   8.312  0.6749  0.7789 -1.6268
  575TIP3    H225921   6.555   0.299   8.268  0.4390  0.6558 -0.7959
  576TIP3   OH225922   3.024   3.402   8.655 -0.1761 -0.2655 -0.3740
  576TIP3    H125923   3.057   3.396   8.744  0.6784 -0.2708 -0.6849
  576TIP3    H225924   2.946   3.457   8.662  0.5445  0.7083  0.2043
  577TIP3   OH225925   2.469   5.471   9.427 -0.0801 -0.0817  0.2467
  577TIP3    H125926   2.415   5.550   9.420  1.4100  1.0095  0.4698
  577TIP3    H225927   2.552   5.495   9.386  0.3359 -1.6176  0.1306
  578TIP3   OH225928   7.524   2.637   8.234 -0.0322  0.3001 -0.6209
  578TIP3    H125929   7.505   2.588   8.314  1.8747  0.2894 -0.1128
  578TIP3    H225930   7.581   2.708   8.262  0.7898  0.2157 -1.9715
  579TIP3   OH225931   4.052   4.997   6.824  0.5359 -0.4701  0.1051
  579TIP3    H125932   4.138   4.960   6.846 -0.0130 -1.6852  0.2656
  579TIP3    H225933   3.999   4.922   6.798 -0.8015  0.1182  1.0204
  580TIP3   OH225934   5.802   3.539   7.749  0.0844 -0.7074  0.3485
  580TIP3    H125935   5.738   3.504   7.687 -0.9227  1.6985 -0.1112
  580TIP3    H225936   5.763   3.524   7.835 -1.6909  1.4982  0.0515
  581TIP3   OH225937   3.068   3.483   9.589 -0.8416  0.3892  0.1435
  581TIP3    H125938   3.018   3.420   9.537  0.3972 -1.3653  0.9868
  581TIP3    H225939   3.101   3.432   9.663 -1.6802  2.5565  2.1422
  582TIP3   OH225940   3.655   2.551   8.786 -0.4494 -0.1541  0.2227
  582TIP3    H125941   3.636   2.478   8.845 -1.3092 -0.3703 -0.3092
  582TIP3    H225942   3.710   2.513   8.718 -2.0885 -0.6980 -0.8651
  583TIP3   OH225943   6.688   1.815   9.151 -0.2421 -0.5058  0.0930
  583TIP3    H125944   6.599   1.849   9.139 -0.6017 -1.6170 -0.5020
  583TIP3    H225945   6.745   1.883   9.115 -0.8300  0.2942  0.6350
  584TIP3   OH225946   7.619   2.190   9.246 -0.2150 -0.2130  0.1212
  584TIP3    H125947   7.693   2.161   9.299  0.8780  2.2734  0.0609
  584TIP3    H225948   7.638   2.155   9.158  0.5865 -0.0944  0.2395
  585TIP3   OH225949   4.894   6.544   9.060 -0.1946 -0.1406  0.1249
  585TIP3    H125950   4.813   6.592   9.081 -0.1308  0.2126 -0.4397
  585TIP3    H225951   4.866   6.475   9.000 -0.1589 -0.3428  0.3386
  586TIP3   OH225952   6.691   2.562   8.186  0.7012 -0.0255 -0.2559
  586TIP3    H125953   6.740   2.555   8.267  0.5501 -1.2427 -0.2488
  586TIP3    H225954   6.626   2.631   8.203 -0.4475 -1.4020  1.2770
  587TIP3   OH225955   6.000   5.822   8.602 -0.3889  0.7478 -0.3013
  587TIP3    H125956   6.033   5.912   8.593 -2.5832  1.4574 -2.1741
  587TIP3    H225957   6.040   5.775   8.529 -0.7892  0.7390 -0.5193
  588TIP3   OH225958   2.278   2.124   6.887  0.2366  0.6333 -0.2827
  588TIP3    H125959   2.347   2.187   6.867  0.4439  0.5427  0.1376
  588TIP3    H225960   2.217   2.131   6.814 -0.0697  1.7659  0.0587
  589TIP3   OH225961   5.969   6.545   7.012 -0.3443  0.2646 -0.1339
  589TIP3    H125962   5.885   6.500   7.020 -0.6048  0.2737 -2.1774
  589TIP3    H225963   6.035   6.476   7.024 -0.6550  0.0744  0.5098
  590TIP3   OH225964   7.404   2.277   8.894  0.3840 -0.1698 -0.1600
  590TIP3    H125965   7.411   2.197   8.946  3.3465 -0.3280 -0.6532
  590TIP3    H225966   7.457   2.260   8.816  2.6352  2.8295  0.5350
  591TIP3   OH225967   5.957   7.566   8.824 -0.1252  0.2147  0.2458
  591TIP3    H125968   6.041   7.521   8.824 -1.5808 -2.7519 -0.4812
  591TIP3    H225969   5.969   7.641   8.766  1.7064 -0.7708 -0.7056
  592TIP3   OH225970   6.188   0.086   7.679  0.5309  0.1788 -0.4443
  592TIP3    H125971   6.195   0.177   7.707  0.0943  0.0954 -0.0449
  592TIP3    H225972   6.096   0.063   7.695  0.9139 -0.7137  0.6687
  593TIP3   OH225973   1.719   3.736   8.226 -0.5672 -0.4765 -0.7323
  593TIP3    H125974   1.795   3.758   8.171 -0.2874 -0.2919 -0.2833
  593TIP3    H225975   1.668   3.675   8.173  1.9276 -3.9110  0.3798
  594TIP3   OH225976   6.693   3.309   8.884 -0.1390 -0.2373 -0.0897
  594TIP3    H125977   6.683   3.346   8.796 -1.0471  2.7702  1.1524
  594TIP3    H225978   6.695   3.385   8.942 -2.0817 -2.1454  2.7353
  595TIP3   OH225979   7.559   3.098   8.813  0.5847  0.2958  0.5401
  595TIP3    H125980   7.496   3.160   8.775  1.6292  0.5677 -0.8156
  595TIP3    H225981   7.543   3.016   8.766  0.3508 -0.0162  1.1483
  596TIP3   OH225982   5.673   5.253   7.832  0.0613 -0.3120 -0.6327
  596TIP3    H125983   5.613   5.293   7.895  0.7703  2.1961 -1.4610
  596TIP3    H225984   5.639   5.164   7.822 -2.7572  0.5867 -0.1072
  597TIP3   OH225985   5.249   5.916   7.385  0.7572 -0.1216 -0.1595
  597TIP3    H125986   5.284   5.831   7.359  1.1423 -0.4798  1.4413
  597TIP3    H225987   5.183   5.896   7.451 -0.1221  0.7702 -0.7248
  598TIP3   OH225988   2.287   6.431   7.420  0.3289  0.9396 -0.0217
  598TIP3    H125989   2.314   6.398   7.334 -0.4126 -0.4986  0.2675
  598TIP3    H225990   2.369   6.453   7.464  0.6780  4.3304 -2.0253
  599TIP3   OH225991   4.881   1.402   8.984 -0.8131 -0.2911 -0.4644
  599TIP3    H125992   4.936   1.480   8.981 -0.6092 -0.4745 -1.8721
  599TIP3    H225993   4.842   1.404   9.072  1.0833  0.0732  0.4194
  600TIP3   OH225994   5.072   4.301   8.958  0.3760 -0.4375  0.4223
  600TIP3    H125995   5.124   4.359   9.015 -0.2812 -0.1987  0.7949
  600TIP3    H225996   4.981   4.322   8.980  0.1014 -2.4441  1.4405
  601TIP3   OH225997   5.064   4.131   7.411  0.2903  0.1760 -0.2816
  601TIP3    H125998   5.064   4.174   7.325  0.0096  1.0039  0.1259
  601TIP3    H225999   4.980   4.085   7.414 -1.6884  3.5441  1.1788
  602TIP3   OH226000   5.889   1.628   9.533  0.7978  0.2977 -0.2704
  602TIP3    H126001   5.878   1.643   9.627  1.1198  1.1747 -0.3668
  602TIP3    H226002   5.813   1.669   9.493  1.4539  1.3052 -0.5035
  603TIP3   OH226003   7.127   3.273   7.841  0.4184 -0.0606  0.0243
  603TIP3    H126004   7.042   3.316   7.839  0.3638 -0.1981 -0.7189
  603TIP3    H226005   7.160   3.280   7.752  1.6807  0.9682  0.5354
  604TIP3   OH226006   0.960   1.536   7.314  0.4695  0.4895 -0.9304
  604TIP3    H126007   0.912   1.609   7.355  1.1984  0.9996 -0.9605
  604TIP3    H226008   0.900   1.462   7.318  0.3229  0.6575  0.6149
  605TIP3   OH226009   2.575   5.772   9.696 -0.4507  0.2577 -0.3079
  605TIP3    H126010   2.592   5.779   9.789  1.3815  1.2434 -0.6768
  605TIP3    H226011   2.566   5.678   9.680 -1.8861  0.1511  1.0112
  606TIP3   OH226012   6.325   6.943   8.875 -0.5041  0.0305 -0.2246
  606TIP3    H126013   6.297   6.910   8.961 -2.2196 -0.4802 -0.9325
  606TIP3    H226014   6.353   7.033   8.891  1.4780 -0.7915  1.2586
  607TIP3   OH226015   3.018   2.134   7.886 -0.2908 -0.4677  0.4765
  607TIP3    H126016   2.955   2.150   7.956 -0.0613 -0.1397  0.6081
  607TIP3    H226017   3.040   2.220   7.852  0.1590 -0.5661  0.4987
  608TIP3   OH226018   3.297   7.635   7.519  0.3312  0.2406  0.0524
  608TIP3    H126019   3.315   7.726   7.493 -1.3061  0.9053  1.0421
  608TIP3    H226020   3.236   7.603   7.452 -0.0057  0.2775  0.3379
  609TIP3   OH226021   4.671   5.584   7.653 -0.1185 -0.1252  0.1628
  609TIP3    H126022   4.592   5.634   7.674  0.2258  0.0980  0.9782
  609TIP3    H226023   4.688   5.602   7.561 -0.4018  0.7006  0.2678
  610TIP3   OH226024   7.392   5.395   8.718 -0.6346 -0.3609  0.5501
  610TIP3    H126025   7.304   5.432   8.726  0.0827  1.5475  0.2821
  610TIP3    H226026   7.440   5.432   8.792  0.1942 -0.5952  0.1437
  611TIP3   OH226027   2.097   2.636   7.742  0.3001  0.0316  0.1039
  611TIP3    H126028   2.016   2.681   7.722  0.1827 -0.1873  0.0837
  611TIP3    H226029   2.106   2.643   7.837  1.3343  1.8810 -0.0851
  612TIP3   OH226030   6.801   0.678   7.497 -0.4308 -0.2800  0.2075
  612TIP3    H126031   6.813   0.601   7.442 -0.2948 -0.4247  0.4361
  612TIP3    H226032   6.827   0.649   7.584  1.0770  0.4400  0.0328
  613TIP3   OH226033   2.654   1.125   9.480 -0.2825  0.1152 -0.3036
  613TIP3    H126034   2.695   1.039   9.474 -1.3119 -0.5519  1.4768
  613TIP3    H226035   2.566   1.108   9.512 -0.3746  1.8378  0.5124
  614TIP3   OH226036   3.797   7.151   9.053 -0.0497  0.5572  0.4986
  614TIP3    H126037   3.808   7.224   8.991  1.8677  2.7515  3.1478
  614TIP3    H226038   3.703   7.150   9.071 -0.4971  0.5617 -1.5704
  615TIP3   OH226039   4.652   6.708   7.973  0.1877 -0.2968 -0.1551
  615TIP3    H126040   4.735   6.675   7.939  0.6434  0.1922  0.4657
  615TIP3    H226041   4.673   6.743   8.060 -0.4344  0.8916 -0.4573
  616TIP3   OH226042   2.792   2.836   8.051 -0.0944  0.6367  0.0905
  616TIP3    H126043   2.880   2.799   8.053  0.9037  2.5312 -2.5641
  616TIP3    H226044   2.743   2.779   7.992 -0.0500  0.7434 -0.0482
  617TIP3   OH226045   1.464   0.459   6.760 -0.4941  0.0749  0.4401
  617TIP3    H126046   1.490   0.490   6.673  0.5616  0.1974  0.7793
  617TIP3    H226047   1.498   0.369   6.764  1.8721  0.9464  1.6851
  618TIP3   OH226048   0.882   1.769   7.483 -0.1114  0.9731 -0.0308
  618TIP3    H126049   0.850   1.845   7.434 -1.3354  0.8939  0.6223
  618TIP3    H226050   0.809   1.743   7.539  0.7446  0.1277  0.7378
  619TIP3   OH226051   0.269   7.380   8.465 -0.0730 -0.1462 -0.0451
  619TIP3    H126052   0.361   7.407   8.461  0.1531 -0.5362  1.7035
  619TIP3    H226053   0.251   7.344   8.378  1.4699 -0.1821 -0.3829
  620TIP3   OH226054   1.072   6.364   7.810  0.5589 -0.2892  0.0042
  620TIP3    H126055   1.053   6.439   7.754  0.2965  0.0637  0.5543
  620TIP3    H226056   0.987   6.337   7.845  0.7234 -0.4683  0.2761
  621TIP3   OH226057   0.261   2.916   8.990 -0.1284 -1.0247  0.1469
  621TIP3    H126058   0.214   2.843   9.031  0.4320 -2.4132 -1.5726
  621TIP3    H226059   0.349   2.882   8.974 -0.1906 -0.4091 -1.7571
  622TIP3   OH226060   7.072   7.282   8.231  0.2439  0.7781 -0.3847
  622TIP3    H126061   6.983   7.295   8.200 -0.0952 -1.4360 -0.4580
  622TIP3    H226062   7.065   7.279   8.326 -0.0887 -1.2145 -0.4343
  623TIP3   OH226063   2.224   5.772   7.770  0.4814  0.1172  0.3800
  623TIP3    H126064   2.222   5.690   7.819  2.0137  1.1675  2.3668
  623TIP3    H226065   2.316   5.786   7.750  0.1118  0.8318 -0.8899
  624TIP3   OH226066   1.753   2.594   9.322  0.5718  0.1372 -0.1572
  624TIP3    H126067   1.675   2.626   9.277  0.5682  1.2961  0.6376
  624TIP3    H226068   1.826   2.635   9.275  0.6771 -0.2762 -0.3669
  625TIP3   OH226069   1.122   2.272   7.905 -0.6354  0.3533 -0.5319
  625TIP3    H126070   1.208   2.260   7.944 -0.5620  1.1673 -0.4156
  625TIP3    H226071   1.060   2.251   7.975 -0.5058  1.5378 -0.0330
  626TIP3   OH226072   2.830   3.491   9.019  0.4151 -0.4729  0.0423
  626TIP3    H126073   2.777   3.464   9.094 -0.6813  1.0099 -0.1480
  626TIP3    H226074   2.921   3.481   9.048  0.0143 -0.8738  1.2069
  627TIP3   OH226075   4.137   4.052   7.908 -0.1662 -0.1645 -0.2710
  627TIP3    H126076   4.167   4.141   7.892 -0.9573  0.0999 -0.2840
  627TIP3    H226077   4.170   4.002   7.834 -1.0930  0.4280 -1.0970
  628TIP3   OH226078   5.493   3.767   7.923 -0.2033  0.1122 -0.4371
  628TIP3    H126079   5.444   3.784   7.842 -0.5122 -2.3676 -0.8266
  628TIP3    H226080   5.425   3.746   7.987  0.2252 -1.8299 -0.5857
  629TIP3   OH226081   1.888   3.730   6.308  0.5682 -0.5585 -0.4970
  629TIP3    H126082   1.852   3.770   6.229 -2.3202 -3.4289 -0.8712
  629TIP3    H226083   1.975   3.768   6.317 -1.4493  5.0586 -1.0708
  630TIP3   OH226084   3.708   3.979   8.299 -0.2526  0.4552  0.1583
  630TIP3    H126085   3.746   3.936   8.376 -1.4039 -0.9041  0.0017
  630TIP3    H226086   3.712   3.913   8.230 -0.0661  1.3553 -0.7156
  631TIP3   OH226087   0.289   1.591   8.167 -0.5398  0.2111 -0.3130
  631TIP3    H126088   0.260   1.503   8.189 -1.3489  0.4560 -0.3720
  631TIP3    H226089   0.295   1.636   8.251 -0.1001  0.1006 -0.2799
  632TIP3   OH226090   6.044   4.399   7.466  0.1520 -0.5474 -0.4869
  632TIP3    H126091   6.098   4.406   7.387 -0.0029 -0.2350 -0.5635
  632TIP3    H226092   6.068   4.314   7.503  1.4574  0.0102  0.0326
  633TIP3   OH226093   1.828   6.183   9.378 -0.0928 -0.2121  0.1093
  633TIP3    H126094   1.861   6.263   9.418  1.1616 -0.5535 -0.2029
  633TIP3    H226095   1.760   6.212   9.317 -0.0351  0.5589  0.4083
  634TIP3   OH226096   0.274   1.830   8.034  0.5794 -0.4988 -0.0483
  634TIP3    H126097   0.202   1.842   7.972 -0.4171 -0.7536  1.0250
  634TIP3    H226098   0.273   1.737   8.055  1.9734 -0.7298 -0.8700
  635TIP3   OH226099   5.629   0.798   8.141  0.2189  0.0500  0.0330
  635TIP3    H126100   5.626   0.873   8.083  1.4462 -1.0819 -1.5922
  635TIP3    H226101   5.572   0.733   8.100 -1.6048  0.3409  1.9091
  636TIP3   OH226102   3.427   2.846   8.617  0.0237  0.1616 -0.1090
  636TIP3    H126103   3.470   2.841   8.531 -2.3274  1.4647 -1.4385
  636TIP3    H226104   3.413   2.754   8.642 -1.1396 -0.2665 -2.1535
  637TIP3   OH226105   0.840   0.305   9.750  0.0812 -0.3436 -0.3718
  637TIP3    H126106   0.760   0.351   9.722  0.2813 -0.1756 -0.6686
  637TIP3    H226107   0.911   0.357   9.715  0.3842  0.5292  1.4003
  638TIP3   OH226108   0.017   1.835   9.678 -0.0706 -0.2403  0.3283
  638TIP3    H126109   0.068   1.775   9.623 -1.3466 -0.2893 -0.8451
  638TIP3    H226110  -0.073   1.827   9.647 -0.6632  0.5736  1.7010
  639TIP3   OH226111   2.807   4.957   7.112 -0.2187  0.0177 -0.4626
  639TIP3    H126112   2.829   4.865   7.099 -1.5355 -0.2069 -1.3092
  639TIP3    H226113   2.885   4.995   7.154  0.8677 -1.1791 -1.3163
  640TIP3   OH226114   6.662   4.734   7.146 -0.2590 -0.3494 -0.5384
  640TIP3    H126115   6.676   4.819   7.187  2.0057  0.7545 -3.2852
  640TIP3    H226116   6.591   4.694   7.196 -0.2477  2.4135  1.9052
  641TIP3   OH226117   1.329   1.319   9.670  0.7070 -0.2154 -0.4276
  641TIP3    H126118   1.287   1.294   9.588 -0.6413  1.8130 -0.4357
  641TIP3    H226119   1.275   1.279   9.738  0.8006 -0.4620 -0.4977
  642TIP3   OH226120   2.807   1.967   9.193 -0.0288  0.1797 -0.0071
  642TIP3    H126121   2.769   1.990   9.108  0.8966  0.2126 -0.4254
  642TIP3    H226122   2.859   1.888   9.175 -0.1753 -0.0607  0.6181
  643TIP3   OH226123   7.414   3.835   7.372  0.7824 -0.2838 -0.2549
  643TIP3    H126124   7.409   3.919   7.418  1.9442  0.3987 -1.3344
  643TIP3    H226125   7.391   3.857   7.281  0.5014 -1.2539 -0.4236
  644TIP3   OH226126   6.021   1.234   9.072  0.0159 -0.0152  0.3014
  644TIP3    H126127   6.063   1.156   9.108 -0.1320  0.2382  1.0475
  644TIP3    H226128   5.945   1.201   9.024  0.3727 -0.3802 -0.0235
  645TIP3   OH226129   4.907   4.433   9.281 -0.0096  0.2246 -0.6912
  645TIP3    H126130   4.950   4.479   9.353 -3.2503  0.8062  1.0469
  645TIP3    H226131   4.899   4.342   9.310 -2.0572  0.6220  0.1821
  646TIP3   OH226132   1.803   4.086   8.069  0.1382  0.2165  0.2536
  646TIP3    H126133   1.811   4.134   8.151  2.4457 -1.5695  1.2144
  646TIP3    H226134   1.860   4.009   8.081 -2.5570 -2.2551 -1.5153
  647TIP3   OH226135   7.062   6.578   8.633 -0.4471  0.3672  0.3441
  647TIP3    H126136   7.110   6.661   8.628  0.0339  0.0462 -0.6005
  647TIP3    H226137   7.130   6.511   8.631 -0.8873 -0.0773  0.0535
  648TIP3   OH226138   7.382   0.695   9.091 -0.0811  0.0770 -0.1725
  648TIP3    H126139   7.322   0.751   9.041  1.1726  1.0718 -0.6071
  648TIP3    H226140   7.398   0.743   9.172  0.7627  0.2302 -0.4177
  649TIP3   OH226141   3.230   2.325   8.985 -0.1675 -0.3134  0.3457
  649TIP3    H126142   3.135   2.332   8.997 -0.0585 -0.9640  1.7381
  649TIP3    H226143   3.255   2.408   8.946 -0.9965  0.8339  2.1262
  650TIP3   OH226144   6.475   1.141   8.505  0.3339 -0.5818 -0.5752
  650TIP3    H126145   6.478   1.124   8.410 -0.4297 -2.0454 -0.3679
  650TIP3    H226146   6.383   1.127   8.528  0.3268  0.7325  0.2255
  651TIP3   OH226147   5.567   4.025   9.173 -0.2033 -0.1421  0.9890
  651TIP3    H126148   5.577   4.112   9.213 -0.0703  0.3218  0.0075
  651TIP3    H226149   5.473   4.016   9.159 -0.1841  0.0508  0.6982
  652TIP3   OH226150   4.817   1.459   8.655 -0.7019 -0.1784  0.3210
  652TIP3    H126151   4.823   1.459   8.560 -2.6274 -0.7100  0.1609
  652TIP3    H226152   4.891   1.514   8.684  2.3749 -3.1508 -1.2043
  653TIP3   OH226153   5.577   6.934   8.416 -0.4744 -0.2629 -0.2015
  653TIP3    H126154   5.506   6.871   8.428 -0.2271 -0.4508  0.2714
  653TIP3    H226155   5.539   7.001   8.359 -1.1813 -0.1241  0.4219
  654TIP3   OH226156   3.887   4.900   7.552  0.4896 -0.1176  0.0513
  654TIP3    H126157   3.824   4.910   7.623  0.1413 -1.3935 -0.0608
  654TIP3    H226158   3.944   4.828   7.580  2.0786  1.1364  0.2528
  655TIP3   OH226159   3.971   7.076   7.517 -0.4725  0.1688 -0.6546
  655TIP3    H126160   4.027   7.039   7.448 -0.1510 -0.7259  0.0612
  655TIP3    H226161   3.899   7.118   7.470  1.5044  2.6848 -1.6966
  656TIP3   OH226162   6.883   6.786   9.548 -0.1937 -0.1154 -0.3058
  656TIP3    H126163   6.826   6.770   9.623  0.6973 -0.1719  0.3740
  656TIP3    H226164   6.968   6.750   9.574  0.5924  1.4144 -0.6433
  657TIP3   OH226165   7.605   5.447   8.395  0.0151 -0.1154 -0.3621
  657TIP3    H126166   7.551   5.367   8.398 -0.1475 -0.0219 -0.7968
  657TIP3    H226167   7.567   5.499   8.324 -0.3690  0.7044  0.4260
  658TIP3   OH226168   0.813   4.838   8.058 -0.3519 -0.2679  0.2751
  658TIP3    H126169   0.837   4.930   8.070 -0.4971 -0.1492 -0.3390
  658TIP3    H226170   0.726   4.840   8.018 -0.7046 -0.6851  0.9881
  659TIP3   OH226171   1.327   7.442   7.340  0.2868  0.2854 -0.1059
  659TIP3    H126172   1.419   7.417   7.346  0.2047  0.3109  2.9806
  659TIP3    H226173   1.312   7.457   7.247  3.7723  1.7109 -0.5755
  660TIP3   OH226174   5.029   1.532   8.217 -0.0745  0.6342  0.5830
  660TIP3    H126175   5.048   1.621   8.247 -0.3745  0.8465  0.1518
  660TIP3    H226176   4.989   1.544   8.130  0.9035  0.0282  0.0301
  661TIP3   OH226177   5.195   5.416   8.027  0.1552 -0.0107  0.4164
  661TIP3    H126178   5.112   5.408   8.073  0.7776  1.3089  1.8545
  661TIP3    H226179   5.206   5.333   7.982 -1.3773 -0.6398  1.1482
  662TIP3   OH226180   4.321   0.840   7.078 -0.2008 -0.1237  0.0509
  662TIP3    H126181   4.378   0.774   7.038  0.3288  1.4054 -1.8449
  662TIP3    H226182   4.233   0.804   7.069  0.2638 -1.7541  1.4955
  663TIP3   OH226183   3.598   6.987   8.841  0.1409  0.1806 -0.4316
  663TIP3    H126184   3.520   6.939   8.811 -0.3530  0.6944 -0.0122
  663TIP3    H226185   3.672   6.931   8.817 -0.4349 -0.9787  0.3915
  664TIP3   OH226186   4.173   1.476   7.266  0.1994  0.4055  0.5702
  664TIP3    H126187   4.130   1.396   7.235  0.8446 -0.8537  2.7303
  664TIP3    H226188   4.108   1.545   7.252 -0.2523 -0.3713 -1.6361
  665TIP3   OH226189   5.059   1.244   7.069  0.1542  0.1917 -0.0199
  665TIP3    H126190   5.083   1.175   7.007 -1.6633 -0.1470 -0.4081
  665TIP3    H226191   4.988   1.292   7.026  1.5658  2.5626  0.0960
  666TIP3   OH226192   1.287   2.643   7.159 -0.3968 -0.0846  0.4747
  666TIP3    H126193   1.311   2.664   7.249  1.2017  1.7900 -0.3189
  666TIP3    H226194   1.275   2.548   7.159  2.0776 -0.4881  2.1300
  667TIP3   OH226195   0.289   6.998   8.250 -0.7530 -0.3863 -0.2753
  667TIP3    H126196   0.243   6.948   8.318  0.4745  0.5745  1.3389
  667TIP3    H226197   0.253   7.086   8.257  1.1866  0.3657  0.9688
  668TIP3   OH226198   7.161   1.866   9.246 -0.3030  0.2541 -0.6348
  668TIP3    H126199   7.136   1.952   9.278  0.0464 -0.0365  0.4634
  668TIP3    H226200   7.257   1.864   9.254 -0.3866 -0.6155  0.3975
  669TIP3   OH226201   6.156   3.879   8.844  0.6997  0.1679 -0.4331
  669TIP3    H126202   6.150   3.799   8.896 -1.5020  0.8238  0.4239
  669TIP3    H226203   6.245   3.877   8.808  1.9084 -0.9569  2.3275
  670TIP3   OH226204   1.917   0.874   9.095 -1.0010 -0.7561  0.4965
  670TIP3    H126205   1.869   0.954   9.071  3.4500  1.4540 -2.4534
  670TIP3    H226206   1.867   0.803   9.054 -2.4760  1.1442 -1.2598
  671TIP3   OH226207   0.635   3.621   7.399  0.7711 -0.2315 -0.5275
  671TIP3    H126208   0.615   3.674   7.322 -1.1214  0.5884  0.4720
  671TIP3    H226209   0.691   3.677   7.453  0.6470 -0.1209 -0.5122
  672TIP3   OH226210   4.319   3.092   8.385  0.0437 -0.5236  0.2963
  672TIP3    H126211   4.407   3.089   8.423 -0.5347  0.8663  1.8639
  672TIP3    H226212   4.274   3.161   8.435 -1.2924  0.2504 -1.8564
  673TIP3   OH226213   7.577   1.676   8.259  0.4294  0.0779  0.1926
  673TIP3    H126214   7.510   1.617   8.292 -1.1755 -0.2561 -3.2514
  673TIP3    H226215   7.596   1.645   8.171  1.8160  2.8492 -0.6120
  674TIP3   OH226216   3.858   7.361   8.182 -0.6276  0.2225 -0.3626
  674TIP3    H126217   3.790   7.400   8.236 -0.5628  1.2726 -1.0116
  674TIP3    H226218   3.811   7.320   8.109 -0.7740 -1.8348  0.8018
  675TIP3   OH226219   4.259   6.403   7.502 -0.3497 -0.4001 -0.2780
  675TIP3    H126220   4.164   6.395   7.494 -0.6732  1.4696  1.1846
  675TIP3    H226221   4.273   6.438   7.589  1.6431  0.2443 -0.8188
  676TIP3   OH226222   2.856   2.262   8.618  0.3350  0.2639  0.2462
  676TIP3    H126223   2.782   2.322   8.607  1.3505  1.1634 -2.3542
  676TIP3    H226224   2.903   2.297   8.695  0.3695  2.2943 -0.6288
  677TIP3   OH226225   7.655   2.964   8.378  0.2413 -0.0397 -0.5228
  677TIP3    H126226   7.642   3.056   8.400  0.5030 -0.0704 -0.2242
  677TIP3    H226227   7.668   2.921   8.463 -2.7704 -0.8425 -0.3696
  678TIP3   OH226228   1.332   6.967   9.319  0.0669 -0.2669 -0.6995
  678TIP3    H126229   1.243   6.974   9.352  0.6479 -1.5321  1.3896
  678TIP3    H226230   1.326   6.987   9.226 -2.5717 -1.3322 -0.8343
  679TIP3   OH226231   1.864   3.208   7.978  0.6528 -0.4270  0.2408
  679TIP3    H126232   1.893   3.178   8.064 -0.2881 -0.0712  0.6995
  679TIP3    H226233   1.925   3.278   7.955  1.1348 -0.7759  0.4505
  680TIP3   OH226234   3.143   0.290   9.323 -0.5227 -0.1352  0.3884
  680TIP3    H126235   3.085   0.360   9.351 -1.3132  0.1203 -1.7321
  680TIP3    H226236   3.103   0.210   9.356 -1.3559  0.1582  0.1062
  681TIP3   OH226237   6.347   0.345   7.925  0.0296 -0.1931  0.4019
  681TIP3    H126238   6.351   0.424   7.979 -1.1452 -1.0391  1.7917
  681TIP3    H226239   6.254   0.337   7.901  0.1705 -1.0590  0.1257
  682TIP3   OH226240   6.490   5.961   6.867 -0.0179  0.4213 -0.0060
  682TIP3    H126241   6.421   6.003   6.816 -0.8212  0.0089  0.7202
  682TIP3    H226242   6.545   5.917   6.801 -1.9993 -1.5430 -0.4662
  683TIP3   OH226243   2.324   1.285   6.915  0.3440 -0.6445  0.0908
  683TIP3    H126244   2.384   1.305   6.843 -0.9329  0.6760 -0.6618
  683TIP3    H226245   2.323   1.189   6.918  0.8137 -0.7307 -1.3441
  684TIP3   OH226246   7.583   7.124   8.749 -0.0579  0.0030 -0.5701
  684TIP3    H126247   7.539   7.209   8.751  1.3731  0.7895 -0.7453
  684TIP3    H226248   7.581   7.093   8.839  2.1049  1.7406  0.1924
  685TIP3   OH226249   6.503   6.165   7.829  0.4826 -0.4419 -0.1094
  685TIP3    H126250   6.497   6.123   7.743  2.8426  0.2556 -0.6908
  685TIP3    H226251   6.467   6.252   7.815  3.8074  0.8667 -1.3709
  686TIP3   OH226252   1.231   3.655   6.254  0.7667  0.5793  0.1037
  686TIP3    H126253   1.221   3.739   6.207 -1.0499  0.7351  0.6888
  686TIP3    H226254   1.325   3.645   6.265  1.1904  1.2383 -2.3090
  687TIP3   OH226255   7.439   0.224   7.750 -0.6055 -0.3312 -0.5712
  687TIP3    H126256   7.427   0.267   7.665  0.3499  1.0843 -0.0398
  687TIP3    H226257   7.521   0.174   7.739  1.4958  2.6098  0.4575
  688TIP3   OH226258   2.816   7.002   7.618  0.1362 -0.0976 -0.4556
  688TIP3    H126259   2.894   6.978   7.567  1.0761 -1.0941  1.3475
  688TIP3    H226260   2.808   7.097   7.607  0.0064 -0.3289 -2.7972
  689TIP3   OH226261   5.107   0.010   7.276 -0.3531 -0.0114  0.8458
  689TIP3    H126262   5.086   0.006   7.183 -0.6874  2.6794  0.7101
  689TIP3    H226263   5.186   0.064   7.280  0.0879 -0.7122  2.0812
  690TIP3   OH226264   1.555   0.441   7.931  0.4769  0.2463 -0.5564
  690TIP3    H126265   1.617   0.513   7.932  1.2486 -0.3900  0.8029
  690TIP3    H226266   1.585   0.382   8.001 -0.1494 -1.3582 -1.5667
  691TIP3   OH226267   5.498   7.038   9.410  0.2531 -0.0213 -0.4871
  691TIP3    H126268   5.477   6.947   9.430 -2.6520  0.7352  0.4630
  691TIP3    H226269   5.505   7.041   9.315  0.8702 -1.2885 -0.5051
  692TIP3   OH226270   2.695   1.359   7.540 -0.6204  0.7025  0.4636
  692TIP3    H126271   2.763   1.377   7.475 -1.4871 -2.8001 -1.6959
  692TIP3    H226272   2.638   1.436   7.537 -0.1322  1.0884 -2.3864
  693TIP3   OH226273   7.297   6.053   8.652  0.0533  0.0540  0.1333
  693TIP3    H126274   7.357   6.116   8.692 -1.6648  0.8344  1.6353
  693TIP3    H226275   7.210   6.090   8.668 -0.9129 -1.7968 -0.6054
  694TIP3   OH226276   3.899   4.955   8.740 -0.2815 -0.2773 -0.0981
  694TIP3    H126277   3.846   5.025   8.778  1.5207  1.4739 -0.6676
  694TIP3    H226278   3.949   4.920   8.814  0.5695  0.6860 -0.1987
  695TIP3   OH226279   4.482   1.665   9.324  0.2342  0.1149 -0.0943
  695TIP3    H126280   4.506   1.641   9.413 -2.1847 -1.5492  0.2143
  695TIP3    H226281   4.536   1.610   9.268  2.1666  1.5560  0.2281
  696TIP3   OH226282   4.699   4.269   8.100 -0.6785  0.3417  0.6355
  696TIP3    H126283   4.722   4.177   8.113  0.1558  0.3229 -0.7545
  696TIP3    H226284   4.648   4.269   8.019  2.3889  1.4522 -1.4735
  697TIP3   OH226285   7.462   4.611   8.097 -0.2524  0.5881 -0.4340
  697TIP3    H126286   7.474   4.697   8.057  0.1066  0.2725 -1.0157
  697TIP3    H226287   7.498   4.620   8.185  0.1311  0.9265 -0.6224
  698TIP3   OH226288   4.399   1.448   8.618 -0.0199 -0.2366 -0.2856
  698TIP3    H126289   4.410   1.375   8.558 -1.3767 -1.8886  1.3554
  698TIP3    H226290   4.422   1.412   8.704  0.1089  1.5198  0.4538
  699TIP3   OH226291   4.469   7.418   6.892  0.6285  0.1575  0.8936
  699TIP3    H126292   4.416   7.451   6.818  0.3218 -2.1486  0.0134
  699TIP3    H226293   4.529   7.490   6.911  0.5280  0.9638 -1.4267
  700TIP3   OH226294   3.682   6.646   8.221  0.6673  0.0092 -0.4741
  700TIP3    H126295   3.625   6.701   8.168  0.6086 -1.8759 -2.5282
  700TIP3    H226296   3.623   6.601   8.282  0.0659 -0.9166 -1.6819
  701TIP3   OH226297   1.533   3.599   8.096  0.0921  0.2029  0.4906
  701TIP3    H126298   1.469   3.614   8.026  2.5828 -0.1488 -2.0514
  701TIP3    H226299   1.544   3.504   8.098  0.0809  0.2116  1.3936
  702TIP3   OH226300   1.140   1.141   7.928  0.0435 -0.6008 -0.0196
  702TIP3    H126301   1.215   1.160   7.872 -1.7853 -1.0786 -2.8115
  702TIP3    H226302   1.134   1.045   7.928 -0.4324 -0.5753  0.3957
  703TIP3   OH226303   2.120   2.150   8.177 -0.4623 -0.2254 -0.1464
  703TIP3    H126304   2.086   2.173   8.264  1.8801 -2.1594  1.4214
  703TIP3    H226305   2.180   2.077   8.193 -0.0619 -0.7847 -3.4582
  704TIP3   OH226306   2.177   0.265   9.267 -0.0834 -0.0505 -0.1137
  704TIP3    H126307   2.190   0.285   9.174 -0.6483  1.5667  0.1172
  704TIP3    H226308   2.130   0.342   9.301  2.8614  0.8965  2.2070
  705TIP3   OH226309   2.663   1.083   6.692  0.4223 -0.6107 -0.0296
  705TIP3    H126310   2.626   1.167   6.720 -1.1606 -0.9844 -0.8913
  705TIP3    H226311   2.601   1.050   6.627  0.7744 -2.6624  0.6130
  706TIP3   OH226312   6.256   3.594   8.070 -0.1822 -0.2183 -0.2117
  706TIP3    H126313   6.306   3.589   7.989  0.6890 -0.8104  0.3488
  706TIP3    H226314   6.279   3.678   8.108 -0.5802  0.0534 -0.5578
  707TIP3   OH226315   0.806   3.154   8.274 -0.0021 -0.1828 -0.2489
  707TIP3    H126316   0.857   3.227   8.308 -0.3828  0.0729 -0.2267
  707TIP3    H226317   0.749   3.128   8.347 -1.6647  1.1213 -1.0174
  708TIP3   OH226318   2.890   0.495   7.861 -0.3822  0.1240  0.1627
  708TIP3    H126319   2.878   0.404   7.888 -1.1635  0.1891  0.0456
  708TIP3    H226320   2.970   0.493   7.808  0.3155 -0.2674  1.1811
  709TIP3   OH226321   2.782   7.661   8.149  0.3566  0.3910 -0.1103
  709TIP3    H126322   2.820   7.745   8.175 -1.0316  1.0635 -0.2158
  709TIP3    H226323   2.713   7.645   8.214  1.4501 -1.3266  0.6992
  710TIP3   OH226324   0.843   0.114   8.529  0.6775  0.3852  0.0260
  710TIP3    H126325   0.871   0.110   8.437  2.9121 -1.1894  0.6759
  710TIP3    H226326   0.823   0.207   8.544  0.1722  0.6582 -2.0447
  711TIP3   OH226327   0.454   6.348   9.021  0.2645  0.2611  0.1527
  711TIP3    H126328   0.491   6.436   9.022 -0.2245  0.5480 -1.8958
  711TIP3    H226329   0.451   6.322   9.113  2.1615  1.6279  0.6758
  712TIP3   OH226330   7.501   6.501   8.961 -0.0747  0.0062  0.1212
  712TIP3    H126331   7.524   6.529   8.872  1.0615  2.2957  1.0584
  712TIP3    H226332   7.407   6.519   8.968  0.1568  1.4823 -0.1026
  713TIP3   OH226333   2.176   5.608   7.353  0.0517  0.8492 -0.6753
  713TIP3    H126334   2.240   5.548   7.314  1.1797 -0.7081  3.0654
  713TIP3    H226335   2.229   5.678   7.392 -0.6479  0.6415  0.7182
  714TIP3   OH226336   2.323   4.375   9.206 -0.9649 -0.3952 -0.2953
  714TIP3    H126337   2.415   4.346   9.212 -0.6271  0.8326  0.8582
  714TIP3    H226338   2.304   4.373   9.112  0.0711 -1.1691 -0.5135
  715TIP3   OH226339   4.603   6.567   6.814 -0.0165  0.5527  0.2240
  715TIP3    H126340   4.620   6.505   6.885 -2.2194  0.7173  0.9687
  715TIP3    H226341   4.684   6.617   6.807  1.3920 -1.5672  0.4151
  716TIP3   OH226342   7.549   7.032   8.997 -0.2424 -0.3747 -0.1036
  716TIP3    H126343   7.573   7.083   9.075 -1.4502 -0.7555  0.5373
  716TIP3    H226344   7.577   6.943   9.018  0.1329 -0.3415 -0.4413
  717TIP3   OH226345   4.556   2.157   8.796  0.1130  0.1605 -0.5810
  717TIP3    H126346   4.560   2.206   8.878 -1.5204  0.5636 -0.6984
  717TIP3    H226347   4.492   2.204   8.743  0.4486 -0.6250 -1.7333
  718TIP3   OH226348   5.624   5.877   8.253 -0.0512 -0.1516  0.1507
  718TIP3    H126349   5.638   5.847   8.343  0.9046 -2.6540 -0.7272
  718TIP3    H226350   5.711   5.899   8.221 -0.2226 -0.3923 -0.5074
  719TIP3   OH226351   2.572   1.071   7.897  0.1474  0.1766 -0.4779
  719TIP3    H126352   2.576   1.102   7.807 -1.2660  0.4090 -0.4785
  719TIP3    H226353   2.649   1.014   7.906  0.1574 -0.0689 -1.9021
  720TIP3   OH226354   1.381   4.133   8.606 -0.4638  0.8733  0.1328
  720TIP3    H126355   1.398   4.222   8.635  1.2507  0.9307 -0.8957
  720TIP3    H226356   1.326   4.142   8.529  1.3729  1.2249 -1.2011
  721TIP3   OH226357   0.548   7.195   8.012 -0.4868  0.3647  0.2005
  721TIP3    H126358   0.555   7.290   8.001 -2.5586  0.4969 -0.4004
  721TIP3    H226359   0.479   7.184   8.078  1.1902 -0.7143  1.8539
  722TIP3   OH226360   0.629   3.725   8.508 -0.3695 -0.0238 -0.6317
  722TIP3    H126361   0.589   3.802   8.467 -0.4360 -0.4278 -1.3469
  722TIP3    H226362   0.555   3.665   8.522 -0.2265 -0.1975 -0.6225
  723TIP3   OH226363   6.771   5.805   9.362 -0.4223 -0.4116 -0.2123
  723TIP3    H126364   6.775   5.873   9.294 -1.2389  1.2545  1.2964
  723TIP3    H226365   6.687   5.821   9.406 -0.8634 -2.7478 -0.0950
  724TIP3   OH226366   2.762   3.859   8.892  0.3072  0.2746  0.7257
  724TIP3    H126367   2.837   3.888   8.943 -0.5576  1.6097  1.3069
  724TIP3    H226368   2.696   3.836   8.958  0.4266 -1.5650  0.2413
  725TIP3   OH226369   1.866   1.366   6.582  0.0933  0.0177  0.2657
  725TIP3    H126370   1.893   1.280   6.549 -0.1086  0.2100 -0.4153
  725TIP3    H226371   1.946   1.419   6.577  0.0784  0.0290  0.1433
  726TIP3   OH226372   3.551   3.236   9.690  0.7664 -0.1889  0.0311
  726TIP3    H126373   3.623   3.284   9.730  0.8596  1.9099 -2.4166
  726TIP3    H226374   3.585   3.206   9.606 -1.0047  0.4157 -0.9674
  727TIP3   OH226375   0.479   4.566   8.522  0.2297 -0.0967 -0.8057
  727TIP3    H126376   0.481   4.473   8.544  0.8991 -0.0020 -0.4319
  727TIP3    H226377   0.400   4.600   8.565  0.9853 -0.1181  0.6788
  728TIP3   OH226378   4.283   0.707   8.129 -0.2745  0.0841  0.0581
  728TIP3    H126379   4.272   0.639   8.195 -0.6416  1.5923  1.6110
  728TIP3    H226380   4.342   0.771   8.170  2.0450 -0.4035 -2.2593
  729TIP3   OH226381   0.871   3.881   8.104 -0.0074 -1.0667 -0.1407
  729TIP3    H126382   0.826   3.797   8.102 -0.5946 -0.8056  1.0103
  729TIP3    H226383   0.882   3.900   8.198 -0.5035  0.4542 -0.3538
  730TIP3   OH226384   2.021   5.484   7.860  0.0436  0.2702 -0.0830
  730TIP3    H126385   2.099   5.475   7.806 -0.0284 -1.2831  0.0446
  730TIP3    H226386   1.960   5.534   7.806  0.2228 -0.6670 -1.1660
  731TIP3   OH226387   6.192   6.088   7.853 -0.6846  0.0889 -0.3354
  731TIP3    H126388   6.101   6.062   7.868 -1.1979  1.7476 -0.3768
  731TIP3    H226389   6.187   6.183   7.839  0.9807  0.1053 -0.9449
  732TIP3   OH226390   3.019   2.720   8.737  0.1500 -0.1197  0.7493
  732TIP3    H126391   2.979   2.663   8.672  2.5312  0.7977 -1.6988
  732TIP3    H226392   3.102   2.676   8.759 -0.3402 -0.1229  2.8126
  733TIP3   OH226393   6.827   3.936   8.047  0.0183 -0.3600  0.0259
  733TIP3    H126394   6.737   3.967   8.061 -0.8762 -2.3543 -0.9210
  733TIP3    H226395   6.870   3.948   8.131 -1.3769 -0.1238  0.7377
  734TIP3   OH226396   2.964   7.504   7.832  0.6051  0.1731 -0.6153
  734TIP3    H126397   2.974   7.560   7.755 -1.8459 -0.0522 -1.1783
  734TIP3    H226398   2.870   7.505   7.851  1.1196  0.4203  2.5676
  735TIP3   OH226399   2.269   0.650   9.418 -0.5226 -0.3968  0.4943
  735TIP3    H126400   2.294   0.567   9.459 -0.1044 -0.6467 -0.2519
  735TIP3    H226401   2.287   0.637   9.325 -1.8197  0.0195  0.1618
  736TIP3   OH226402   6.430   0.080   8.653  0.2956  0.2171 -0.3702
  736TIP3    H126403   6.457   0.060   8.743 -1.1952 -0.4717 -0.0478
  736TIP3    H226404   6.418   0.175   8.653 -0.0039  0.1893  0.2634
  737TIP3   OH226405   0.930   2.447   7.308 -0.1046  0.4222 -0.1188
  737TIP3    H126406   0.862   2.411   7.365 -1.0785  2.4825  0.0919
  737TIP3    H226407   0.883   2.497   7.242  1.0410 -1.4486 -2.4955
  738TIP3   OH226408   4.636   3.305   7.788  0.0724 -0.1976  0.0754
  738TIP3    H126409   4.605   3.217   7.811  0.9641 -1.0461 -1.6734
  738TIP3    H226410   4.711   3.319   7.846 -0.0316 -0.6487  0.3280
  739TIP3   OH226411   1.747   7.586   8.474  0.2149 -0.1095  0.4539
  739TIP3    H126412   1.699   7.574   8.556  0.7766 -2.2398  0.5226
  739TIP3    H226413   1.835   7.553   8.492  1.3632  2.3960 -0.0899
  740TIP3   OH226414   0.505   2.375   7.805 -0.4657 -0.4082 -0.3209
  740TIP3    H126415   0.559   2.327   7.867 -2.3659 -0.6207  1.2566
  740TIP3    H226416   0.553   2.456   7.788  1.0197 -1.2199 -0.1437
  741TIP3   OH226417   4.683   4.185   7.378 -0.0444 -0.1433 -0.2687
  741TIP3    H126418   4.741   4.245   7.424 -1.4251  0.9220  0.1658
  741TIP3    H226419   4.740   4.114   7.348  1.0118 -0.6815  2.6925
  742TIP3   OH226420   0.227   3.362   7.145  0.2866 -0.2030  0.0292
  742TIP3    H126421   0.140   3.335   7.173  0.6131 -1.4097 -0.0611
  742TIP3    H226422   0.234   3.453   7.172 -1.9435  0.7329 -2.1803
  743TIP3   OH226423   4.069   6.790   7.150  0.3364  0.2200 -0.6646
  743TIP3    H126424   4.105   6.749   7.072 -2.0451 -3.3374 -0.1629
  743TIP3    H226425   3.987   6.831   7.120  0.1279  0.0823 -0.2947
  744TIP3   OH226426   4.050   3.267   8.105 -0.9667  0.3858  0.5668
  744TIP3    H126427   4.036   3.360   8.120 -0.3176  0.8116 -1.1418
  744TIP3    H226428   3.977   3.240   8.049  0.5978  0.7358 -1.7809
  745TIP3   OH226429   4.241   1.192   8.282 -0.3401 -0.1660 -0.4343
  745TIP3    H126430   4.263   1.279   8.250  0.5827 -0.2202  0.0219
  745TIP3    H226431   4.149   1.199   8.310  0.0787  0.9971  0.7307
  746TIP3   OH226432   7.089   4.608   7.575  0.2126  0.1034  0.1334
  746TIP3    H126433   7.106   4.687   7.524 -1.8431 -0.2696 -1.2351
  746TIP3    H226434   7.125   4.537   7.521  0.2011 -0.0813  0.3667
  747TIP3   OH226435   3.950   4.965   7.274  0.1136 -0.4778 -0.3528
  747TIP3    H126436   3.880   4.972   7.208 -1.5935 -0.1199  1.4092
  747TIP3    H226437   3.904   4.959   7.357  2.2074 -1.0641  0.8336
  748TIP3   OH226438   0.736   2.902   6.799  0.1002  0.7851  0.3113
  748TIP3    H126439   0.776   2.833   6.746  1.1206  0.8150  1.0075
  748TIP3    H226440   0.693   2.960   6.736  0.8577  0.5434 -0.4384
  749TIP3   OH226441   0.974   6.526   8.911  1.2553  0.4523 -0.0388
  749TIP3    H126442   1.056   6.498   8.871  1.7392  0.1737  1.1053
  749TIP3    H226443   1.001   6.571   8.991  0.2420 -1.2084  1.2911
  750TIP3   OH226444   1.341   1.167   7.482 -0.5816 -0.3019 -0.5648
  750TIP3    H126445   1.350   1.104   7.410  0.7238 -0.1246 -0.5828
  750TIP3    H226446   1.346   1.252   7.440 -0.3340 -0.1940 -0.3177
  751TIP3   OH226447   5.192   6.424   6.825 -0.0936 -0.6786  0.2813
  751TIP3    H126448   5.098   6.444   6.828  0.0164 -0.2111  0.6645
  751TIP3    H226449   5.234   6.495   6.874  0.5939 -0.0990 -1.0956
  752TIP3   OH226450   4.413   2.595   8.131 -0.6587  0.2794  0.2664
  752TIP3    H126451   4.497   2.570   8.093 -0.2333  0.8873  0.7909
  752TIP3    H226452   4.413   2.690   8.130 -1.4699  0.2841  0.0080
  753TIP3   OH226453   7.463   4.769   8.975  0.2011  0.3864 -0.5662
  753TIP3    H126454   7.396   4.797   8.913  0.0126  1.9800  0.3020
  753TIP3    H226455   7.523   4.844   8.982  1.6293 -0.6887 -0.6980
  754TIP3   OH226456   1.317   0.793   8.814 -0.1557 -0.2516 -0.1889
  754TIP3    H126457   1.399   0.755   8.845 -0.7624 -0.0723  1.7568
  754TIP3    H226458   1.315   0.880   8.854 -1.1632 -0.1536 -0.4379
  755TIP3   OH226459   7.065   2.327   9.635 -0.1692  0.8620 -0.4378
  755TIP3    H126460   6.978   2.292   9.614 -0.1747 -0.9593  2.0762
  755TIP3    H226461   7.047   2.411   9.678 -0.4760  1.7094 -2.1464
  756TIP3   OH226462   3.077   4.198   8.782  0.1984 -0.2488 -0.1526
  756TIP3    H126463   3.146   4.247   8.827 -0.5170 -0.6051  1.3807
  756TIP3    H226464   3.034   4.264   8.726  2.4606 -0.2627 -2.0669
  757TIP3   OH226465   2.814   5.254   7.540 -0.5694 -0.3441 -0.1980
  757TIP3    H126466   2.879   5.289   7.478 -0.4648  1.8274  1.0314
  757TIP3    H226467   2.866   5.208   7.605 -0.4720 -0.5642 -0.4276
  758TIP3   OH226468   4.282   7.194   9.073  0.1927  0.2944 -0.4261
  758TIP3    H126469   4.269   7.128   9.006  2.4176  0.6473 -1.2776
  758TIP3    H226470   4.372   7.224   9.061  0.3788  1.0175  2.1555
  759TIP3   OH226471   3.107   3.620   9.332 -0.0341  0.1302 -1.0009
  759TIP3    H126472   3.189   3.661   9.306  0.9644 -2.4670 -2.3227
  759TIP3    H226473   3.126   3.583   9.419 -0.5727  1.4137 -0.3117
  760TIP3   OH226474   6.053   4.537   8.930 -0.0416 -0.2481 -0.1120
  760TIP3    H126475   6.052   4.455   8.981 -2.4201 -0.6233 -0.6422
  760TIP3    H226476   5.962   4.567   8.932  0.9140  3.0572  1.0264
  761TIP3   OH226477   0.052   6.418   8.044 -0.1124  0.0589  0.2215
  761TIP3    H126478   0.132   6.372   8.022 -0.5983 -0.0129 -1.6011
  761TIP3    H226479  -0.017   6.352   8.036 -0.5271  0.5000  0.0758
  762TIP3   OH226480   4.634   4.153   8.881  0.5272  0.3056  0.0977
  762TIP3    H126481   4.565   4.220   8.889 -0.3132 -0.4660 -0.4207
  762TIP3    H226482   4.588   4.076   8.847  1.8388  0.0734 -1.2535
  763TIP3   OH226483   2.707   5.606   8.401 -0.1869  0.0156 -0.0797
  763TIP3    H126484   2.772   5.556   8.351 -1.3350 -0.9736 -0.6531
  763TIP3    H226485   2.625   5.594   8.352 -1.4931 -1.3875  2.2606
  764TIP3   OH226486   1.430   6.666   7.804  0.1941  0.5704 -0.2344
  764TIP3    H126487   1.419   6.722   7.881 -1.5365 -0.6799  0.4857
  764TIP3    H226488   1.434   6.577   7.839 -3.1983 -0.2895 -1.6129
  765TIP3   OH226489   0.364   6.824   7.642 -0.2612 -0.0310  0.5170
  765TIP3    H126490   0.403   6.861   7.722  3.2243  0.3058 -1.1523
  765TIP3    H226491   0.422   6.751   7.620 -1.5104 -0.4917 -1.4070
  766TIP3   OH226492   0.259   0.713   8.055  0.8531 -0.7422 -0.3558
  766TIP3    H126493   0.266   0.792   8.108  1.1955 -0.4470 -0.8398
  766TIP3    H226494   0.228   0.646   8.117  0.7595 -0.2869  0.1007
  767TIP3   OH226495   2.937   2.324   8.872  0.1152 -0.0766 -0.4099
  767TIP3    H126496   2.888   2.387   8.923  2.3727  1.0660  0.5068
  767TIP3    H226497   2.942   2.246   8.927  0.3045  0.2220  0.0006
  768TIP3   OH226498   6.725   6.309   7.215  0.0225  0.3897 -0.9333
  768TIP3    H126499   6.804   6.273   7.174 -0.9783 -2.0231 -0.8661
  768TIP3    H226500   6.677   6.349   7.142 -0.1646 -0.9310 -1.5599
  769TIP3   OH226501   3.845   4.646   7.183  0.2748 -0.3438  0.0876
  769TIP3    H126502   3.916   4.705   7.160  1.2502 -0.1968  3.1090
  769TIP3    H226503   3.877   4.598   7.259 -2.0128 -1.9409  0.1441
  770TIP3   OH226504   1.822   0.345   6.991 -0.1856  0.2650 -0.0797
  770TIP3    H126505   1.901   0.339   6.938 -1.7531  3.3223 -3.1183
  770TIP3    H226506   1.832   0.427   7.039 -1.1860  0.2917  0.0935
  771TIP3   OH226507   2.426   6.691   9.181 -0.0883  0.3280  0.8027
  771TIP3    H126508   2.357   6.752   9.153 -1.2765 -0.5876  1.6221
  771TIP3    H226509   2.407   6.610   9.134  0.9980  0.3380  0.3342
  772TIP3   OH226510   7.199   0.074   8.543 -0.2066 -0.8604  0.2109
  772TIP3    H126511   7.246   0.081   8.626 -1.2502  0.0985  0.7439
  772TIP3    H226512   7.164   0.161   8.527 -0.0357 -1.0300 -1.2453
  773TIP3   OH226513   1.892   4.775   8.803 -0.2975 -0.0780 -0.0880
  773TIP3    H126514   1.934   4.747   8.885 -0.7599 -2.1753 -0.4933
  773TIP3    H226515   1.957   4.830   8.760  0.2776  0.3635  1.2883
  774TIP3   OH226516   0.493   3.339   7.151 -0.2442 -0.2856  0.2146
  774TIP3    H126517   0.399   3.333   7.168 -0.0098 -1.7685  1.0789
  774TIP3    H226518   0.504   3.302   7.063 -0.5049  0.2738 -0.0598
  775TIP3   OH226519   0.729   4.149   8.914  0.2428 -0.0693 -0.1264
  775TIP3    H126520   0.685   4.077   8.960  0.2821  0.4219  0.7072
  775TIP3    H226521   0.661   4.215   8.901  0.7489  0.8183  1.4315
  776TIP3   OH226522   5.874   0.686   7.125 -0.0981 -0.5129  0.3711
  776TIP3    H126523   5.914   0.603   7.100 -1.6317 -1.1870 -0.0031
  776TIP3    H226524   5.893   0.745   7.053  2.0288 -0.1479  1.1783
  777TIP3   OH226525   5.235   5.963   8.879  0.4183 -0.4884  0.1389
  777TIP3    H126526   5.308   5.970   8.940  0.7781 -0.1727 -0.3202
  777TIP3    H226527   5.201   5.875   8.891  1.2762 -0.8604 -0.0917
  778TIP3   OH226528   0.568   6.511   8.626 -0.3051  0.3451 -0.2600
  778TIP3    H126529   0.538   6.600   8.643 -1.2761 -0.0626  0.2287
  778TIP3    H226530   0.648   6.503   8.678 -0.2111  0.9246 -0.3022
  779TIP3   OH226531   6.019   0.963   8.153  0.0918  0.1971 -0.1473
  779TIP3    H126532   5.979   1.015   8.083  0.3868  0.7256  0.0714
  779TIP3    H226533   6.000   0.872   8.129  0.9873  0.3275 -1.4098
  780TIP3   OH226534   3.440   3.118   7.337 -0.1803  0.0033  0.1653
  780TIP3    H126535   3.532   3.096   7.327 -0.6940 -1.5931 -1.7665
  780TIP3    H226536   3.399   3.089   7.255 -2.1441  2.1562  0.2852
  781TIP3   OH226537   6.648   3.878   8.314  0.7134  0.3237 -0.1868
  781TIP3    H126538   6.683   3.791   8.330  1.1421  0.4034 -0.6467
  781TIP3    H226539   6.710   3.937   8.356  1.4994  0.5004 -1.5223
  782TIP3   OH226540   1.532   0.048   6.566  0.5343 -0.2810 -0.0328
  782TIP3    H126541   1.454   0.104   6.567  1.6188  1.3166  1.2427
  782TIP3    H226542   1.498  -0.041   6.569 -1.2636  0.4001  1.9792
  783TIP3   OH226543   0.826   4.122   7.968 -0.1936  0.5014 -0.1648
  783TIP3    H126544   0.806   4.187   8.035  0.1238  0.7502 -0.3099
  783TIP3    H226545   0.855   4.045   8.017 -2.4299 -0.2528  0.1310
  784TIP3   OH226546   5.435   1.274   8.637 -0.3752 -0.5578  0.0822
  784TIP3    H126547   5.519   1.309   8.607 -0.5787 -0.8991 -0.9194
  784TIP3    H226548   5.393   1.241   8.557 -1.6658  0.0367  0.4855
  785TIP3   OH226549   0.035   7.457   6.897  0.3692 -0.0995  0.0183
  785TIP3    H126550   0.094   7.513   6.948  0.0211 -0.5493  0.9376
  785TIP3    H226551   0.080   7.373   6.892  0.7437  0.1549 -1.0832
  786TIP3   OH226552   5.164   5.396   8.989  0.8300 -0.3797 -1.1237
  786TIP3    H126553   5.213   5.363   9.064  1.4084  0.9754 -0.8691
  786TIP3    H226554   5.103   5.326   8.967  0.7184 -0.8487  0.5500
  787TIP3   OH226555   4.570   7.638   7.034  0.3198 -0.0853  0.1940
  787TIP3    H126556   4.564   7.733   7.025  0.3367 -0.0975  0.0553
  787TIP3    H226557   4.641   7.624   7.096 -0.8681  0.0553  1.6631
  788TIP3   OH226558   4.988   0.832   9.162  0.1683 -0.4529 -0.3443
  788TIP3    H126559   4.916   0.890   9.138  0.3678 -0.6558 -1.5293
  788TIP3    H226560   4.991   0.835   9.257 -1.1826 -0.1735 -0.2877
  789TIP3   OH226561   5.752   4.615   8.424 -0.1378 -0.3375  0.2672
  789TIP3    H126562   5.694   4.638   8.496 -1.9285  0.5610 -1.3740
  789TIP3    H226563   5.759   4.695   8.371 -1.4972 -1.7318 -2.2418
  790TIP3   OH226564   3.982   0.927   8.400 -0.0278  0.1948  0.0510
  790TIP3    H126565   4.029   0.844   8.409  1.7690  1.0868 -0.6591
  790TIP3    H226566   3.997   0.953   8.309 -0.1686  1.5246  0.3997
  791TIP3   OH226567   1.315   5.392   6.781 -0.0918 -0.3447  0.4589
  791TIP3    H126568   1.252   5.321   6.779 -0.0191 -0.4047 -1.4897
  791TIP3    H226569   1.289   5.450   6.709  2.3396 -0.6381 -0.7649
  792TIP3   OH226570   7.258   4.422   8.828 -0.0531 -0.4107  0.6962
  792TIP3    H126571   7.205   4.481   8.882 -0.5767 -1.0488  0.8943
  792TIP3    H226572   7.348   4.438   8.856  0.2627  2.7440 -1.5793
  793TIP3   OH226573   2.150   7.427   9.251 -0.4840 -0.0498 -0.1428
  793TIP3    H126574   2.171   7.451   9.341 -0.5626 -0.7266  0.0603
  793TIP3    H226575   2.166   7.333   9.247  0.1823  0.0828 -1.0196
  794TIP3   OH226576   6.443   6.351   7.614 -0.3401  0.3628  0.2070
  794TIP3    H126577   6.530   6.391   7.625 -0.0746  0.4867 -1.8692
  794TIP3    H226578   6.382   6.422   7.634  0.0769  0.7765  0.0360
  795TIP3   OH226579   5.871   5.646   8.197 -0.8283  0.2328 -0.4257
  795TIP3    H126580   5.839   5.558   8.216 -1.1144  0.6255  0.9720
  795TIP3    H226581   5.832   5.667   8.111  0.6358 -1.6264 -1.6233
  796TIP3   OH226582   7.000   1.423   8.374  0.0917  0.1932 -0.3659
  796TIP3    H126583   7.056   1.501   8.368 -1.0539  1.1762  1.1008
  796TIP3    H226584   6.993   1.406   8.468  0.4049 -1.7797 -0.6633
  797TIP3   OH226585   5.303   5.656   7.334  0.4403 -0.4586 -0.4629
  797TIP3    H126586   5.378   5.652   7.393 -0.4957 -0.1554  0.7689
  797TIP3    H226587   5.262   5.570   7.340  1.1174 -0.9135 -1.7692
  798TIP3   OH226588   4.294   4.641   9.113  0.2573 -0.6039  0.5400
  798TIP3    H126589   4.227   4.573   9.113  0.6120 -0.9589  0.3984
  798TIP3    H226590   4.265   4.703   9.180 -0.7272 -0.2205 -0.2237
  799TIP3   OH226591   0.643   0.633   8.585 -0.1864  0.0755 -0.3635
  799TIP3    H126592   0.648   0.721   8.548  0.8203 -0.2626 -1.0854
  799TIP3    H226593   0.572   0.591   8.535  0.1143  0.1167 -0.8339
  800TIP3   OH226594   2.507   4.003   9.277 -0.2187 -0.3752 -0.4825
  800TIP3    H126595   2.569   4.075   9.290  0.1093 -0.8815  0.9482
  800TIP3    H226596   2.560   3.924   9.281 -0.6147 -0.7358 -1.8051
  801TIP3   OH226597   1.020   0.019   8.043 -0.2892 -0.2302 -0.5853
  801TIP3    H126598   1.054  -0.051   7.988  1.1487  0.2522 -0.3621
  801TIP3    H226599   1.071   0.013   8.124 -0.2602  0.9595 -0.4998
  802TIP3   OH226600   5.000   6.329   7.892  0.2684 -0.2839 -0.2606
  802TIP3    H126601   5.015   6.331   7.986 -0.0765 -1.0667 -0.1789
  802TIP3    H226602   5.075   6.283   7.856 -0.2008 -1.1080 -0.2214
  803TIP3   OH226603   5.010   1.450   9.436 -0.3089  0.2931  0.1210
  803TIP3    H126604   5.000   1.369   9.486 -0.7411  0.3160  0.0728
  803TIP3    H226605   5.035   1.421   9.349  0.7911  0.2651  0.4282
  804TIP3   OH226606   1.263   6.288   9.001 -0.3438  0.2473  0.2155
  804TIP3    H126607   1.259   6.308   8.908 -2.7330 -0.3209  0.1169
  804TIP3    H226608   1.331   6.345   9.036 -0.8245  1.9786 -1.5261
  805TIP3   OH226609   7.456   3.621   8.099 -0.3342  0.0692 -0.1164
  805TIP3    H126610   7.424   3.646   8.186 -0.3935 -0.7031  0.0920
  805TIP3    H226611   7.551   3.619   8.108 -0.3687 -0.8883  0.1947
  806TIP3   OH226612   2.579   3.925   8.010 -0.3713  0.6306 -0.1092
  806TIP3    H126613   2.542   3.889   8.091 -1.2317  0.5746 -0.5229
  806TIP3    H226614   2.650   3.982   8.040  1.6958 -2.0450  0.5831
  807TIP3   OH226615   3.567   6.118   9.098 -0.0896  0.4550 -0.3879
  807TIP3    H126616   3.539   6.201   9.060 -1.8771  0.6400  1.1919
  807TIP3    H226617   3.486   6.077   9.130  1.0544 -0.5582  1.4198
  808TIP3   OH226618   5.946   4.808   7.305  0.1240  0.2033 -0.3367
  808TIP3    H126619   5.944   4.740   7.238 -1.6314 -0.4611  0.3357
  808TIP3    H226620   5.880   4.871   7.277 -1.1466 -0.4400  1.0764
  809TIP3   OH226621   5.823   0.536   6.780 -0.1772  0.0422  0.2466
  809TIP3    H126622   5.856   0.605   6.723  0.3103 -1.6186 -1.5891
  809TIP3    H226623   5.734   0.519   6.748  0.5154 -1.7090 -0.8785
  810TIP3   OH226624   6.179   4.726   7.516 -0.6351  0.1132  0.1662
  810TIP3    H126625   6.247   4.665   7.544 -0.7885 -0.0003  0.2944
  810TIP3    H226626   6.139   4.683   7.440  1.4065  1.5175 -1.8403
  811TIP3   OH226627   4.900   5.316   9.142  0.0329 -0.4452 -0.0130
  811TIP3    H126628   4.859   5.391   9.098 -1.7990 -1.0067  0.6732
  811TIP3    H226629   4.895   5.338   9.235 -0.7228 -1.5045  0.2090
  812TIP3   OH226630   5.661   1.809   7.850 -0.3665 -0.1438  0.4711
  812TIP3    H126631   5.729   1.743   7.839  0.7505  0.5798  2.4958
  812TIP3    H226632   5.641   1.807   7.944 -2.4690  0.3457  0.0973
  813TIP3   OH226633   6.073   4.061   6.804 -0.3018  0.4176  0.3605
  813TIP3    H126634   6.048   4.110   6.726  0.1340 -0.8047 -0.5805
  813TIP3    H226635   6.168   4.053   6.799 -0.1564  1.1574  1.5461
  814TIP3   OH226636   1.879   5.089   9.018  0.0723 -0.0224 -0.1534
  814TIP3    H126637   1.966   5.049   9.015  0.5811  1.0719 -0.4371
  814TIP3    H226638   1.882   5.150   9.092 -0.0573  0.8577 -0.8482
  815TIP3   OH226639   6.537   6.171   7.429 -0.1604 -0.0190 -0.0598
  815TIP3    H126640   6.603   6.215   7.375  1.1433 -0.3756  1.1916
  815TIP3    H226641   6.508   6.238   7.491  1.3043 -0.6227  1.3766
  816TIP3   OH226642   3.267   1.437   7.794 -0.2776  0.5265  0.1817
  816TIP3    H126643   3.304   1.521   7.820 -1.0204  0.6906  0.7705
  816TIP3    H226644   3.340   1.387   7.757 -0.1438  2.0453 -1.7534
  817TIP3   OH226645   2.179   1.050   7.983  0.3684 -0.1831  0.1784
  817TIP3    H126646   2.107   1.108   7.960 -0.1000 -0.8080  0.0588
  817TIP3    H226647   2.173   1.041   8.078 -0.0141 -0.6212  0.1167
  818TIP3   OH226648   0.204   6.102   8.425 -0.1163 -0.2522  0.1022
  818TIP3    H126649   0.280   6.085   8.482 -0.0576  1.7778  0.7019
  818TIP3    H226650   0.138   6.040   8.454  0.4657 -0.3307  1.3113
  819TIP3   OH226651   1.849   1.546   7.600  0.5455  0.3651  0.7769
  819TIP3    H126652   1.927   1.589   7.636  2.8411 -0.7856 -2.3935
  819TIP3    H226653   1.839   1.467   7.653  2.2102  0.0148  0.6177
  820TIP3   OH226654   3.185   5.600   9.199 -0.4032 -0.3342  0.4122
  820TIP3    H126655   3.252   5.619   9.133 -1.4924 -0.9926 -0.9570
  820TIP3    H226656   3.162   5.685   9.235 -0.1610  0.1132 -0.4542
  821TIP3   OH226657   2.721   1.854   8.542  0.5436  0.0696  0.1091
  821TIP3    H126658   2.647   1.911   8.561 -1.3243 -1.9140 -0.8100
  821TIP3    H226659   2.745   1.817   8.627  2.5831  2.9512  0.9456
  822TIP3   OH226660   5.483   6.370   8.912 -0.2518  0.5672 -0.3804
  822TIP3    H126661   5.474   6.289   8.861  0.6957  0.8066 -0.9450
  822TIP3    H226662   5.473   6.440   8.847  1.5966  0.8709 -0.3860
  823TIP3   OH226663   3.630   4.362   7.230  0.1711 -0.1433 -0.3566
  823TIP3    H126664   3.644   4.425   7.159  0.7595  0.8299  0.5910
  823TIP3    H226665   3.701   4.299   7.220 -0.5458 -0.8216 -1.4444
  824TIP3   OH226666   1.138   2.711   8.664 -0.4862 -0.2599 -0.2181
  824TIP3    H126667   1.163   2.795   8.701  0.0365 -0.5034 -0.0127
  824TIP3    H226668   1.101   2.733   8.578 -2.6847  0.4093  0.8302
  825TIP3   OH226669   6.209   6.263   9.155 -0.3186 -0.4035 -0.8600
  825TIP3    H126670   6.161   6.203   9.213 -0.8704 -1.3359 -2.2148
  825TIP3    H226671   6.182   6.350   9.183 -0.4837 -0.8236  0.3452
  826TIP3   OH226672   7.168   6.476   7.288 -0.6176  0.0482 -0.2401
  826TIP3    H126673   7.206   6.562   7.306 -1.2976  0.6997 -1.7841
  826TIP3    H226674   7.085   6.495   7.243 -1.2770 -1.3982  0.2969
  827TIP3   OH226675   2.383   2.186   9.393  0.7561 -0.1863  0.5179
  827TIP3    H126676   2.344   2.232   9.468  0.9946 -3.2438  2.7229
  827TIP3    H226677   2.474   2.171   9.418  0.6831 -1.8270 -0.0533
  828TIP3   OH226678   7.379   1.336   7.631  0.5551  0.2334  0.5006
  828TIP3    H126679   7.453   1.396   7.624  0.6933 -0.0087 -0.1974
  828TIP3    H226680   7.408   1.257   7.586 -0.9208  0.9090 -1.7946
  829TIP3   OH226681   0.628   2.704   9.540 -0.3515  0.4796  0.4472
  829TIP3    H126682   0.588   2.693   9.454 -3.0003 -0.6988  1.7168
  829TIP3    H226683   0.650   2.615   9.568  0.6365  0.8606  0.9404
  830TIP3   OH226684   1.738   3.381   7.049 -0.8498 -0.2024  0.0730
  830TIP3    H126685   1.735   3.410   6.958  0.3048 -0.9400 -0.2316
  830TIP3    H226686   1.678   3.306   7.053 -1.1827  0.0591  0.0185
  831TIP3   OH226687   1.890   2.492   8.958 -0.0273  0.5832 -0.1531
  831TIP3    H126688   1.895   2.438   9.037  1.5765  0.5738 -0.2342
  831TIP3    H226689   1.807   2.466   8.917 -0.0416 -0.6902  0.6114
  832TIP3   OH226690   1.783   6.296   8.287  0.1415  0.5209  0.4138
  832TIP3    H126691   1.806   6.385   8.259 -1.3485  0.3989 -1.3421
  832TIP3    H226692   1.688   6.292   8.277  0.1231 -1.0894  1.0561
  833TIP3   OH226693   4.261   2.427   7.965 -0.3913  0.0214  0.0169
  833TIP3    H126694   4.302   2.479   8.034 -1.7265 -1.0062  1.6774
  833TIP3    H226695   4.314   2.444   7.887 -0.0709  2.8866  0.7512
  834TIP3   OH226696   0.784   6.099   8.197  0.3024 -0.1208  0.6621
  834TIP3    H126697   0.852   6.166   8.191  0.4474 -0.3434 -0.3187
  834TIP3    H226698   0.712   6.134   8.145  0.8955 -1.3118 -1.0664
  835TIP3   OH226699   3.274   6.438   8.673 -0.6921 -0.1956 -0.1512
  835TIP3    H126700   3.251   6.461   8.583  0.5867  0.7267 -0.2689
  835TIP3    H226701   3.343   6.373   8.664 -0.9237 -0.4918  0.1816
  836TIP3   OH226702   3.675   1.182   8.144 -0.3085 -0.2096 -0.4102
  836TIP3    H126703   3.672   1.179   8.048  0.1534  0.6071 -0.4647
  836TIP3    H226704   3.708   1.270   8.163  1.7385 -1.1126  0.4441
  837TIP3   OH226705   5.217   2.546   7.903  0.1383 -0.0179  0.7855
  837TIP3    H126706   5.186   2.547   7.812  2.3271 -2.4010 -0.1274
  837TIP3    H226707   5.215   2.637   7.930 -2.2118  0.5750 -1.0387
  838TIP3   OH226708   2.761   5.433   8.153  0.1322 -0.0103  0.5548
  838TIP3    H126709   2.784   5.342   8.174  2.1274  0.2636 -0.2282
  838TIP3    H226710   2.721   5.428   8.066 -0.3206 -0.2052  0.7730
  839TIP3   OH226711   3.477   1.689   8.159 -0.0522 -0.1167 -0.7732
  839TIP3    H126712   3.556   1.730   8.194  0.4547 -0.1669 -1.8270
  839TIP3    H226713   3.406   1.746   8.187  0.6095  1.3710 -1.9461
  840TIP3   OH226714   1.099   5.978   9.024 -0.4740  0.7085 -0.0426
  840TIP3    H126715   1.008   5.989   8.995 -0.5327  0.8624  0.2024
  840TIP3    H226716   1.147   6.045   8.975 -0.0937 -0.8583 -1.9689
  841TIP3   OH226717   0.048   3.101   7.220  0.1328 -0.1982 -0.4657
  841TIP3    H126718  -0.044   3.087   7.242 -0.2910  0.9542 -1.3513
  841TIP3    H226719   0.095   3.088   7.302 -1.1192  1.7912  0.6457
  842TIP3   OH226720   3.629   1.911   7.367 -0.4615 -0.5116 -0.2042
  842TIP3    H126721   3.652   1.832   7.318  0.5075 -0.7871  0.6544
  842TIP3    H226722   3.667   1.983   7.316  0.9426 -0.8331  0.3231
  843TIP3   OH226723   3.879   6.558   7.742 -0.4438 -0.4922  0.1995
  843TIP3    H126724   3.974   6.558   7.754 -0.5003  0.1236  0.7438
  843TIP3    H226725   3.844   6.555   7.831 -0.9304 -0.3815  0.0139
  844TIP3   OH226726   6.532   4.090   8.853  0.0100  0.7924  0.5955
  844TIP3    H126727   6.497   4.141   8.780 -1.1956 -1.4362 -0.4781
  844TIP3    H226728   6.623   4.120   8.861 -0.3441  2.3336 -0.6505
  845TIP3   OH226729   4.167   5.612   7.383  0.1138 -0.2864 -0.8319
  845TIP3    H126730   4.162   5.576   7.295 -0.0638  0.4107 -1.1125
  845TIP3    H226731   4.076   5.614   7.413  0.1827 -0.6042 -0.5945
  846TIP3   OH226732   0.184   7.195   7.184 -0.3946 -0.1875 -0.0017
  846TIP3    H126733   0.255   7.252   7.214  0.3439 -0.9861 -0.2170
  846TIP3    H226734   0.186   7.203   7.089 -1.6304  1.0040  0.0293
  847TIP3   OH226735   0.962   6.332   8.167 -0.8637  0.7575  0.0322
  847TIP3    H126736   1.043   6.282   8.169 -1.5822 -0.4489  2.3484
  847TIP3    H226737   0.924   6.314   8.080 -0.2388 -1.3152  0.1442
  848TIP3   OH226738   0.361   6.815   6.675  0.1131  0.3840 -0.0815
  848TIP3    H126739   0.336   6.894   6.725 -1.4593 -1.1924  1.7905
  848TIP3    H226740   0.398   6.756   6.741  0.2882 -0.8396 -1.2478
  849TIP3   OH226741   4.708   5.128   7.212 -0.1294  0.8645 -0.0058
  849TIP3    H126742   4.680   5.147   7.122  0.3553  1.4392 -0.0446
  849TIP3    H226743   4.680   5.038   7.227 -0.6434  0.9230 -0.5665
  850TIP3   OH226744   5.682   2.365   8.518 -1.3239 -0.4019 -0.2572
  850TIP3    H126745   5.587   2.374   8.504 -1.5291 -0.5539  0.9237
  850TIP3    H226746   5.711   2.454   8.540 -0.9137 -0.0609 -2.0875
  851TIP3   OH226747   5.565   7.156   8.646 -0.0935  0.2857 -0.2949
  851TIP3    H126748   5.587   7.097   8.575  0.2767  0.0242  0.0381
  851TIP3    H226749   5.506   7.220   8.606  1.5738  1.2588 -1.3069
  852TIP3   OH226750   4.501   3.839   8.325  0.3244 -0.0381  0.8751
  852TIP3    H126751   4.494   3.889   8.243  0.0188 -2.3375 -0.5898
  852TIP3    H226752   4.594   3.816   8.331  0.4061  0.4024  1.3733
  853TIP3   OH226753   5.980   2.366   8.295 -0.1884 -0.1762  0.6104
  853TIP3    H126754   5.952   2.431   8.360 -0.5656 -0.7033  0.9872
  853TIP3    H226755   5.929   2.387   8.217 -0.5318 -0.1989  0.8244
  854TIP3   OH226756   2.973   6.983   6.650  0.0121 -0.2033  0.1788
  854TIP3    H126757   2.913   7.058   6.642 -0.3194 -0.7045 -4.0097
  854TIP3    H226758   2.917   6.913   6.684 -1.2401 -0.0174 -1.3664
  855TIP3   OH226759   3.304   5.057   8.576  0.0700 -0.2878 -0.0962
  855TIP3    H126760   3.257   4.979   8.607  1.3747 -1.6922 -1.4988
  855TIP3    H226761   3.250   5.090   8.503  1.0632 -1.7499 -1.5409
  856TIP3   OH226762   1.082   4.000   6.832 -0.2057  0.1255  0.3950
  856TIP3    H126763   1.108   4.047   6.753  0.3625 -1.4360 -0.3777
  856TIP3    H226764   1.043   3.919   6.800 -1.4197  0.1603  1.6850
  857TIP3   OH226765   1.450   4.072   7.325 -0.7334 -0.1197 -0.1894
  857TIP3    H126766   1.440   3.997   7.265 -0.3000 -0.0391 -0.3667
  857TIP3    H226767   1.537   4.059   7.365 -0.2834  0.7423 -0.8622
  858TIP3   OH226768   2.757   3.670   7.670 -0.5355  0.0706 -0.3455
  858TIP3    H126769   2.758   3.628   7.756  0.5763  1.1200  0.1884
  858TIP3    H226770   2.697   3.744   7.680  0.5583  0.9542 -0.0509
  859TIP3   OH226771   1.252   3.046   7.298 -0.0665  0.5240  0.1516
  859TIP3    H126772   1.174   3.079   7.342  0.1715  0.5132  0.5836
  859TIP3    H226773   1.271   2.963   7.342  1.0707  1.2458  1.0763
  860TIP3   OH226774   3.835   7.073   8.301 -0.0391  0.2870  0.8988
  860TIP3    H126775   3.849   7.147   8.242  0.1124 -1.1846 -1.0237
  860TIP3    H226776   3.742   7.078   8.324 -0.8741 -0.6996 -1.8750
  861TIP3   OH226777   3.139   2.164   8.392  0.0087 -0.4273 -0.0268
  861TIP3    H126778   3.131   2.120   8.307  0.6636 -2.4743  0.8994
  861TIP3    H226779   3.051   2.165   8.427 -0.8253  2.9262 -1.7827
  862TIP3   OH226780   0.858   6.790   9.539  0.4970  0.3863 -0.0784
  862TIP3    H126781   0.797   6.725   9.502  1.7729 -0.8422 -0.1084
  862TIP3    H226782   0.945   6.755   9.518  1.2300  2.1502 -0.1265
  863TIP3   OH226783   2.621   6.624   7.796 -0.1980 -0.7367 -0.4001
  863TIP3    H126784   2.592   6.679   7.724 -2.1800 -0.7039  0.3429
  863TIP3    H226785   2.612   6.680   7.874  2.2835 -0.6310 -0.1325
  864TIP3   OH226786   6.668   1.287   8.995 -0.2534 -0.2743  0.2826
  864TIP3    H126787   6.602   1.295   9.063 -0.6546  0.3167 -0.1608
  864TIP3    H226788   6.749   1.265   9.042 -0.6941 -0.6804  0.8560
  865TIP3   OH226789   1.662   5.213   8.422 -0.0929 -0.3936 -0.3807
  865TIP3    H126790   1.600   5.185   8.489  0.7017  0.0308  0.5613
  865TIP3    H226791   1.650   5.151   8.350 -1.4791 -0.4105 -0.1626
  866TIP3   OH226792   6.836   6.235   8.104  0.1745  0.4425  0.1259
  866TIP3    H126793   6.869   6.276   8.184  0.6743  1.6218 -0.6618
  866TIP3    H226794   6.764   6.292   8.075  0.8123  0.7373 -0.9309
  867TIP3   OH226795   1.293   7.551   9.202 -0.4799  0.8208 -0.1737
  867TIP3    H126796   1.353   7.623   9.220 -0.3643  0.5769  0.4650
  867TIP3    H226797   1.224   7.589   9.148  0.3358  1.0585 -1.0569
  868TIP3   OH226798   7.179   1.016   7.811  0.5025 -0.1288  0.0074
  868TIP3    H126799   7.127   1.015   7.892 -1.4197  2.0023 -1.0764
  868TIP3    H226800   7.220   1.102   7.810 -0.6040  0.4366 -1.8796
  869TIP3   OH226801   2.497   1.773   7.015 -0.5876 -0.6328  0.1486
  869TIP3    H126802   2.428   1.838   7.030 -2.0556 -2.0258 -0.3323
  869TIP3    H226803   2.454   1.688   7.027  1.5563 -1.5697  1.9420
  870TIP3   OH226804   5.308   1.479   8.143  0.0747  0.0418 -0.0751
  870TIP3    H126805   5.214   1.462   8.147  0.2316 -0.9676 -0.4629
  870TIP3    H226806   5.335   1.484   8.235 -0.3035  0.0183  0.0389
  871TIP3   OH226807   3.917   2.208   8.256  0.2700 -0.0966 -0.1777
  871TIP3    H126808   3.977   2.260   8.202  0.6995 -1.2644 -0.8586
  871TIP3    H226809   3.968   2.130   8.280 -0.3964 -0.2641  0.7350
  872TIP3   OH226810   0.513   5.871   8.705 -0.2907 -0.2623  0.2306
  872TIP3    H126811   0.419   5.862   8.689 -0.6250  1.6930  0.8078
  872TIP3    H226812   0.519   5.903   8.795  0.8220  1.2052 -0.3191
  873TIP3   OH226813   2.735   4.492   6.755  0.5871  0.2241  0.1512
  873TIP3    H126814   2.728   4.575   6.801  1.5092  0.7278 -0.5705
  873TIP3    H226815   2.797   4.441   6.807 -0.5451 -0.3294  1.0069
  874TIP3   OH226816   4.274   6.242   8.201 -0.2468 -0.5138  0.0967
  874TIP3    H126817   4.313   6.156   8.217 -1.4880 -1.7484 -2.6927
  874TIP3    H226818   4.285   6.289   8.283  1.9621 -2.7327  1.2218
  875TIP3   OH226819   1.425   6.107   7.572 -0.3348  0.2088  0.4516
  875TIP3    H126820   1.518   6.126   7.587 -0.3940  0.1098  0.9534
  875TIP3    H226821   1.399   6.053   7.646 -1.2075  1.5731  1.1674
  876TIP3   OH226822   0.641   0.345   9.132  0.4570 -0.2064 -0.3929
  876TIP3    H126823   0.568   0.295   9.170 -0.1316 -0.0253 -1.2521
  876TIP3    H226824   0.599   0.402   9.067  1.4084 -0.3999 -1.1921
  877TIP3   OH226825   1.119   6.888   7.065 -0.3522 -0.0894 -0.1933
  877TIP3    H126826   1.127   6.795   7.044 -2.5277 -0.6799  1.2565
  877TIP3    H226827   1.108   6.930   6.980 -1.8985 -1.5239 -0.7803
  878TIP3   OH226828   0.081   4.894   7.541  0.4053  0.3521  0.2027
  878TIP3    H126829   0.064   4.898   7.635 -0.3785 -0.0438  0.0832
  878TIP3    H226830   0.132   4.813   7.530 -0.9788 -0.5355  0.0848
  879TIP3   OH226831   6.660   4.188   8.509 -0.3416 -0.0139 -0.5245
  879TIP3    H126832   6.643   4.215   8.418 -1.8181 -2.9102 -1.2435
  879TIP3    H226833   6.574   4.188   8.550 -0.3159 -2.4229 -0.3289
  880TIP3   OH226834   0.801   5.315   8.068 -0.6834  0.3005  0.5211
  880TIP3    H126835   0.784   5.402   8.034  0.6817  0.7409  0.8945
  880TIP3    H226836   0.760   5.315   8.155 -2.6450 -0.2324 -0.3547
  881TIP3   OH226837   4.661   5.980   7.254 -0.2358  0.6376  0.1884
  881TIP3    H126838   4.605   5.978   7.332 -0.4381  0.8969  0.0504
  881TIP3    H226839   4.746   5.948   7.285 -1.2804 -3.0935 -0.2787
  882TIP3   OH226840   3.284   2.159   7.737  0.1603 -0.1519 -0.1645
  882TIP3    H126841   3.230   2.081   7.746 -2.2013  1.3020 -0.8136
  882TIP3    H226842   3.300   2.187   7.827 -0.6563 -0.3120  0.0399
  883TIP3   OH226843   5.180   4.277   8.285 -0.2483  0.2410 -0.5889
  883TIP3    H126844   5.275   4.276   8.293 -0.3222 -0.2350  0.4370
  883TIP3    H226845   5.151   4.339   8.352 -0.7233 -0.9151  0.3279
  884TIP3   OH226846   4.488   1.244   7.374  0.3163 -0.3542  0.0033
  884TIP3    H126847   4.435   1.319   7.401  0.2297 -0.1859 -0.6275
  884TIP3    H226848   4.572   1.257   7.419  0.5941  0.5720 -0.7496
  885TIP3   OH226849   5.562   0.799   9.541 -0.6151 -0.6323  0.0683
  885TIP3    H126850   5.611   0.724   9.508 -0.9381 -1.0852  0.5992
  885TIP3    H226851   5.553   0.783   9.635 -0.8660 -0.0321  0.1549
  886TIP3   OH226852   0.870   3.165   6.747 -0.1130 -0.1633  0.1993
  886TIP3    H126853   0.801   3.131   6.690 -0.0284  0.7619 -0.4618
  886TIP3    H226854   0.857   3.118   6.830  0.1728 -2.0155 -0.7594
  887TIP3   OH226855   6.969   0.301   9.028 -0.6533  0.2115 -0.2408
  887TIP3    H126856   7.014   0.336   9.104 -1.3813 -1.1092  0.8309
  887TIP3    H226857   7.040   0.269   8.971 -0.1344  0.3524  0.3132
  888TIP3   OH226858   1.900   4.485   8.760  0.5998 -0.3594 -0.0189
  888TIP3    H126859   1.857   4.537   8.827 -1.2014  0.3024 -1.5865
  888TIP3    H226860   1.989   4.522   8.754  0.3453  0.4712  1.0281
  889TIP3   OH226861   6.603   3.989   9.154  0.3901  0.2756 -0.9030
  889TIP3    H126862   6.630   4.012   9.065  1.0146 -0.9462 -1.0423
  889TIP3    H226863   6.508   4.004   9.155  0.1277 -1.0873 -2.2352
  890TIP3   OH226864   4.611   1.312   9.448  0.1173  0.0510  0.3284
  890TIP3    H126865   4.549   1.260   9.396  0.0786  1.4612 -1.0880
  890TIP3    H226866   4.556   1.354   9.514 -0.1479 -0.1338  0.2313
  891TIP3   OH226867   0.825   1.041   8.904  0.1369 -0.3280  0.2792
  891TIP3    H126868   0.785   1.109   8.849 -0.9135  0.2213  1.6422
  891TIP3    H226869   0.760   0.970   8.904  0.4767 -0.6396  0.2056
  892TIP3   OH226870   5.219   6.140   6.835  0.1334  0.0597 -0.2138
  892TIP3    H126871   5.230   6.233   6.855 -1.3351  0.1581  0.2722
  892TIP3    H226872   5.124   6.126   6.840  0.2442 -1.2393 -1.3082
  893TIP3   OH226873   3.571   2.420   7.505 -0.1139  0.0063  0.0928
  893TIP3    H126874   3.644   2.364   7.533 -1.5491 -1.2914  1.4421
  893TIP3    H226875   3.593   2.444   7.415  1.9069 -0.4224  0.4181
  894TIP3   OH226876   5.129   2.539   9.520  0.0162  0.3398  0.4313
  894TIP3    H126877   5.090   2.452   9.511 -0.0247  0.5629 -2.2217
  894TIP3    H226878   5.074   2.582   9.586 -1.5948 -0.7809 -0.0994
  895TIP3   OH226879   6.784   1.044   7.743 -0.3543  0.1429  0.3134
  895TIP3    H126880   6.764   1.003   7.827  0.6243 -0.9251  0.0587
  895TIP3    H226881   6.868   1.088   7.757  0.2100 -0.7017 -0.2893
  896TIP3   OH226882   5.811   4.982   8.789  0.0443 -0.0008  0.2886
  896TIP3    H126883   5.859   5.065   8.787 -0.8172  0.5111 -1.0033
  896TIP3    H226884   5.753   4.990   8.864 -1.0713  1.2348 -0.6456
  897TIP3   OH226885   1.507   3.550   8.880  0.2090 -0.6763 -0.4543
  897TIP3    H126886   1.518   3.508   8.965 -0.1975 -0.5418 -0.3297
  897TIP3    H226887   1.537   3.640   8.892 -0.4338 -0.4793 -0.2776
  898TIP3   OH226888   6.963   6.732   7.390  0.2574  0.4212  0.0925
  898TIP3    H126889   6.883   6.767   7.351 -1.7777 -2.5661  1.2649
  898TIP3    H226890   6.935   6.695   7.474  3.1055  0.1701  1.0369
  899TIP3   OH226891   7.141   3.917   8.070  0.5169  0.2327 -0.1101
  899TIP3    H126892   7.121   4.000   8.026 -2.2525  1.1195  2.4487
  899TIP3    H226893   7.086   3.853   8.026 -0.3719  0.6238  0.3879
  900TIP3   OH226894   0.721   2.482   8.445  0.3716 -0.2077  0.0120
  900TIP3    H126895   0.726   2.523   8.531  2.8518  1.3948 -0.7748
  900TIP3    H226896   0.784   2.531   8.391  1.4428 -3.2645 -1.7980
  901TIP3   OH226897   0.476   0.304   7.842  0.5050 -0.0283  0.1765
  901TIP3    H126898   0.413   0.345   7.901 -0.0288 -1.1774  0.4315
  901TIP3    H226899   0.556   0.355   7.854 -0.2450  1.1973  0.1511
  902TIP3   OH226900   0.390   2.648   7.303 -0.3326 -0.0704  0.3700
  902TIP3    H126901   0.323   2.657   7.371 -0.6267  1.2841 -0.0616
  902TIP3    H226902   0.417   2.738   7.285 -2.2134 -0.0632 -3.2125
  903TIP3   OH226903   1.243   4.952   7.705  0.1134 -0.6893 -0.3695
  903TIP3    H126904   1.304   4.953   7.778 -0.3684  1.6489  0.1126
  903TIP3    H226905   1.182   4.881   7.724 -0.3551  0.2329  1.8799
  904TIP3   OH226906   1.551   1.789   9.451  0.2089 -0.1002 -0.5054
  904TIP3    H126907   1.524   1.699   9.434 -1.6276  0.1937  0.6098
  904TIP3    H226908   1.584   1.789   9.541  1.1314  0.1781 -0.8260
  905TIP3   OH226909   6.766   2.863   8.819  0.0986  0.2359 -0.1535
  905TIP3    H126910   6.694   2.801   8.829 -0.6338  0.8334 -1.4404
  905TIP3    H226911   6.802   2.872   8.907  0.1393 -1.8803  0.0959
  906TIP3   OH226912   4.655   1.048   6.657 -0.1669  0.0309 -0.1193
  906TIP3    H126913   4.620   1.136   6.674 -0.1756  0.1546 -0.7554
  906TIP3    H226914   4.625   1.027   6.568 -0.0417 -0.5578 -0.0267
  907TIP3   OH226915   6.431   3.397   6.987 -0.7272  0.4406 -0.2468
  907TIP3    H126916   6.358   3.456   6.969  0.1779  1.8758  0.6132
  907TIP3    H226917   6.390   3.311   6.997 -2.1197  0.9571 -1.1717
  908TIP3   OH226918   3.049   5.656   7.247  0.1519  0.0003 -0.4960
  908TIP3    H126919   3.065   5.744   7.215  0.0775  0.1526 -0.1276
  908TIP3    H226920   2.955   5.654   7.266  0.3005  0.1238  0.3054
  909TIP3   OH226921   4.251   7.267   9.333  0.3110  0.2132  0.0953
  909TIP3    H126922   4.246   7.249   9.239 -1.2077 -0.1522  0.2223
  909TIP3    H226923   4.161   7.259   9.363  0.9711 -1.0913  1.8557
  910TIP3   OH226924   5.912   1.162   7.072 -0.2162 -0.1002 -0.4989
  910TIP3    H126925   5.972   1.228   7.037  2.4947 -1.7456  0.7475
  910TIP3    H226926   5.856   1.210   7.132  1.9720  1.0862  0.7097
  911TIP3   OH226927   6.112   0.527   9.115 -0.3399 -0.2970  0.4908
  911TIP3    H126928   6.094   0.437   9.087 -0.7898 -0.2434  0.5976
  911TIP3    H226929   6.195   0.521   9.163  0.6652 -0.3238 -1.1570
  912TIP3   OH226930   2.534   4.478   8.318  0.1072  1.0479 -0.2599
  912TIP3    H126931   2.615   4.450   8.360 -0.6053  1.2006  1.3318
  912TIP3    H226932   2.556   4.489   8.226  1.6841  0.3321  0.0012
  913TIP3   OH226933   7.593   2.948   7.564  0.1317 -0.0318  0.1377
  913TIP3    H126934   7.674   2.928   7.611 -0.5973 -0.1904  1.3751
  913TIP3    H226935   7.550   3.014   7.618 -0.5762  0.0377 -0.4987
  914TIP3   OH226936   4.362   6.580   7.326 -0.0456  0.2225  0.0932
  914TIP3    H126937   4.340   6.507   7.383  0.5594 -1.2363 -1.4753
  914TIP3    H226938   4.451   6.606   7.353  0.8954 -1.5080 -1.1435
  915TIP3   OH226939   7.236   4.088   8.746  0.6002  0.0403 -0.1753
  915TIP3    H126940   7.299   4.063   8.813  0.6197 -0.9379 -0.5331
  915TIP3    H226941   7.218   4.181   8.762  0.2331 -0.2916  1.4634
  916TIP3   OH226942   1.706   5.809   8.041 -0.7786 -0.3368 -0.1704
  916TIP3    H126943   1.767   5.837   7.973 -0.9145  1.4297  0.3947
  916TIP3    H226944   1.735   5.721   8.065  1.0800  0.1629 -0.4407
  917TIP3   OH226945   5.377   0.495   8.277  0.2291 -0.3140  0.4052
  917TIP3    H126946   5.372   0.567   8.340 -2.4293  0.0521 -0.1100
  917TIP3    H226947   5.348   0.419   8.326 -1.2707 -0.1398 -0.1571
  918TIP3   OH226948   1.029   4.121   9.075  0.3300  0.3734  0.0310
  918TIP3    H126949   0.945   4.106   9.120  0.5944  0.5270  0.5789
  918TIP3    H226950   1.015   4.201   9.025 -0.1816 -0.1585 -0.6952
  919TIP3   OH226951   2.870   3.243   7.665 -0.0862  0.9035  0.6434
  919TIP3    H126952   2.834   3.167   7.619  0.1629  1.3959 -0.3850
  919TIP3    H226953   2.796   3.280   7.713 -0.9092  1.7003 -1.1609
  920TIP3   OH226954   2.294   4.195   8.027  0.0884  0.3520  0.0070
  920TIP3    H126955   2.252   4.129   7.973  0.4567  1.3283 -1.5428
  920TIP3    H226956   2.250   4.188   8.112 -0.9839 -0.7714 -0.6060
  921TIP3   OH226957   7.163   3.494   8.172  0.2003 -0.0548  0.2859
  921TIP3    H126958   7.215   3.417   8.149  1.2884  0.5281  0.6967
  921TIP3    H226959   7.085   3.459   8.214 -0.0753 -0.9861 -0.9341
  922TIP3   OH226960   0.832   1.414   9.643 -0.7492 -0.4246 -0.0829
  922TIP3    H126961   0.849   1.337   9.696 -1.6841  0.8632  2.2424
  922TIP3    H226962   0.740   1.407   9.618 -0.8694 -0.0037  0.2394
  923TIP3   OH226963   0.643   4.339   8.657  0.5388 -0.1646  0.2432
  923TIP3    H126964   0.704   4.271   8.628 -0.3807 -0.4550 -1.1165
  923TIP3    H226965   0.687   4.380   8.731  3.4178  1.0652 -1.9177
  924TIP3   OH226966   4.421   5.694   6.456 -0.1500  0.1435  0.1213
  924TIP3    H126967   4.375   5.770   6.420  0.6012  0.2395 -0.6450
  924TIP3    H226968   4.477   5.730   6.525 -0.1053  0.2184  0.0446
  925TIP3   OH226969   3.654   7.192   8.613 -0.3347  0.1367  0.0383
  925TIP3    H126970   3.637   7.281   8.644  1.9136  0.4314  0.5577
  925TIP3    H226971   3.610   7.137   8.678  0.4831  0.8517  1.2565
  926TIP3   OH226972   0.706   0.619   8.874  0.4783  0.6470 -0.6105
  926TIP3    H126973   0.703   0.630   8.779  0.3093  0.9428 -0.5709
  926TIP3    H226974   0.621   0.580   8.896  0.6646  0.2231 -0.6240
  927TIP3   OH226975   6.248   0.578   9.525 -0.2320 -0.3489 -0.3288
  927TIP3    H126976   6.275   0.543   9.440  0.6389 -0.1303 -0.1553
  927TIP3    H226977   6.330   0.603   9.568 -0.6920 -0.0289  0.3918
  928TIP3   OH226978   7.508   2.321   7.823 -0.5558  0.6927  0.2373
  928TIP3    H126979   7.532   2.272   7.902  0.7173  0.0561 -0.4961
  928TIP3    H226980   7.437   2.270   7.784  0.7554 -0.6384 -0.5198
  929TIP3   OH226981   5.746   2.368   8.120 -0.3066  0.6553  0.3302
  929TIP3    H126982   5.669   2.424   8.120  0.0284  1.2581 -2.5686
  929TIP3    H226983   5.715   2.285   8.084  0.0521  0.3377  0.7446
  930TIP3   OH226984   3.182   4.915   6.752  0.7257 -0.0043 -0.2394
  930TIP3    H126985   3.270   4.882   6.773  1.0168  0.2853 -0.9823
  930TIP3    H226986   3.197   4.995   6.702  0.0237  0.6157  0.5091
  931TIP3   OH226987   3.535   4.110   7.824  0.2898 -0.5035 -0.1047
  931TIP3    H126988   3.620   4.148   7.848 -0.4599  1.2926 -0.1600
  931TIP3    H226989   3.510   4.155   7.744  0.1017 -2.3426 -1.1188
  932TIP3   OH226990   4.845   3.998   8.731  0.2805 -0.2499  0.2353
  932TIP3    H126991   4.795   4.080   8.737 -0.6086 -0.8213  0.9450
  932TIP3    H226992   4.834   3.970   8.640  0.7267  0.4945 -0.0551
  933TIP3   OH226993   2.939   3.297   9.467  0.8331 -0.4126 -0.0734
  933TIP3    H126994   3.004   3.228   9.485  0.8375 -0.1272  1.1065
  933TIP3    H226995   2.857   3.250   9.457  0.8649 -0.6212  0.5630
  934TIP3   OH226996   2.875   4.413   6.497  0.3284  0.2966 -0.0853
  934TIP3    H126997   2.835   4.326   6.506  0.2176  0.2971 -0.5380
  934TIP3    H226998   2.829   4.467   6.561  0.6272 -0.0548  0.4353
  935TIP3   OH226999   6.407   3.876   8.728  0.1741  0.6145  0.3705
  935TIP3    H127000   6.465   3.803   8.705 -0.3093 -0.1947  1.6049
  935TIP3    H227001   6.457   3.927   8.792  0.4691  1.3405 -0.4108
  936TIP3   OH227002   4.199   3.851   8.353  0.3662  0.4402 -0.2352
  936TIP3    H127003   4.292   3.837   8.336  1.0386  3.4825  0.3840
  936TIP3    H227004   4.176   3.928   8.301 -1.0446  1.4698  1.7700
  937TIP3   OH227005   5.291   4.015   6.938  0.8249  0.3308  0.0484
  937TIP3    H127006   5.343   4.094   6.924 -0.7347  1.3475 -0.2095
  937TIP3    H227007   5.250   4.028   7.024  2.6403 -1.4613  1.3003
  938TIP3   OH227008   7.157   3.473   6.840  0.5341 -0.1445 -0.0659
  938TIP3    H127009   7.233   3.496   6.786  0.9443 -1.4565 -0.0790
  938TIP3    H227010   7.103   3.553   6.841  2.0337  0.9086  0.1707
  939TIP3   OH227011   7.566   4.558   7.359  0.1581 -0.0727  0.3227
  939TIP3    H127012   7.593   4.468   7.342  0.9434  0.1847  0.1603
  939TIP3    H227013   7.607   4.609   7.289 -1.0883  0.2934 -0.1668
  940TIP3   OH227014   1.302   5.141   8.957 -0.3062  0.0879  0.0443
  940TIP3    H127015   1.314   5.053   8.994  0.2747 -1.0209 -2.5793
  940TIP3    H227016   1.390   5.178   8.953 -0.5227  0.7398  0.9346
  941TIP3   OH227017   3.337   0.469   7.684 -0.3668  0.6048 -1.3045
  941TIP3    H127018   3.371   0.432   7.765 -2.7782 -3.7922 -1.9873
  941TIP3    H227019   3.409   0.522   7.650  1.0185  2.0369  3.1725
  942TIP3   OH227020   1.140   6.555   7.491  0.2916  0.0124 -0.2167
  942TIP3    H127021   1.216   6.498   7.482  0.2044 -0.2123  0.3974
  942TIP3    H227022   1.090   6.541   7.412  1.3425  0.8497 -1.0624
  943TIP3   OH227023   7.535   6.934   7.305 -0.2506  0.0587 -0.1225
  943TIP3    H127024   7.626   6.953   7.325 -0.5733  1.1627  0.3752
  943TIP3    H227025   7.506   6.874   7.373 -0.1945  0.5758  0.3609
  944TIP3   OH227026   7.445   3.636   9.122 -0.2273  0.2943 -0.3106
  944TIP3    H127027   7.402   3.714   9.087 -0.4823  0.6030  0.6659
  944TIP3    H227028   7.380   3.597   9.180 -0.0060 -0.5059 -0.5903
  945TIP3   OH227029   0.281   2.561   7.880  0.4555 -0.4869  0.4241
  945TIP3    H127030   0.320   2.558   7.792 -1.0730 -0.1211 -0.3062
  945TIP3    H227031   0.355   2.577   7.938  1.1960  2.3292 -1.1002
  946TIP3   OH227032   4.514   2.544   8.866 -0.6436  0.6009  0.7637
  946TIP3    H127033   4.495   2.508   8.779 -0.5809  0.0583  0.9678
  946TIP3    H227034   4.499   2.638   8.858  1.5817  0.9104 -0.4655
  947TIP3   OH227035   4.236   5.134   8.296  0.0835 -0.3033 -0.2925
  947TIP3    H127036   4.300   5.088   8.349  0.4235 -1.3177 -1.5495
  947TIP3    H227037   4.280   5.215   8.269  0.2562 -0.2492  0.1509
  948TIP3   OH227038   5.212   2.407   8.492  0.1376  0.7391  0.1746
  948TIP3    H127039   5.153   2.339   8.458  0.1566  1.1890 -0.7937
  948TIP3    H227040   5.291   2.359   8.517 -0.0888  0.3167  0.0927
  949TIP3   OH227041   5.712   1.821   7.530  0.2256  0.3274 -0.4564
  949TIP3    H127042   5.708   1.865   7.445  0.3975  1.5005  0.1222
  949TIP3    H227043   5.690   1.890   7.593 -2.4438 -1.0950  0.2994
  950TIP3   OH227044   6.960   6.943   8.403  0.2665 -0.6285 -0.5774
  950TIP3    H127045   6.942   6.925   8.310  1.0729  0.4995 -0.9787
  950TIP3    H227046   7.053   6.964   8.405 -0.0137  0.6413  0.2689
  951TIP3   OH227047   5.906   6.471   7.900 -0.2079 -0.3665  0.3361
  951TIP3    H127048   5.983   6.427   7.937 -0.4316 -2.3195 -1.3801
  951TIP3    H227049   5.845   6.400   7.879 -1.0884  0.8422 -1.4302
  952TIP3   OH227050   2.314   5.789   9.006 -0.7110 -0.8401 -0.2774
  952TIP3    H127051   2.305   5.828   8.919 -0.9227 -0.1136  0.0645
  952TIP3    H227052   2.226   5.795   9.044 -0.3500  0.0004  0.4594
  953TIP3   OH227053   6.911   6.988   9.190 -0.3768 -0.4066  0.0476
  953TIP3    H127054   6.906   6.942   9.106  1.3741 -0.3881 -0.1125
  953TIP3    H227055   6.820   7.005   9.214 -0.8993  1.0450 -2.6327
  954TIP3   OH227056   0.923   0.190   8.277 -0.4214 -0.4035  0.5183
  954TIP3    H127057   0.988   0.154   8.217 -0.5466  0.1766  0.0302
  954TIP3    H227058   0.938   0.284   8.277 -0.7857 -0.3369  0.9704
  955TIP3   OH227059   3.404   2.489   7.928  0.2410  0.6222 -0.7787
  955TIP3    H127060   3.432   2.526   7.845 -1.2560  0.0767 -1.5580
  955TIP3    H227061   3.417   2.394   7.918  1.3437  0.6590  0.1321
  956TIP3   OH227062   5.530   2.837   7.861 -0.6786  0.0099  0.3762
  956TIP3    H127063   5.487   2.919   7.833  1.8229  0.7444 -1.7583
  956TIP3    H227064   5.501   2.772   7.796 -1.1181 -0.3388  0.9112
  957TIP3   OH227065   4.748   3.934   9.320  0.4274  0.4416  0.4181
  957TIP3    H127066   4.820   3.956   9.261  0.5482 -1.3231 -0.1629
  957TIP3    H227067   4.693   4.012   9.322  1.2777  1.1001 -0.7592
  958TIP3   OH227068   2.674   1.383   9.364  0.6227  0.1869  0.1141
  958TIP3    H127069   2.581   1.406   9.367  0.6952  0.5750 -0.4880
  958TIP3    H227070   2.681   1.304   9.418  0.0464  0.4930  0.6511
  959TIP3   OH227071   1.208   2.279   9.231 -0.3886 -0.1382  0.4215
  959TIP3    H127072   1.206   2.319   9.318 -1.8167 -0.1933  0.4305
  959TIP3    H227073   1.298   2.292   9.202 -0.3355  1.4845  1.1677
  960TIP3   OH227074   5.450   0.214   6.631  0.1422 -0.0697  0.3924
  960TIP3    H127075   5.355   0.204   6.629  0.2461 -1.3813  1.0277
  960TIP3    H227076   5.478   0.162   6.706  1.3437  0.5794  0.4196
  961TIP3   OH227077   5.677   0.144   9.365 -0.2271  0.5246 -0.3271
  961TIP3    H127078   5.626   0.193   9.301 -0.2788  1.3254  0.3075
  961TIP3    H227079   5.649   0.053   9.354  0.8335  0.3851 -2.4394
  962TIP3   OH227080   2.149   1.855   8.025 -0.4423  0.3386  0.1883
  962TIP3    H127081   2.204   1.809   7.962 -0.0859  0.9191  0.0716
  962TIP3    H227082   2.100   1.918   7.973 -0.0824  0.8809  0.5003
  963TIP3   OH227083   1.420   5.047   7.913 -0.2936 -0.1322  0.2349
  963TIP3    H127084   1.375   5.114   7.966  0.1502  0.6603 -0.3683
  963TIP3    H227085   1.494   5.093   7.873 -0.4422 -0.7822 -0.8380
  964TIP3   OH227086   2.423   3.635   8.257  0.3907 -0.0274  0.1755
  964TIP3    H127087   2.492   3.574   8.233 -0.3654 -1.2820  1.0748
  964TIP3    H227088   2.342   3.584   8.253 -0.2946  0.9633  0.7353
  965TIP3   OH227089   1.878   3.739   7.181  0.1408  0.3440 -0.0779
  965TIP3    H127090   1.866   3.833   7.166  1.1809  0.9585  2.4048
  965TIP3    H227091   1.971   3.724   7.165  0.3352  0.1228  1.1644
  966TIP3   OH227092   2.774   6.511   7.261 -0.5948 -0.0344  0.1483
  966TIP3    H127093   2.716   6.559   7.203 -0.3427 -1.4410 -1.3158
  966TIP3    H227094   2.842   6.475   7.204  0.0679 -0.8687  1.4077
  967TIP3   OH227095   0.321   1.382   9.296  0.3593 -0.6210  0.1185
  967TIP3    H127096   0.293   1.429   9.218  2.0718 -0.1359 -0.2475
  967TIP3    H227097   0.417   1.388   9.295  0.4223 -0.0519  2.5696
  968TIP3   OH227098   0.803   3.046   8.014 -0.1218  0.2305  0.2828
  968TIP3    H127099   0.886   2.998   8.013 -0.1477  0.1638  1.0319
  968TIP3    H227100   0.807   3.102   8.092 -1.3493 -0.8261  1.1619
  969TIP3   OH227101   5.483   2.824   9.133 -0.0569 -0.0780  0.0667
  969TIP3    H127102   5.538   2.874   9.073  2.7080 -1.7530  1.0177
  969TIP3    H227103   5.421   2.778   9.077  1.4822 -0.4621 -1.3778
  970TIP3   OH227104   6.384   2.011   7.843 -0.2366  0.6841 -0.5003
  970TIP3    H127105   6.397   1.917   7.831  0.4042  0.7120 -0.0726
  970TIP3    H227106   6.397   2.049   7.756  2.3665  0.6755 -0.1982
  971TIP3   OH227107   4.298   1.404   7.480 -0.0183  0.1038 -0.3630
  971TIP3    H127108   4.249   1.443   7.408 -3.3066 -1.4520  0.8310
  971TIP3    H227109   4.281   1.463   7.554 -2.3617 -1.6594  0.6559
  972TIP3   OH227110   0.829   7.466   9.149 -0.3793 -0.5263 -0.1206
  972TIP3    H127111   0.843   7.560   9.160 -2.1344 -0.2662  0.1231
  972TIP3    H227112   0.804   7.435   9.237 -1.6079 -0.8666 -0.5746
  973TIP3   OH227113   7.119   0.604   8.252  0.3659 -0.2344 -0.6862
  973TIP3    H127114   7.181   0.590   8.323 -0.5726  0.0843  0.2228
  973TIP3    H227115   7.132   0.696   8.227 -1.5868  0.7247  1.4097
  974TIP3   OH227116   2.849   4.173   8.939  0.3933  0.4934 -0.1058
  974TIP3    H127117   2.807   4.258   8.956  0.8430  0.7300 -0.1720
  974TIP3    H227118   2.912   4.191   8.869 -0.1871 -0.1000 -0.7965
  975TIP3   OH227119   4.824   5.155   7.591  0.2403  0.0477  0.0626
  975TIP3    H127120   4.777   5.075   7.569 -2.1331  1.2202  0.6078
  975TIP3    H227121   4.888   5.128   7.657  0.0195 -1.5219 -0.3314
  976TIP3   OH227122   4.430   0.900   8.542  0.1761  0.4933  0.2365
  976TIP3    H127123   4.416   0.815   8.583  0.3894  0.2483 -0.2040
  976TIP3    H227124   4.349   0.949   8.561  0.7249  0.8210  1.9951
  977TIP3   OH227125   2.637   5.861   8.526  0.0510  0.2326  0.2298
  977TIP3    H127126   2.560   5.830   8.575 -0.5593  0.8091 -0.3324
  977TIP3    H227127   2.678   5.782   8.492  0.2782 -0.1560  1.3542
  978TIP3   OH227128   3.571   0.923   7.947 -0.0877  0.0575  0.0568
  978TIP3    H127129   3.502   0.959   8.004 -1.2584 -1.0712 -0.5917
  978TIP3    H227130   3.526   0.903   7.865  1.5522  1.6249 -1.3273
  979TIP3   OH227131   2.140   2.074   9.272 -0.5704 -0.5297  0.5087
  979TIP3    H127132   2.134   2.083   9.367 -0.1702 -0.7461  0.5584
  979TIP3    H227133   2.215   2.127   9.247 -0.8814 -0.1977  0.2695
  980TIP3   OH227134   5.224   7.036   9.243 -0.5148 -0.2564 -0.0167
  980TIP3    H127135   5.261   7.000   9.162  2.3377  0.1516  0.9653
  980TIP3    H227136   5.233   6.965   9.307 -1.7543 -0.2213  0.2080
  981TIP3   OH227137   1.848   3.675   7.873  0.7232 -0.0007  0.3771
  981TIP3    H127138   1.820   3.611   7.938  0.5582 -1.7035 -1.2879
  981TIP3    H227139   1.942   3.659   7.862  0.9318  0.8651  0.7894
  982TIP3   OH227140   6.921   2.479   8.964  0.0596 -0.2371 -0.9027
  982TIP3    H127141   7.010   2.499   8.993  0.4744 -0.9725 -1.6486
  982TIP3    H227142   6.906   2.389   8.993 -0.1403 -0.3974 -1.4887
  983TIP3   OH227143   0.225   4.274   6.805 -0.3409  0.4878 -0.3362
  983TIP3    H127144   0.143   4.244   6.844 -0.4218 -0.4908 -1.2309
  983TIP3    H227145   0.221   4.370   6.810 -1.3475  0.4350 -0.0108
  984TIP3   OH227146   2.688   3.422   7.134  0.1440  0.2742 -0.0427
  984TIP3    H127147   2.643   3.506   7.124 -0.4734 -0.1782 -1.2702
  984TIP3    H227148   2.699   3.412   7.229 -3.0591  0.0576  0.4216
  985TIP3   OH227149   4.126   2.365   7.506 -0.7650 -0.3556 -0.0511
  985TIP3    H127150   4.169   2.342   7.423 -3.4080  0.4060 -1.7484
  985TIP3    H227151   4.195   2.406   7.558  2.0508 -4.3888 -0.1406
  986TIP3   OH227152   7.659   7.230  10.007  0.3420 -0.1961  0.3971
  986TIP3    H127153   7.745   7.199   9.978 -0.0943  0.5046 -1.8225
  986TIP3    H227154   7.632   7.291   9.939 -2.1551 -0.7962  0.7692
  987TIP3   OH227155   2.873   1.478   8.597 -0.0187 -0.2929 -0.1413
  987TIP3    H127156   2.858   1.411   8.663 -0.8725 -0.8340 -0.8494
  987TIP3    H227157   2.908   1.553   8.645 -2.0779 -0.1048  1.2043
  988TIP3   OH227158   2.441   3.265   9.459  0.6709  0.0512  0.1866
  988TIP3    H127159   2.421   3.347   9.505  1.4557 -0.5344  1.6439
  988TIP3    H227160   2.375   3.260   9.390 -0.3742  1.1347  1.0575
  989TIP3   OH227161   5.030   0.472   8.336  0.6872  0.1728 -0.5961
  989TIP3    H127162   4.961   0.471   8.403  1.8433  1.3504  0.6866
  989TIP3    H227163   5.083   0.395   8.356  1.6246  1.0748  0.5620
  990TIP3   OH227164   4.051   6.018   7.971  0.1469  0.0141  0.3693
  990TIP3    H127165   3.974   6.049   7.923  1.0925 -0.1649 -1.3617
  990TIP3    H227166   4.041   6.053   8.059 -2.6778 -1.2964  0.6727
  991TIP3   OH227167   3.548   4.839   8.327 -0.1708 -0.5342 -0.3260
  991TIP3    H127168   3.454   4.827   8.310 -0.3368  1.8260 -1.3773
  991TIP3    H227169   3.552   4.908   8.393  0.8591 -0.8622 -0.0197
  992TIP3   OH227170   6.942   7.666   9.238 -0.3170 -0.7836 -0.2961
  992TIP3    H127171   7.014   7.711   9.193 -0.8287 -1.9704 -2.4160
  992TIP3    H227172   6.869   7.728   9.234 -0.2376 -0.7173 -0.7321
  993TIP3   OH227173   1.595   5.296   7.789  0.0549 -0.7092  0.1383
  993TIP3    H127174   1.630   5.364   7.732  0.7280 -0.8075  0.4244
  993TIP3    H227175   1.596   5.335   7.877 -1.5016 -0.3577  0.0240
  994TIP3   OH227176   2.012   3.025   7.179  0.2537  0.6306  0.4390
  994TIP3    H127177   1.982   2.987   7.097  1.2317  0.8631 -0.0398
  994TIP3    H227178   1.932   3.053   7.224 -0.3499 -0.2784 -0.0366
  995TIP3   OH227179   1.479   2.628   6.948 -0.2797 -0.0542 -0.2173
  995TIP3    H127180   1.423   2.584   7.012 -0.5311  0.8716  0.2200
  995TIP3    H227181   1.460   2.721   6.960 -0.1042  0.1493 -1.4390
  996TIP3   OH227182   2.700   3.180   9.388 -0.0870  0.3992  0.4645
  996TIP3    H127183   2.684   3.090   9.360  0.4354  0.6319 -0.6444
  996TIP3    H227184   2.617   3.208   9.427 -0.2334 -0.5734  0.8665
  997TIP3   OH227185   6.871   3.638   8.031 -0.5884  0.2504 -0.0406
  997TIP3    H127186   6.850   3.727   8.060  1.4642  0.1486  2.0665
  997TIP3    H227187   6.826   3.581   8.093 -1.7319 -0.2501 -1.2625
  998TIP3   OH227188   3.008   0.361   7.616 -0.0008 -0.3617 -0.1876
  998TIP3    H127189   2.966   0.279   7.589  0.3505 -0.0307 -1.8460
  998TIP3    H227190   3.070   0.334   7.683 -2.1589 -0.9820  1.6991
  999TIP3   OH227191   1.229   3.005   8.673 -0.1912 -0.3898 -0.4850
  999TIP3    H127192   1.179   3.069   8.622  0.4852 -0.3205 -1.0797
  999TIP3    H227193   1.194   3.011   8.762  0.6618  1.6588 -0.2403
 1000TIP3   OH227194   2.959   0.822   7.130  0.2298  0.3618  0.3365
 1000TIP3    H127195   3.013   0.857   7.059 -0.2259 -1.8707 -1.2056
 1000TIP3    H227196   2.959   0.728   7.116 -0.8857 -0.0391  2.6212
 1001TIP3   OH227197   3.463   5.762   7.363 -0.0702  0.3357  0.6167
 1001TIP3    H127198   3.510   5.789   7.285 -0.6078 -0.0683  0.1433
 1001TIP3    H227199   3.462   5.839   7.419 -0.4531  0.9037 -0.1583
 1002TIP3   OH227200   4.099   0.838   8.792 -0.3779 -0.1219  0.1159
 1002TIP3    H127201   4.089   0.799   8.879 -0.0005  3.3032  1.8986
 1002TIP3    H227202   4.193   0.834   8.774 -0.0502  1.4483  1.1934
 1003TIP3   OH227203   5.198   6.693   7.763  0.6868  0.0191 -0.1401
 1003TIP3    H127204   5.225   6.651   7.845 -1.2710 -0.3761  0.3603
 1003TIP3    H227205   5.180   6.620   7.703 -0.2587  0.2012 -0.0968
 1004TIP3   OH227206   5.732   1.871   8.724  0.5810 -0.2031  0.0784
 1004TIP3    H127207   5.713   1.784   8.760  0.3130 -0.0060  0.4235
 1004TIP3    H227208   5.729   1.929   8.800  1.4987  0.0021 -0.0310
 1005TIP3   OH227209   6.291   3.411   7.611  0.1420  0.0840  0.0651
 1005TIP3    H127210   6.295   3.429   7.517 -0.7845 -0.7648 -0.1536
 1005TIP3    H227211   6.333   3.325   7.621 -0.1247 -0.0144  0.3605
 1006TIP3   OH227212   4.052   0.635   8.429 -0.1914  0.7935 -0.6885
 1006TIP3    H127213   4.083   0.581   8.502 -0.5738 -1.1114 -1.8460
 1006TIP3    H227214   3.957   0.635   8.437 -0.1574  2.6178  0.1429
 1007TIP3   OH227215   2.818   3.258   6.952 -0.7190  0.3097 -0.0629
 1007TIP3    H127216   2.794   3.318   7.023  0.6018 -0.9776  1.5594
 1007TIP3    H227217   2.903   3.289   6.921  1.1937 -1.9108  2.4337
 1008TIP3   OH227218   1.103   2.148   8.475 -0.3510  0.0870 -0.4846
 1008TIP3    H127219   1.152   2.067   8.488 -0.4986  0.0682 -0.0489
 1008TIP3    H227220   1.012   2.124   8.491 -0.3095  0.5166  0.4220
 1009TIP3   OH227221   0.703   1.984   9.521 -0.1704 -0.2181  0.4366
 1009TIP3    H127222   0.762   2.056   9.542 -0.6156  0.3916 -0.3420
 1009TIP3    H227223   0.760   1.915   9.487  0.0314  0.6784 -1.1175
 1010TIP3   OH227224   2.246   0.194   7.731 -0.2393  0.4132  0.4486
 1010TIP3    H127225   2.191   0.156   7.800  1.7889 -1.8664  0.9229
 1010TIP3    H227226   2.192   0.264   7.693 -2.8775 -0.7761  1.7845
 1011TIP3   OH227227   6.919   6.347   7.441  0.9606 -0.5412 -0.1695
 1011TIP3    H127228   6.876   6.314   7.362  0.0391 -0.6571  0.3630
 1011TIP3    H227229   7.002   6.382   7.411  0.3145  0.0587 -1.3002
 1012TIP3   OH227230   1.994   2.963   8.697 -0.1566 -0.1086 -0.5616
 1012TIP3    H127231   1.945   3.044   8.682  0.9517  0.8177  0.6070
 1012TIP3    H227232   1.928   2.894   8.692 -1.2421  0.9164 -0.9177
 1013TIP3   OH227233   7.499   7.598   7.518 -0.1147 -0.0353  0.1229
 1013TIP3    H127234   7.555   7.660   7.565 -1.0067  1.1429 -0.2944
 1013TIP3    H227235   7.543   7.585   7.434  0.6950 -0.9456  0.6665
 1014TIP3   OH227236   4.367   4.951   9.006 -0.5812  0.4433  0.6914
 1014TIP3    H127237   4.449   5.001   9.003  0.4777 -1.2540 -0.3987
 1014TIP3    H227238   4.393   4.865   9.038 -2.0288 -0.0256  0.6530
 1015TIP3   OH227239   0.069   4.167   7.691  0.1443  0.3359  0.0971
 1015TIP3    H127240   0.027   4.253   7.681  0.6437  0.6341  0.5122
 1015TIP3    H227241   0.162   4.185   7.681  0.2777 -0.1046  0.5186
 1016TIP3   OH227242   1.678   4.955   6.550 -0.0210 -0.5792 -0.0143
 1016TIP3    H127243   1.641   5.041   6.528  0.6613 -0.2672  0.0275
 1016TIP3    H227244   1.764   4.975   6.588 -0.3394 -1.2147  1.0795
 1017TIP3   OH227245   2.693   4.041   7.026 -0.3340 -0.0506  0.0856
 1017TIP3    H127246   2.626   3.995   7.077 -1.3865 -1.0127 -2.0344
 1017TIP3    H227247   2.765   4.055   7.087 -0.7334 -2.8604  1.3424
 1018TIP3   OH227248   1.941   2.940   7.538 -0.0056  0.4810  0.5822
 1018TIP3    H127249   1.956   3.027   7.501 -1.5957  0.5570  0.0277
 1018TIP3    H227250   1.941   2.954   7.632 -2.1463  1.4960  0.4943
 1019TIP3   OH227251   6.208   5.532   7.585 -0.2732 -0.6748  0.3520
 1019TIP3    H127252   6.142   5.586   7.541 -0.2855  0.0354  1.2286
 1019TIP3    H227253   6.158   5.480   7.648 -0.0631 -0.5189  0.6474
 1020TIP3   OH227254   1.639   0.626   7.321 -0.2394  0.0994  0.2817
 1020TIP3    H127255   1.576   0.579   7.265  1.2234 -0.7026 -0.7888
 1020TIP3    H227256   1.636   0.579   7.404  1.5518 -2.4291 -0.9086
 1021TIP3   OH227257   1.549   5.197   6.541  0.7319 -0.3966 -0.3199
 1021TIP3    H127258   1.538   5.216   6.634 -0.6080 -0.5380 -0.4316
 1021TIP3    H227259   1.483   5.130   6.523  0.2643  0.3797 -1.6026
 1022TIP3   OH227260   5.330   0.247   8.399 -0.5378 -0.5213  0.1535
 1022TIP3    H127261   5.272   0.225   8.471 -0.2602  0.7477  0.7936
 1022TIP3    H227262   5.349   0.163   8.356 -1.9189 -1.0886  0.6138
 1023TIP3   OH227263   3.298   4.616   8.849 -0.4309 -0.3524  0.5001
 1023TIP3    H127264   3.370   4.679   8.856 -0.4030 -0.4424  1.0004
 1023TIP3    H227265   3.325   4.541   8.902 -0.5148 -0.7445  0.0006
 1024TIP3   OH227266   6.802   6.903   8.971 -0.1236 -0.5956 -0.1134
 1024TIP3    H127267   6.882   6.927   8.923 -0.3540  2.4702  0.8154
 1024TIP3    H227268   6.731   6.915   8.908 -0.0536 -0.9310 -0.2557
 1025TIP3   OH227269   4.009   3.998   8.528  0.1324  0.5789 -0.5096
 1025TIP3    H127270   4.060   3.966   8.454 -1.0333 -1.0085 -0.6831
 1025TIP3    H227271   3.923   3.956   8.518 -0.1986  0.6805  1.4854
 1026TIP3   OH227272   4.066   2.050   7.313 -0.1779  0.6186  0.2444
 1026TIP3    H127273   3.985   2.062   7.263  0.2014 -1.7049 -1.0724
 1026TIP3    H227274   4.115   2.131   7.298 -1.4317  1.2720 -0.5353
 1027TIP3   OH227275   5.929   1.501   8.476  0.3854 -0.5901 -0.1200
 1027TIP3    H127276   5.932   1.440   8.402  1.5591  0.1714 -0.7163
 1027TIP3    H227277   5.990   1.570   8.453  0.9811 -0.4716  1.7029
 1028TIP3   OH227278   5.486   2.081   8.003 -0.1202  0.2845  0.2621
 1028TIP3    H127279   5.461   2.139   7.931  1.5556  0.2799 -0.3878
 1028TIP3    H227280   5.508   1.998   7.961 -0.7927 -0.2836  0.9906
 1029TIP3   OH227281   7.507   3.223   6.996 -0.2561 -0.0802  0.3707
 1029TIP3    H127282   7.474   3.133   6.984 -1.8052  0.1368  2.4229
 1029TIP3    H227283   7.507   3.260   6.907  0.5104 -2.1033 -0.5338
 1030TIP3   OH227284   4.786   0.925   7.761  0.3246  0.0228 -0.1589
 1030TIP3    H127285   4.811   1.016   7.751  0.5673  0.0525  0.6231
 1030TIP3    H227286   4.753   0.899   7.675  0.5540  0.7499 -0.4724
 1031TIP3   OH227287   0.185   5.608   7.420  0.1679 -0.0491 -0.2104
 1031TIP3    H127288   0.122   5.680   7.414 -0.6610 -0.7325  0.1000
 1031TIP3    H227289   0.264   5.643   7.380 -0.4541  0.7785 -0.7701
 1032TIP3   OH227290   6.632   2.198   9.304  0.0453 -0.1407  0.0589
 1032TIP3    H127291   6.584   2.260   9.249  0.5045 -0.0921 -0.2985
 1032TIP3    H227292   6.569   2.129   9.324 -0.4314  0.3745  0.3475
 1033TIP3   OH227293   1.165   4.879   7.387 -0.6567  0.3303  0.1731
 1033TIP3    H127294   1.191   4.844   7.472 -1.1002 -0.5383 -0.0371
 1033TIP3    H227295   1.197   4.815   7.323 -0.4625  0.8940 -0.3061
 1034TIP3   OH227296   1.563   7.295   9.035  0.2848 -0.2558 -0.1588
 1034TIP3    H127297   1.619   7.326   8.964  0.1916  0.7930  0.2191
 1034TIP3    H227298   1.588   7.348   9.111  0.1853 -1.1656  0.5318
 1035TIP3   OH227299   7.203   6.313   9.354 -0.2201  0.2870  0.1591
 1035TIP3    H127300   7.273   6.250   9.340 -0.0496  0.5884 -0.3731
 1035TIP3    H227301   7.127   6.275   9.310 -0.6616 -0.4980  1.5487
 1036TIP3   OH227302   5.024   6.794   8.685  0.3005 -0.2152  0.6564
 1036TIP3    H127303   5.103   6.846   8.688 -0.6551  1.9268 -3.4532
 1036TIP3    H227304   4.956   6.849   8.724 -0.2578  0.8333 -1.6091
 1037TIP3   OH227305   1.393   6.545   7.142  0.2025  0.1436 -0.2863
 1037TIP3    H127306   1.396   6.620   7.203  0.5153 -0.8955  1.0281
 1037TIP3    H227307   1.320   6.565   7.083  0.2532  1.4615  0.0565
 1038TIP3   OH227308   5.198   6.239   8.856  0.7381  0.2773 -0.4937
 1038TIP3    H127309   5.138   6.279   8.920  1.6059  0.5384  0.1722
 1038TIP3    H227310   5.213   6.151   8.889  2.0107  0.7483  0.2715
 1039TIP3   OH227311   2.736   3.099   8.654  0.1068 -0.2163 -0.0188
 1039TIP3    H127312   2.780   3.087   8.738  0.4616 -0.8990 -0.2932
 1039TIP3    H227313   2.736   3.194   8.640 -0.3339 -0.0621  0.9428
 1040TIP3   OH227314   2.063   2.819   9.370 -0.5196  0.1202 -0.4915
 1040TIP3    H127315   2.155   2.802   9.388 -0.3008  0.0810 -1.6094
 1040TIP3    H227316   2.041   2.762   9.297 -1.5466 -0.1689  0.0189
 1041TIP3   OH227317   5.176   1.215   9.386 -0.0882  0.0239  0.1627
 1041TIP3    H127318   5.094   1.209   9.434 -0.9098 -1.3926 -1.3453
 1041TIP3    H227319   5.152   1.254   9.302  1.1194  1.3315  0.3869
 1042TIP3   OH227320   2.322   3.239   9.231 -0.3092 -0.2983  0.3817
 1042TIP3    H127321   2.402   3.213   9.186  0.7290 -1.6606  2.7903
 1042TIP3    H227322   2.252   3.191   9.186  0.4820 -0.5801 -0.5768
 1043TIP3   OH227323   7.368   7.161   6.961  0.0677 -0.3655  0.2674
 1043TIP3    H127324   7.378   7.256   6.951  1.1632 -0.1664  2.5276
 1043TIP3    H227325   7.296   7.138   6.902 -0.1796  1.8539 -0.3884
 1044TIP3   OH227326   0.491   5.613   8.344  0.2381  0.0169  0.0256
 1044TIP3    H127327   0.506   5.611   8.438  0.3323  0.1772  0.0136
 1044TIP3    H227328   0.407   5.657   8.334 -1.2618 -2.5886  0.2237
 1045TIP3   OH227329   1.354   0.666   9.181  0.1643  0.9649  0.1461
 1045TIP3    H127330   1.288   0.712   9.233  0.4287 -0.1144  1.5060
 1045TIP3    H227331   1.303   0.617   9.116 -0.4001  0.1565  1.1706
 1046TIP3   OH227332   6.920   2.052   9.359 -0.3635 -0.2181 -0.1664
 1046TIP3    H127333   6.829   2.081   9.359 -0.0963  0.7040 -1.1933
 1046TIP3    H227334   6.953   2.077   9.445 -0.1128  2.8333 -1.0072
 1047TIP3   OH227335   3.982   7.571   9.416 -0.0665 -0.2342  0.3183
 1047TIP3    H127336   3.887   7.568   9.429 -0.2646  0.1888 -0.9038
 1047TIP3    H227337   3.996   7.530   9.331  0.9858 -1.4438  1.0471
 1048TIP3   OH227338   0.170   2.919   7.443 -0.6919 -0.2515 -0.0137
 1048TIP3    H127339   0.188   2.913   7.537  0.7989  0.1293 -0.2496
 1048TIP3    H227340   0.075   2.926   7.437 -0.7757  0.2056  1.4932
 1049TIP3   OH227341   3.461   4.079   8.414 -0.0664 -0.1449  0.3066
 1049TIP3    H127342   3.556   4.070   8.406 -0.2479 -3.5760  0.5043
 1049TIP3    H227343   3.449   4.147   8.480  2.2974 -0.7376  1.4715
 1050TIP3   OH227344   0.121   2.384   8.095 -0.3454  0.1533 -0.2099
 1050TIP3    H127345   0.158   2.297   8.104  0.0086  0.4521  1.4412
 1050TIP3    H227346   0.188   2.435   8.050  0.9021  0.4148  1.8123
 1051TIP3   OH227347   3.453   6.142   8.306 -0.0057 -0.4727  0.5157
 1051TIP3    H127348   3.436   6.050   8.326  0.8797 -0.7975 -0.2135
 1051TIP3    H227349   3.492   6.177   8.386  0.1188 -0.8508  0.6200
 1052TIP3   OH227350   5.998   6.041   7.509 -0.8362 -0.7219  0.1752
 1052TIP3    H127351   5.996   6.046   7.414 -0.2494  0.2504  0.1986
 1052TIP3    H227352   6.087   6.067   7.533 -1.2982  0.1351  1.0358
 1053TIP3   OH227353   4.394   4.331   8.924 -0.4685  0.4774  0.1222
 1053TIP3    H127354   4.336   4.259   8.901  1.6767 -1.0948 -0.6848
 1053TIP3    H227355   4.372   4.401   8.861  0.3092 -1.0777 -1.9949
 1054TIP3   OH227356   7.104   1.563   8.092  0.4608 -0.4284 -0.0044
 1054TIP3    H127357   7.032   1.501   8.075  0.6341 -0.9779  1.1629
 1054TIP3    H227358   7.061   1.637   8.137  0.0754  0.8286 -2.2726
 1055TIP3   OH227359   5.021   5.993   8.657  0.1436 -0.3076 -0.1287
 1055TIP3    H127360   5.105   5.994   8.702  1.4941 -0.6783 -2.4321
 1055TIP3    H227361   4.991   5.903   8.664 -0.7759  0.1089  1.8236
 1056TIP3   OH227362   7.450   6.159   7.107  0.3815 -0.0545  0.3366
 1056TIP3    H127363   7.446   6.248   7.072  2.5998  0.1292  0.4037
 1056TIP3    H227364   7.543   6.136   7.104 -0.0257 -2.0368  1.1734
 1057TIP3   OH227365   3.496   4.187   7.540  0.7254 -0.1234  0.2192
 1057TIP3    H127366   3.432   4.207   7.471  1.7067 -0.9030 -0.9660
 1057TIP3    H227367   3.531   4.273   7.565 -0.2916  0.2493  0.4163
 1058TIP3   OH227368   0.621   3.035   7.054  0.1970 -0.3813 -0.1948
 1058TIP3    H127369   0.561   2.988   7.112  2.2230 -1.2798  1.2761
 1058TIP3    H227370   0.624   2.981   6.975 -1.3438 -0.0086 -0.5355
 1059TIP3   OH227371   1.581   0.226   9.250  0.1507 -0.0782  0.3100
 1059TIP3    H127372   1.582   0.308   9.200 -0.8081  1.1779  2.2250
 1059TIP3    H227373   1.488   0.209   9.267  0.4598 -0.1547  2.0889
 1060TIP3   OH227374   2.728   0.193   8.424  0.3598 -0.2072  0.3129
 1060TIP3    H127375   2.646   0.238   8.403  0.6732  0.1171 -0.2348
 1060TIP3    H227376   2.789   0.221   8.356  0.2486 -2.3862 -0.7807
 1061TIP3   OH227377   5.002   2.960   9.098  0.0915 -0.6939  0.0081
 1061TIP3    H127378   4.980   2.869   9.116 -0.7833 -0.0748  2.4612
 1061TIP3    H227379   5.084   2.975   9.145 -0.4313  0.0807  0.7144
 1062TIP3   OH227380   1.446   7.261   9.469  0.5281  0.2928 -0.2388
 1062TIP3    H127381   1.398   7.222   9.396  0.3561 -1.6491  0.8387
 1062TIP3    H227382   1.402   7.344   9.485 -1.0356 -0.3938 -0.7660
 1063TIP3   OH227383   3.406   0.019   9.057  0.1308 -0.0614 -0.3853
 1063TIP3    H127384   3.413   0.103   9.011 -0.6980  0.0561 -0.3221
 1063TIP3    H227385   3.496  -0.013   9.063  0.6739  1.5895  1.0140
 1064TIP3   OH227386   7.155   1.939   6.742 -0.2541 -0.0497 -0.4950
 1064TIP3    H127387   7.091   2.010   6.731 -0.1504 -0.1545 -2.0278
 1064TIP3    H227388   7.239   1.978   6.718 -0.1431 -0.5819 -1.0042
 1065TIP3   OH227389   7.226   3.896   7.058 -0.6174 -0.1906 -0.0768
 1065TIP3    H127390   7.168   3.841   7.110  0.1223  1.1591  2.3439
 1065TIP3    H227391   7.181   3.980   7.052 -1.0107 -0.5050 -2.3271
 1066TIP3   OH227392   3.941   5.183   6.996 -0.6380  0.2779 -0.0725
 1066TIP3    H127393   3.874   5.123   7.027 -1.7147  0.5887 -1.6616
 1066TIP3    H227394   3.991   5.133   6.932 -0.0682  0.3821  0.2900
 1067TIP3   OH227395   3.175   4.488   8.626 -0.6984  0.3183 -0.7786
 1067TIP3    H127396   3.207   4.535   8.702 -2.5685 -1.4892  1.2865
 1067TIP3    H227397   3.083   4.470   8.646 -1.1517 -0.5665 -3.3013
 1068TIP3   OH227398   4.896   3.482   7.676  0.5406 -0.3967  1.0512
 1068TIP3    H127399   4.861   3.414   7.734  0.8692  0.4231  2.2576
 1068TIP3    H227400   4.886   3.563   7.726 -2.3533  0.9407 -1.3596
 1069TIP3   OH227401   2.976   1.862   6.794  0.6574 -0.9705  0.0624
 1069TIP3    H127402   2.896   1.854   6.846  0.0319 -0.4862 -0.7937
 1069TIP3    H227403   3.044   1.885   6.857  0.0585 -1.0878  0.7605
 1070TIP3   OH227404   5.340   4.675   7.271 -0.1620  0.3651 -0.4361
 1070TIP3    H127405   5.260   4.670   7.219 -0.0384  1.1110 -0.7149
 1070TIP3    H227406   5.381   4.588   7.261  0.7279  0.9932 -3.0277
 1071TIP3   OH227407   2.478   5.847   8.219  0.6189  0.3390 -0.1434
 1071TIP3    H127408   2.569   5.876   8.228  0.5365  0.8042 -0.7433
 1071TIP3    H227409   2.478   5.795   8.139 -0.1748  2.6589 -1.7520
 1072TIP3   OH227410   4.362   0.217   7.383 -0.0604  0.0446  0.5020
 1072TIP3    H127411   4.313   0.295   7.357  0.4519  0.6713  1.3557
 1072TIP3    H227412   4.325   0.146   7.330 -0.2756  0.9254 -0.5634
 1073TIP3   OH227413   1.225   0.349   7.621 -0.3375 -0.0220 -0.5068
 1073TIP3    H127414   1.167   0.281   7.655 -1.9464  1.2776 -0.4937
 1073TIP3    H227415   1.312   0.326   7.654 -1.1377 -1.0763  0.9713
 1074TIP3   OH227416   6.382   4.244   9.033  0.1283  0.5526 -0.2479
 1074TIP3    H127417   6.441   4.196   8.975 -1.3904 -2.4176  0.4920
 1074TIP3    H227418   6.294   4.223   9.002 -0.6666  0.5658  1.8419
 1075TIP3   OH227419   2.936   5.062   8.547 -0.2415 -0.2315  0.5485
 1075TIP3    H127420   2.977   4.997   8.489  1.8815  0.2510  1.3831
 1075TIP3    H227421   2.843   5.057   8.528  0.2857 -0.5805 -2.3921
 1076TIP3   OH227422   3.981   0.728   6.749 -0.0217  0.4874 -0.0674
 1076TIP3    H127423   3.981   0.672   6.671  0.7701  0.0879  0.2128
 1076TIP3    H227424   4.057   0.784   6.739  0.9208 -0.5276  1.0795
 1077TIP3   OH227425   5.110   2.228   7.784  0.5775 -0.7720  0.2982
 1077TIP3    H127426   5.197   2.237   7.822  0.0587  0.4426  1.2702
 1077TIP3    H227427   5.123   2.243   7.690  1.3525 -0.2261  0.4880
 1078TIP3   OH227428   1.991   1.349   8.985 -0.4033 -0.3385  0.1616
 1078TIP3    H127429   2.049   1.280   8.952  0.0072  0.5787 -1.0873
 1078TIP3    H227430   2.029   1.374   9.069  1.2867  0.5150 -0.8071
 1079TIP3   OH227431   3.320   1.543   7.512 -0.4567 -0.4852  0.2832
 1079TIP3    H127432   3.239   1.570   7.556 -0.4246 -0.6416  0.4408
 1079TIP3    H227433   3.307   1.449   7.495 -0.5803 -0.3714 -0.2802
 1080TIP3   OH227434   6.732   3.436   8.587 -0.1730  0.2645 -0.5473
 1080TIP3    H127435   6.760   3.463   8.674 -1.4171 -2.1029  0.6849
 1080TIP3    H227436   6.636   3.439   8.590 -0.2770 -1.3244 -1.2775
 1081TIP3   OH227437   2.097   0.018   9.344 -0.6991  0.0288  0.3573
 1081TIP3    H127438   2.001   0.020   9.344 -0.6970  1.4477 -0.8485
 1081TIP3    H227439   2.123   0.102   9.307  1.0106 -0.7008 -0.1903
 1082TIP3   OH227440   2.278   3.836   8.109  0.1802 -0.4405  0.5044
 1082TIP3    H127441   2.308   3.926   8.124 -1.2056 -0.0120  0.8597
 1082TIP3    H227442   2.316   3.786   8.181  0.8212 -0.1214  0.4019
 1083TIP3   OH227443   5.313   0.474   7.339 -0.3463 -0.1811  0.2637
 1083TIP3    H127444   5.354   0.393   7.310 -1.1048 -0.2680 -0.5916
 1083TIP3    H227445   5.307   0.465   7.434 -0.7335 -1.2742  0.1472
 1084TIP3   OH227446   2.321   6.111   7.662 -0.3472  0.1197 -0.3241
 1084TIP3    H127447   2.258   6.181   7.679  1.8631  2.3686 -0.8685
 1084TIP3    H227448   2.303   6.085   7.571 -0.4651  0.7861 -0.4973
 1085TIP3   OH227449   6.081   4.314   8.608 -0.2035  0.2076  0.1038
 1085TIP3    H127450   6.128   4.390   8.643  1.5954 -0.5145 -0.5966
 1085TIP3    H227451   5.997   4.350   8.579  0.5375  1.9199 -0.0885
 1086TIP3   OH227452   2.596   0.069   8.808 -0.3626 -0.3758  0.0501
 1086TIP3    H127453   2.678   0.086   8.761 -0.6073  0.7128  0.0050
 1086TIP3    H227454   2.617  -0.005   8.866  0.4153 -0.6321 -0.5420
 1087TIP3   OH227455   1.597   5.396   8.202  0.2719  0.9588  0.2989
 1087TIP3    H127456   1.648   5.393   8.121 -0.8693  0.0198 -0.4111
 1087TIP3    H227457   1.643   5.337   8.261  1.5056  2.1776  0.5999
 1088TIP3   OH227458   1.574   1.616   7.513 -0.0446 -0.0725  0.7597
 1088TIP3    H127459   1.652   1.567   7.538  0.8392  0.9343  0.0435
 1088TIP3    H227460   1.557   1.675   7.587 -0.2615 -0.4436  1.0072
 1089TIP3   OH227461   4.687   6.029   7.675 -0.2867  0.2841  0.4555
 1089TIP3    H127462   4.754   6.072   7.622  1.6964 -1.5981  1.3186
 1089TIP3    H227463   4.648   6.100   7.726  1.1724  1.4178  0.0664
 1090TIP3   OH227464   0.253   1.122   9.395 -0.0573 -0.3797 -0.3796
 1090TIP3    H127465   0.218   1.131   9.307 -2.9853  1.0949  0.7905
 1090TIP3    H227466   0.305   1.202   9.408  0.0241 -0.3918 -0.6299
 1091TIP3   OH227467   4.539   0.897   9.326  0.1942 -0.3091 -0.4429
 1091TIP3    H127468   4.589   0.820   9.356  1.8397 -0.1710 -2.6133
 1091TIP3    H227469   4.549   0.897   9.231 -0.8416  1.9133 -0.6167
 1092TIP3   OH227470   0.920   1.809   9.765 -0.1572  0.3360  0.4296
 1092TIP3    H127471   0.983   1.814   9.693 -2.3039 -3.0242 -1.9791
 1092TIP3    H227472   0.915   1.899   9.798  0.8013  2.2243 -3.8000
 1093TIP3   OH227473   0.107   1.846   7.353 -0.3302  0.4819  0.7809
 1093TIP3    H127474   0.056   1.892   7.286 -0.4500  1.3787  1.4600
 1093TIP3    H227475   0.064   1.761   7.362  0.0555  0.1065 -0.6940
 1094TIP3   OH227476   5.771   2.197   7.503  0.1750 -0.2862 -0.0811
 1094TIP3    H127477   5.720   2.144   7.564  1.7391 -0.2634  1.3195
 1094TIP3    H227478   5.713   2.211   7.428 -2.5562  1.2727  2.1405
 1095TIP3   OH227479   6.870   2.248   9.120  0.3021 -0.1954 -0.4816
 1095TIP3    H127480   6.864   2.267   9.214  1.3159 -0.4111 -0.3653
 1095TIP3    H227481   6.834   2.159   9.112 -1.3545  0.4329 -0.5622
 1096TIP3   OH227482   0.757   6.811   9.137 -0.3558 -0.2264  0.2375
 1096TIP3    H127483   0.851   6.816   9.115 -0.9001 -0.9486 -2.6419
 1096TIP3    H227484   0.723   6.897   9.115 -0.5067 -0.1641  0.6999
 1097TIP3   OH227485   3.740   5.099   8.189  0.3646  0.1262  0.0717
 1097TIP3    H127486   3.741   5.021   8.244  1.0109  2.4806  3.7513
 1097TIP3    H227487   3.832   5.119   8.173  0.3318  1.3718  1.2406
 1098TIP3   OH227488   3.863   0.439   9.219  0.3045 -0.2662  0.3492
 1098TIP3    H127489   3.842   0.425   9.127  0.2122  0.8741  0.1789
 1098TIP3    H227490   3.779   0.429   9.265  0.3633 -0.8998  0.3222
 1099TIP3   OH227491   3.808   1.798   8.008 -0.2804  0.4986  0.3270
 1099TIP3    H127492   3.777   1.798   8.098  0.4975 -0.7742  0.6123
 1099TIP3    H227493   3.902   1.783   8.014 -0.2906 -0.0675 -0.7139
 1100TIP3   OH227494   2.941   5.774   7.543 -0.0907  0.4186 -0.5445
 1100TIP3    H127495   2.973   5.689   7.513 -2.0079  0.5616 -3.4477
 1100TIP3    H227496   3.019   5.822   7.569  1.1488 -1.7942  0.0265
 1101TIP3   OH227497   4.578   3.068   8.523 -0.4592 -0.1472 -0.1080
 1101TIP3    H127498   4.662   3.104   8.550 -1.2070  1.1750  0.5803
 1101TIP3    H227499   4.595   2.975   8.507  1.4747  0.4280 -1.6624
 1102TIP3   OH227500   3.294   2.984   9.791  0.7120  0.0262 -0.2325
 1102TIP3    H127501   3.293   3.078   9.772  1.0471 -0.1189 -1.0040
 1102TIP3    H227502   3.216   2.970   9.845  0.1898  0.5991 -0.8217
 1103TIP3   OH227503   4.097   2.058   7.597 -0.0716  0.1735  0.3696
 1103TIP3    H127504   4.068   2.086   7.510  1.2429  1.3011  0.2537
 1103TIP3    H227505   4.127   2.139   7.639  1.4193 -0.6909  1.0250
 1104TIP3   OH227506   6.531   0.026   7.922  0.4244 -0.2584  0.1529
 1104TIP3    H127507   6.520  -0.005   8.012 -1.5580 -2.6136 -0.7743
 1104TIP3    H227508   6.532  -0.054   7.870 -2.8337  1.0538 -2.2721
 1105TIP3   OH227509   0.044   0.390   8.600  0.1839 -0.4369  0.2973
 1105TIP3    H127510   0.040   0.451   8.526 -0.2281  1.2317  1.6242
 1105TIP3    H227511   0.029   0.304   8.562 -1.0516  0.4908 -1.4226
 1106TIP3   OH227512   1.727   4.587   8.246  0.0266  0.3515  0.4848
 1106TIP3    H127513   1.635   4.571   8.266  0.7105 -3.0025  1.5242
 1106TIP3    H227514   1.728   4.603   8.152 -1.4645 -1.6981  0.0493
 1107TIP3   OH227515   5.055   6.324   8.163 -0.2837 -0.3820  0.4716
 1107TIP3    H127516   5.121   6.389   8.186  1.0252 -1.6903  0.5591
 1107TIP3    H227517   4.985   6.337   8.227  0.1316  0.6566  0.7360
 1108TIP3   OH227518   3.755   2.548   8.045  0.2824  0.2790 -0.3751
 1108TIP3    H127519   3.837   2.499   8.054 -0.6024 -1.0670  0.6589
 1108TIP3    H227520   3.706   2.501   7.977  0.6196  1.4940 -1.5037
 1109TIP3   OH227521   6.853   4.436   8.964 -0.0327 -0.1380  0.0668
 1109TIP3    H127522   6.908   4.513   8.951 -0.1004 -0.2482 -0.9640
 1109TIP3    H227523   6.799   4.457   9.040 -0.7481  1.2592 -0.7818
 1110TIP3   OH227524   7.533   5.092   8.943 -0.1230 -0.6565 -0.2994
 1110TIP3    H127525   7.601   5.155   8.968 -0.2882 -1.2280  1.7295
 1110TIP3    H227526   7.451   5.140   8.956 -0.2056 -0.8918  0.0385
 1111TIP3   OH227527   2.383   6.088   8.482  0.2545 -0.4015 -0.3460
 1111TIP3    H127528   2.450   6.052   8.424  0.0491 -0.4357 -0.5627
 1111TIP3    H227529   2.301   6.078   8.433  0.1237 -0.1426 -0.1791
 1112TIP3   OH227530   0.738   1.959   7.389 -1.2129  0.1349  0.5795
 1112TIP3    H127531   0.647   1.932   7.402 -1.6418  0.0629 -2.0465
 1112TIP3    H227532   0.735   2.055   7.387 -1.0015  0.1773  1.7582
 1113TIP3   OH227533   3.714   4.930   9.058  0.4828  0.2846  0.3256
 1113TIP3    H127534   3.679   4.857   9.007  0.6541  0.4267 -0.0024
 1113TIP3    H227535   3.695   5.007   9.005 -1.2733  0.6987  1.4743
 1114TIP3   OH227536   6.977   1.202   8.918  0.7990 -0.2069  0.1507
 1114TIP3    H127537   7.008   1.271   8.976 -1.1295  0.8435  0.0065
 1114TIP3    H227538   6.943   1.248   8.841 -0.9491 -1.2438  0.2396
 1115TIP3   OH227539   2.677   0.698   8.664  0.0686 -0.0163 -0.9154
 1115TIP3    H127540   2.595   0.658   8.695 -0.9956  0.4819 -2.8895
 1115TIP3    H227541   2.715   0.737   8.742 -0.9620 -1.2991  0.2904
 1116TIP3   OH227542   2.483   2.931   9.084 -0.5985 -0.0963 -0.3099
 1116TIP3    H127543   2.390   2.939   9.105 -0.2328  0.2700  1.3323
 1116TIP3    H227544   2.510   3.020   9.058 -0.2422  0.3399  1.4289
 1117TIP3   OH227545   2.973   0.471   8.751  0.7663 -0.1529  0.1198
 1117TIP3    H127546   2.905   0.455   8.816  1.7797  0.1190  1.2947
 1117TIP3    H227547   2.996   0.563   8.764  1.7071 -0.3775  0.1142
 1118TIP3   OH227548   0.298   3.909   9.142 -0.4770  0.6181 -0.3257
 1118TIP3    H127549   0.319   3.816   9.153 -1.3231  0.1794 -2.0788
 1118TIP3    H227550   0.208   3.917   9.174  0.4116  1.4252  2.2494
 1119TIP3   OH227551   4.237   5.196   8.784 -0.1835  0.4112  0.3909
 1119TIP3    H127552   4.199   5.147   8.857 -0.5960  1.7574  1.1120
 1119TIP3    H227553   4.167   5.253   8.754  0.3740  0.7857 -0.2299
 1120TIP3   OH227554   4.136   6.358   8.714  0.1043  0.0674  0.1414
 1120TIP3    H127555   4.080   6.420   8.762  1.6344  1.4034  0.2693
 1120TIP3    H227556   4.225   6.381   8.741  0.7874 -1.3999 -0.7748
 1121TIP3   OH227557   0.340   3.369   7.993  0.3066 -0.1607  0.2396
 1121TIP3    H127558   0.299   3.393   8.077  1.0357  1.9876  0.0425
 1121TIP3    H227559   0.305   3.433   7.931  1.3927 -0.4032 -0.6396
 1122TIP3   OH227560   3.048   1.080   6.939  0.7425  0.0186  0.3828
 1122TIP3    H127561   3.003   1.143   6.882 -0.1384 -0.5898  0.3909
 1122TIP3    H227562   2.977   1.036   6.986  1.3898 -0.4918  0.8876
 1123TIP3   OH227563   4.522   7.564   8.492  0.0489  0.2714 -0.0545
 1123TIP3    H127564   4.468   7.609   8.427  1.1043 -0.6700 -1.6425
 1123TIP3    H227565   4.511   7.471   8.472  1.4197  0.0172  0.2575
 1124TIP3   OH227566   0.054   6.305   9.142 -0.2795  0.8393  0.1464
 1124TIP3    H127567  -0.039   6.292   9.122 -0.6438  0.5494  1.8845
 1124TIP3    H227568   0.065   6.400   9.140 -0.9324  0.9509  1.1678
 1125TIP3   OH227569   3.297   7.405   8.583 -0.1920  0.1374 -0.4961
 1125TIP3    H127570   3.203   7.413   8.595 -0.1467 -0.0250 -0.0293
 1125TIP3    H227571   3.336   7.459   8.652  0.1194 -3.6945  2.6889
 1126TIP3   OH227572   2.858   0.781   8.260  0.0958  0.1147  0.2689
 1126TIP3    H127573   2.829   0.731   8.184  0.5190 -0.0178  0.1905
 1126TIP3    H227574   2.777   0.809   8.303 -0.1732 -1.9309  1.1687
 1127TIP3   OH227575   7.030   2.200   7.163 -0.1534 -0.1215 -0.2137
 1127TIP3    H127576   6.972   2.270   7.133 -0.9602 -1.0864 -0.9640
 1127TIP3    H227577   7.097   2.194   7.094  0.9312  1.0459  0.6898
 1128TIP3   OH227578   0.672   4.412   7.688 -0.0792 -0.0076  0.1944
 1128TIP3    H127579   0.665   4.343   7.754  2.1777  0.8590  1.4359
 1128TIP3    H227580   0.764   4.411   7.661 -0.0387  2.2872  0.0315
 1129TIP3   OH227581   2.948   5.040   7.695 -0.1388 -0.1495 -0.0501
 1129TIP3    H127582   3.004   5.118   7.699 -1.1465  0.5594  2.5245
 1129TIP3    H227583   3.007   4.967   7.710  0.2501  0.5414  2.0943
 1130TIP3   OH227584   6.841   2.827   7.816  0.0757  0.1200 -0.2408
 1130TIP3    H127585   6.917   2.881   7.839  0.0084  0.8589 -1.6205
 1130TIP3    H227586   6.861   2.741   7.853  1.5751  0.3145 -0.5299
 1131TIP3   OH227587   2.064   1.312   6.988 -0.0046 -0.1474 -0.0705
 1131TIP3    H127588   2.041   1.227   6.951 -0.8459  0.4561 -0.9636
 1131TIP3    H227589   2.134   1.345   6.932  0.5575 -0.3761  0.4760
 1132TIP3   OH227590   3.116   1.685   8.082 -0.3389  0.1990  0.0933
 1132TIP3    H127591   3.193   1.716   8.034  0.3997 -2.7840 -0.8989
 1132TIP3    H227592   3.075   1.621   8.023 -2.2625 -0.0130  1.5334
 1133TIP3   OH227593   5.892   1.609   7.506  0.5889  0.1244 -0.3775
 1133TIP3    H127594   5.970   1.643   7.461  0.9735 -0.5811 -0.2636
 1133TIP3    H227595   5.828   1.679   7.499  0.6726  0.0715 -1.9449
 1134TIP3   OH227596   2.659   2.910   6.705  0.6589 -0.8471 -0.1126
 1134TIP3    H127597   2.613   2.947   6.629 -1.6499 -3.1492 -0.0010
 1134TIP3    H227598   2.751   2.933   6.691  0.0986  0.2051 -2.7391
 1135TIP3   OH227599   0.438   3.985   7.750  0.7209  0.1572  0.1656
 1135TIP3    H127600   0.422   3.925   7.823  1.1872  1.0857  1.0539
 1135TIP3    H227601   0.382   4.060   7.768 -0.0776 -0.0927 -1.0916
 1136TIP3   OH227602   6.631   7.097   9.219 -0.2785  0.4181  0.0902
 1136TIP3    H127603   6.569   7.114   9.147  1.7525  0.0065 -1.8526
 1136TIP3    H227604   6.624   7.175   9.274 -1.6581  0.9154 -0.7226
 1137TIP3   OH227605   4.635   5.140   7.977  0.1301  0.1082  0.0179
 1137TIP3    H127606   4.669   5.218   7.933  0.7418 -0.0180  0.2598
 1137TIP3    H227607   4.652   5.155   8.070 -0.0511 -0.1712  0.0985
 1138TIP3   OH227608   4.295   0.268   9.121 -0.4462  0.1737 -0.3490
 1138TIP3    H127609   4.233   0.324   9.167  0.3486  1.1500 -0.4265
 1138TIP3    H227610   4.330   0.324   9.051  1.0583 -0.0948  0.1504
 1139TIP3   OH227611   1.794   3.455   6.808  0.0435  0.4361  0.5159
 1139TIP3    H127612   1.879   3.465   6.766  0.1734  1.4357  0.9873
 1139TIP3    H227613   1.731   3.482   6.742  0.0603 -0.5929  0.0639
 1140TIP3   OH227614   5.941   6.292   8.807 -0.4906  0.0787 -0.2570
 1140TIP3    H127615   5.911   6.254   8.890  0.5357  1.2355  0.6867
 1140TIP3    H227616   5.869   6.348   8.779 -0.2796  0.8096  0.6269
 1141TIP3   OH227617   7.322   2.872   8.720 -0.2567  0.7324 -0.1901
 1141TIP3    H127618   7.243   2.882   8.773  0.2685  1.4723  0.4758
 1141TIP3    H227619   7.391   2.854   8.784  0.1867  0.5182 -0.7286
 1142TIP3   OH227620   5.219   3.659   7.962 -0.5656 -0.4753  0.3908
 1142TIP3    H127621   5.161   3.695   7.896 -3.4356 -1.1150  2.3681
 1142TIP3    H227622   5.202   3.565   7.961  1.8352 -0.9674 -0.1597
 1143TIP3   OH227623   0.166   0.439   9.288 -0.9149 -0.9069 -0.4618
 1143TIP3    H127624   0.071   0.452   9.294 -1.1917 -0.6154 -3.6222
 1143TIP3    H227625   0.186   0.449   9.194  2.4876  0.6443  0.2484
 1144TIP3   OH227626   6.245   3.637   7.751 -0.4067  0.3668  0.2269
 1144TIP3    H127627   6.265   3.556   7.705 -2.8927 -0.3306  0.2303
 1144TIP3    H227628   6.161   3.620   7.795  0.3565  2.0207  2.5419
 1145TIP3   OH227629   4.884   3.138   8.888 -0.5960 -0.0186 -0.3300
 1145TIP3    H127630   4.942   3.092   8.948 -1.2402  1.0054  1.1188
 1145TIP3    H227631   4.796   3.118   8.919 -0.9168  1.2755 -0.3500
 1146TIP3   OH227632   5.871   4.253   8.792 -0.6528 -0.3598 -0.2565
 1146TIP3    H127633   5.805   4.310   8.831 -0.5426 -0.0014 -0.5783
 1146TIP3    H227634   5.866   4.273   8.698 -0.6853 -0.9598 -0.3847
 1147TIP3   OH227635   6.070   5.583   6.977 -0.0060 -0.7377  0.0698
 1147TIP3    H127636   6.032   5.542   6.900  2.6124 -1.6005 -0.8785
 1147TIP3    H227637   6.111   5.663   6.944 -1.5900  0.6210  1.2071
 1148TIP3   OH227638   2.712   2.982   8.299 -0.6947  0.2214 -0.7347
 1148TIP3    H127639   2.760   3.064   8.289  1.0389 -0.6093  0.4832
 1148TIP3    H227640   2.725   2.936   8.216 -2.8609  1.6905 -2.0042
 1149TIP3   OH227641   3.749   7.178   7.241 -0.3125  0.0495 -0.4621
 1149TIP3    H127642   3.673   7.201   7.188 -0.1640 -0.2647 -0.8211
 1149TIP3    H227643   3.750   7.242   7.312 -1.8928 -0.9866  0.5387
 1150TIP3   OH227644   3.943   1.182   9.101 -0.5262  0.1519 -0.2049
 1150TIP3    H127645   3.875   1.206   9.163  0.7085  1.1432  0.8283
 1150TIP3    H227646   3.912   1.101   9.060 -1.2591 -0.6808  1.8864
 1151TIP3   OH227647   4.460   4.056   7.329 -0.6311 -0.2385  0.0970
 1151TIP3    H127648   4.461   4.106   7.247  0.5796  0.0412  0.2585
 1151TIP3    H227649   4.549   4.066   7.364 -0.4346 -2.2731  0.2943
 1152TIP3   OH227650   0.064   5.085   8.092 -0.2293 -0.4824 -0.3310
 1152TIP3    H127651   0.001   5.146   8.055  0.2407 -0.1911 -0.6626
 1152TIP3    H227652   0.087   5.027   8.020  2.8920  1.8548 -1.4565
 1153TIP3   OH227653   2.620   0.825   9.510 -0.0514 -0.1540 -0.1016
 1153TIP3    H127654   2.584   0.745   9.548  0.7772 -1.0467 -1.1367
 1153TIP3    H227655   2.545   0.868   9.469 -0.4661 -0.5030  0.2815
 1154TIP3   OH227656   2.401   2.252   8.223 -0.4578 -0.7900 -0.0860
 1154TIP3    H127657   2.358   2.256   8.138 -1.6032 -0.1339  0.4983
 1154TIP3    H227658   2.375   2.168   8.259 -0.2463 -0.9251 -0.2508
 1155TIP3   OH227659   4.414   2.435   8.620  0.3039  0.1701  0.0182
 1155TIP3    H127660   4.336   2.391   8.653  0.1929  1.7250  1.9923
 1155TIP3    H227661   4.410   2.424   8.525 -2.4498  0.4235  0.0370
 1156TIP3   OH227662   0.721   0.630   7.347 -0.1718 -0.5688 -0.3247
 1156TIP3    H127663   0.670   0.700   7.307  1.1591 -0.0782 -1.2413
 1156TIP3    H227664   0.704   0.638   7.441  1.4041  2.2702 -0.1675
 1157TIP3   OH227665   4.105   0.435   8.946 -0.0918 -0.4856 -0.4145
 1157TIP3    H127666   4.199   0.448   8.933  0.4880 -1.1573  2.4034
 1157TIP3    H227667   4.070   0.523   8.962 -0.0077 -0.2189 -1.5996
 1158TIP3   OH227668   6.835   1.139   6.631 -0.3120  0.1545  0.1562
 1158TIP3    H127669   6.773   1.149   6.558  0.5678 -0.0470 -0.6376
 1158TIP3    H227670   6.837   1.044   6.647 -0.1762  0.1536  0.1379
 1159TIP3   OH227671   2.487   7.529   9.341 -0.2033  0.2185 -0.2911
 1159TIP3    H127672   2.429   7.488   9.405 -0.0787 -2.4485 -1.7415
 1159TIP3    H227673   2.428   7.570   9.278 -0.4205  0.0119 -0.2221
 1160TIP3   OH227674   5.570   5.003   7.796  0.1245  1.1184  0.4774
 1160TIP3    H127675   5.559   4.983   7.889 -0.7512  0.4926  0.2524
 1160TIP3    H227676   5.485   4.984   7.757  0.5508  1.1401 -0.4991
 1161TIP3   OH227677   1.224   5.482   8.675  0.0295  0.3214 -0.4406
 1161TIP3    H127678   1.211   5.413   8.740  2.7491  1.7828  1.8832
 1161TIP3    H227679   1.211   5.563   8.724  2.0085  1.4883 -1.7249
 1162TIP3   OH227680   0.934   4.544   6.693 -0.1782 -0.2760 -0.0933
 1162TIP3    H127681   0.868   4.609   6.669 -0.1933 -0.8400 -1.7329
 1162TIP3    H227682   1.017   4.592   6.688 -0.2855 -0.0848 -0.0742
 1163TIP3   OH227683   1.474   1.449   7.319  0.0206 -0.2240 -0.0039
 1163TIP3    H127684   1.505   1.524   7.369  0.1239  0.6638 -1.3310
 1163TIP3    H227685   1.525   1.375   7.351  0.5712  0.4504  0.6986
 1164TIP3   OH227686   5.540   5.413   7.321 -0.5995  0.0021  0.0154
 1164TIP3    H127687   5.453   5.381   7.348 -1.0585  0.5382 -0.8130
 1164TIP3    H227688   5.565   5.473   7.391 -1.5345  0.9456 -0.4348
 1165TIP3   OH227689   1.775   1.891   9.345  0.0521  0.0604  0.2378
 1165TIP3    H127690   1.693   1.845   9.359  0.4883 -0.8326 -0.0602
 1165TIP3    H227691   1.817   1.893   9.431 -0.7860  1.5717  0.6543
 1166TIP3   OH227692   3.651   2.777   9.314  0.2333 -0.9205  0.3824
 1166TIP3    H127693   3.617   2.866   9.327  0.9116 -0.8154  1.5519
 1166TIP3    H227694   3.648   2.738   9.401  0.9180 -1.7017  0.0616
 1167TIP3   OH227695   0.785   6.139   8.781  0.0835 -0.5244 -0.3281
 1167TIP3    H127696   0.689   6.147   8.778  0.0583 -1.0826 -1.2181
 1167TIP3    H227697   0.813   6.145   8.690  1.0405  1.1061  0.0366
 1168TIP3   OH227698   0.463   7.498   8.198  0.4829  0.1276 -0.6592
 1168TIP3    H127699   0.536   7.518   8.139 -0.4128  0.8641 -1.5724
 1168TIP3    H227700   0.421   7.583   8.214 -0.5071 -0.3459 -0.6172
 1169TIP3   OH227701   3.282   5.102   7.897 -0.4420  0.1885  0.1666
 1169TIP3    H127702   3.367   5.132   7.929 -1.0981  1.0870  1.1109
 1169TIP3    H227703   3.289   5.006   7.901  0.8390  0.2206 -0.6456
 1170TIP3   OH227704   6.147   0.345   8.445 -0.1177 -0.2446 -0.5387
 1170TIP3    H127705   6.114   0.270   8.396  0.3149 -1.0784  0.4176
 1170TIP3    H227706   6.079   0.412   8.434 -1.4959 -1.4408  0.2128
 1171TIP3   OH227707   5.250   1.466   7.184  0.6901 -0.0958 -0.8581
 1171TIP3    H127708   5.172   1.413   7.166 -0.5319  1.8116 -1.4675
 1171TIP3    H227709   5.253   1.530   7.113  2.4443  0.3257 -0.4647
 1172TIP3   OH227710   3.351   6.512   9.086 -0.2699  0.2185  0.2643
 1172TIP3    H127711   3.266   6.556   9.081 -0.6228 -0.1817  1.9125
 1172TIP3    H227712   3.391   6.546   9.166  0.5657 -0.5534  0.1933
 1173TIP3   OH227713   4.543   3.902   8.819 -0.1368 -0.0230 -0.1519
 1173TIP3    H127714   4.599   3.844   8.768 -1.7895 -4.0526  2.1189
 1173TIP3    H227715   4.463   3.910   8.767 -1.0955 -2.5716  0.7643
 1174TIP3   OH227716   0.921   0.836   8.093  0.0331 -0.2996 -0.0422
 1174TIP3    H127717   0.916   0.923   8.135 -2.9758 -0.5014  0.2054
 1174TIP3    H227718   0.967   0.852   8.011  1.8332  0.9975  1.1275
 1175TIP3   OH227719   3.990   5.891   6.675  0.3124 -0.0852  0.1403
 1175TIP3    H127720   4.030   5.978   6.669  0.7970 -0.2246  1.2436
 1175TIP3    H227721   4.004   5.853   6.588 -0.1399  1.0314 -0.4342
 1176TIP3   OH227722   4.669   7.514   8.742  0.6579 -0.5739 -0.2707
 1176TIP3    H127723   4.637   7.527   8.652 -0.2166 -0.9255 -0.0238
 1176TIP3    H227724   4.764   7.506   8.733  0.7348  0.7785 -1.0066
 1177TIP3   OH227725   0.983   0.896   9.757  0.4018 -0.2754  0.2210
 1177TIP3    H127726   0.922   0.925   9.689 -0.0783 -0.2195  0.6691
 1177TIP3    H227727   0.927   0.861   9.826  0.7507  1.6289  1.5509
 1178TIP3   OH227728   5.697   2.097   8.331  0.3267 -0.5739 -0.0688
 1178TIP3    H127729   5.707   2.185   8.367 -1.2293 -0.6036  0.4988
 1178TIP3    H227730   5.603   2.085   8.322  0.3626 -2.9385  1.8040
 1179TIP3   OH227731   7.035   1.054   8.065 -0.4364 -0.1378  0.1674
 1179TIP3    H127732   6.952   1.100   8.053 -0.3974 -0.2520 -0.5794
 1179TIP3    H227733   7.081   1.104   8.132 -1.8257 -1.0546  1.8844
 1180TIP3   OH227734   1.616   2.373   6.571 -0.0854 -0.0801  0.5897
 1180TIP3    H127735   1.561   2.333   6.638 -1.1104 -1.3315 -0.9303
 1180TIP3    H227736   1.635   2.302   6.510  1.0815  0.9464 -0.2940
 1181TIP3   OH227737   6.755   0.631   9.651  0.1132  0.1133  0.5431
 1181TIP3    H127738   6.790   0.670   9.571 -0.9412 -0.9255 -0.4758
 1181TIP3    H227739   6.815   0.659   9.720  0.7245  1.5222 -0.5048
 1182TIP3   OH227740   1.850   4.410   6.973 -0.0746  0.2597  0.3177
 1182TIP3    H127741   1.904   4.343   6.931  0.6689 -0.1495  1.8522
 1182TIP3    H227742   1.781   4.429   6.910  1.8100  0.7648 -1.6974
 1183TIP3   OH227743   6.574   6.579   7.810  0.3079 -0.5045 -0.5770
 1183TIP3    H127744   6.563   6.664   7.767  1.7666  0.1143  0.1843
 1183TIP3    H227745   6.635   6.532   7.753  1.0118 -0.2753 -0.0407
 1184TIP3   OH227746   5.757   5.888   7.937 -0.1296  0.2977 -0.3410
 1184TIP3    H127747   5.808   5.810   7.916  0.1051 -0.3162  2.1316
 1184TIP3    H227748   5.820   5.960   7.933  0.2409 -0.0153 -0.1990
 1185TIP3   OH227749   0.152   2.187   7.844 -0.4880  0.0285  0.5571
 1185TIP3    H127750   0.163   2.154   7.755 -0.1109 -0.2528  0.7056
 1185TIP3    H227751   0.241   2.192   7.878 -0.4328  1.8781  0.2946
 1186TIP3   OH227752   2.566   4.453   8.694  0.2458  0.4423 -0.2855
 1186TIP3    H127753   2.477   4.422   8.677  0.6688 -0.4543 -0.9858
 1186TIP3    H227754   2.612   4.440   8.611  0.5718  2.6652 -0.5031
 1187TIP3   OH227755   1.583   0.488   9.153 -0.1889 -0.8919  0.6598
 1187TIP3    H127756   1.650   0.549   9.185  0.6495  0.1896 -2.6397
 1187TIP3    H227757   1.502   0.538   9.159  0.1030 -0.3510  0.2922
 1188TIP3   OH227758   6.970   2.023   8.495  0.2601  0.8069 -0.5387
 1188TIP3    H127759   6.915   1.960   8.542  1.7546  0.9171  1.5063
 1188TIP3    H227760   6.938   2.109   8.523  1.1044  0.8736  0.2780
 1189TIP3   OH227761   0.701   4.648   7.849  0.2017  0.5151 -0.1770
 1189TIP3    H127762   0.704   4.721   7.787 -1.0486  1.9409  1.3502
 1189TIP3    H227763   0.679   4.572   7.796  2.0938  1.0755 -1.9149
 1190TIP3   OH227764   2.466   3.029   6.517 -0.4789 -0.9281 -0.4087
 1190TIP3    H127765   2.409   2.970   6.468  0.0458 -2.0139  0.2553
 1190TIP3    H227766   2.411   3.104   6.539 -0.9820 -0.8776 -1.8033
 1191TIP3   OH227767   1.502   5.162   8.667 -0.8128  0.0611  0.6877
 1191TIP3    H127768   1.444   5.087   8.656 -0.5470  0.0358 -0.7228
 1191TIP3    H227769   1.556   5.140   8.743 -2.4224 -0.0364  1.8507
 1192TIP3   OH227770   2.189   5.462   8.487 -0.3625  0.3516 -0.3529
 1192TIP3    H127771   2.239   5.408   8.548  0.0482 -0.3394 -1.2713
 1192TIP3    H227772   2.224   5.550   8.499 -0.4463  0.2672  0.5601
 1193TIP3   OH227773   7.185   2.041   8.671 -0.0967 -0.2365 -0.4290
 1193TIP3    H127774   7.100   2.045   8.626 -0.5623 -1.8131  0.2752
 1193TIP3    H227775   7.163   2.038   8.764  0.6254 -2.6624 -0.2933
 1194TIP3   OH227776   3.170   1.008   9.343  0.3916  0.6153  0.1602
 1194TIP3    H127777   3.076   1.011   9.363  0.8249  1.9133  2.3405
 1194TIP3    H227778   3.201   1.097   9.363  1.8648  0.6117 -1.8675
 1195TIP3   OH227779   1.348   5.944   9.212  0.0010  0.0868 -0.7326
 1195TIP3    H127780   1.259   5.978   9.203 -0.0165  0.6194  1.0485
 1195TIP3    H227781   1.387   5.955   9.125 -1.4552  0.4495 -1.3675
 1196TIP3   OH227782   3.612   2.808   8.433 -0.2849  0.1917 -0.1063
 1196TIP3    H127783   3.683   2.824   8.495  1.2297 -0.5308 -1.5615
 1196TIP3    H227784   3.631   2.721   8.397 -1.7783  0.0994 -0.7451
 1197TIP3   OH227785   4.477   2.819   8.827  0.1796 -0.2823 -0.8724
 1197TIP3    H127786   4.416   2.893   8.823 -0.8485 -1.0076  0.4682
 1197TIP3    H227787   4.552   2.853   8.875 -0.2168 -0.0458 -0.4077
 1198TIP3   OH227788   7.109   3.230   9.458  0.3428  0.0498  0.2426
 1198TIP3    H127789   7.084   3.234   9.551 -2.6661 -1.8422 -0.3457
 1198TIP3    H227790   7.100   3.138   9.435  1.6287  0.3889 -1.8275
 1199TIP3   OH227791   1.795   4.490   9.264 -0.1235  0.0075 -0.2190
 1199TIP3    H127792   1.885   4.462   9.282 -0.2026 -1.6507 -2.1053
 1199TIP3    H227793   1.800   4.586   9.264  2.0739 -0.0111 -2.0441
 1200TIP3   OH227794   3.421   5.242   9.102  0.1900 -0.2457  0.2784
 1200TIP3    H127795   3.361   5.269   9.171 -0.0398  0.7453 -0.2866
 1200TIP3    H227796   3.382   5.162   9.065 -1.7187  1.2563 -1.1676
 1201TIP3   OH227797   0.352   7.569   7.484 -0.1211  0.3687 -0.8162
 1201TIP3    H127798   0.365   7.523   7.566  3.4843  0.9793 -0.8722
 1201TIP3    H227799   0.398   7.516   7.419 -0.3392  1.4106 -1.8620
 1202TIP3   OH227800   2.705   1.934   7.730  0.2178  0.3225  0.3071
 1202TIP3    H127801   2.754   2.015   7.747 -1.1628  0.6011  4.0221
 1202TIP3    H227802   2.709   1.886   7.813 -2.0273 -1.7027 -0.6371
 1203TIP3   OH227803   4.195   1.560   7.919 -0.2406 -0.2382 -0.1725
 1203TIP3    H127804   4.143   1.488   7.954  0.6275 -1.4542 -1.3235
 1203TIP3    H227805   4.286   1.530   7.926  0.2475  1.2895  0.5286
 1204TIP3   OH227806   4.909   4.869   9.152 -0.1935 -0.8874  0.3299
 1204TIP3    H127807   4.854   4.801   9.191 -0.9454 -0.8604 -0.6437
 1204TIP3    H227808   4.976   4.820   9.104  0.0220 -0.9244  0.6640
 1205TIP3   OH227809   0.487   3.913   8.048  0.0906  0.0255  0.6528
 1205TIP3    H127810   0.577   3.942   8.030  0.0466  1.1443  2.0216
 1205TIP3    H227811   0.488   3.820   8.027  0.8395  0.5221 -1.8451
 1206TIP3   OH227812   2.185   1.009   8.286  0.7204 -0.2778 -0.5609
 1206TIP3    H127813   2.275   1.031   8.310  1.0766  0.7058 -2.5495
 1206TIP3    H227814   2.131   1.064   8.342  1.4492  0.8965 -0.9623
 1207TIP3   OH227815   4.179   6.787   7.433  0.7325  0.3600  0.1736
 1207TIP3    H127816   4.118   6.796   7.360 -0.3181 -1.1204  0.8172
 1207TIP3    H227817   4.249   6.730   7.400 -1.3274 -2.9953  1.1308
 1208TIP3   OH227818   2.704   7.646   7.882 -0.6638  0.1475  0.3346
 1208TIP3    H127819   2.744   7.634   7.968  0.1681  3.4406  0.5531
 1208TIP3    H227820   2.610   7.636   7.897 -0.5295  0.7118  1.6702
 1209TIP3   OH227821   4.312   3.441   8.648 -0.4744  0.6951 -0.3542
 1209TIP3    H127822   4.270   3.495   8.714  2.9275  1.2989  1.5819
 1209TIP3    H227823   4.343   3.503   8.582 -1.9161  0.3263 -1.4297
 1210TIP3   OH227824   7.361   1.553   9.481 -0.0686 -0.1105  0.0872
 1210TIP3    H127825   7.329   1.631   9.527 -0.6186  0.1867 -0.7744
 1210TIP3    H227826   7.406   1.502   9.549 -3.6583 -1.3417  1.8262
 1211TIP3   OH227827   4.692   6.259   8.423 -0.0812 -0.0408  0.2631
 1211TIP3    H127828   4.679   6.308   8.505 -0.4161 -0.5169  0.5012
 1211TIP3    H227829   4.761   6.307   8.377  1.4974 -0.8138  1.6859
 1212TIP3   OH227830   6.006   2.464   8.852  0.1107  0.1980  0.2921
 1212TIP3    H127831   5.931   2.522   8.868 -0.6925 -0.3925 -1.1216
 1212TIP3    H227832   6.029   2.480   8.760  1.4702  0.0770  0.6029
 1213TIP3   OH227833   4.739   2.547   7.590 -0.1733 -0.4307 -0.3662
 1213TIP3    H127834   4.660   2.591   7.620 -0.5956 -1.6886  0.4202
 1213TIP3    H227835   4.720   2.521   7.500  0.0813  0.9431 -0.8440
 1214TIP3   OH227836   3.162   2.320   6.919 -0.1356  0.5246 -0.0551
 1214TIP3    H127837   3.075   2.320   6.958 -0.8804  1.4749 -1.5829
 1214TIP3    H227838   3.161   2.248   6.855  0.0989  0.7069 -0.2705
 1215TIP3   OH227839   3.064   1.675   7.577 -0.2553 -0.0811 -0.2676
 1215TIP3    H127840   2.992   1.707   7.523 -2.2748 -0.8880  1.7992
 1215TIP3    H227841   3.041   1.584   7.596 -0.4983  0.5580  3.1356
 1216TIP3   OH227842   1.646   2.616   6.714 -0.2886 -0.0414 -0.3965
 1216TIP3    H127843   1.584   2.654   6.777  0.4683 -0.6999  0.7754
 1216TIP3    H227844   1.596   2.547   6.671 -0.3773 -0.6202  0.5979
 1217TIP3   OH227845   0.497   5.821   7.594 -0.0664  0.2074 -0.9407
 1217TIP3    H127846   0.572   5.811   7.651 -0.6267  1.5329  0.0549
 1217TIP3    H227847   0.460   5.732   7.589  0.3576 -0.0542  0.2258
 1218TIP3   OH227848   7.648   1.852   9.359  0.4812 -0.4343  0.0689
 1218TIP3    H127849   7.697   1.933   9.369  0.4868 -0.4021 -0.2091
 1218TIP3    H227850   7.711   1.790   9.322  0.1733 -0.2356 -0.8251
 1219TIP3   OH227851   3.136   3.370   8.926 -0.4227 -0.4930  0.6629
 1219TIP3    H127852   3.131   3.362   9.021 -0.3628 -1.2304  0.6111
 1219TIP3    H227853   3.219   3.327   8.903 -0.3139 -0.0984  0.2977
 1220TIP3   OH227854   0.122   6.765   8.499 -0.0083 -0.0786 -0.4364
 1220TIP3    H127855   0.184   6.703   8.536  0.8740  0.5937 -0.7691
 1220TIP3    H227856   0.116   6.741   8.407  0.3187  0.3179 -0.5612
 1221TIP3   OH227857   0.246   1.473   8.535 -0.0414 -0.3880  0.1609
 1221TIP3    H127858   0.158   1.476   8.498 -0.1129 -0.0311  0.3589
 1221TIP3    H227859   0.289   1.552   8.503  0.8566 -1.4970 -1.5237
 1222TIP3   OH227860   3.238   1.731   9.071 -0.6193  0.1804  0.3405
 1222TIP3    H127861   3.222   1.822   9.095  0.0832  0.6031 -0.7261
 1222TIP3    H227862   3.247   1.732   8.976  1.1411 -0.7090  0.4517
 1223TIP3   OH227863   2.946   6.061   9.355  0.3499 -0.2027 -0.0178
 1223TIP3    H127864   2.874   6.104   9.308  0.4433 -0.8835 -0.7957
 1223TIP3    H227865   3.021   6.119   9.341 -0.1127  0.7307  1.1452
 1224TIP3   OH227866   7.044   7.127   8.892  0.3538 -0.1860  0.6407
 1224TIP3    H127867   7.063   7.195   8.956 -0.9070  0.1512  0.6774
 1224TIP3    H227868   7.116   7.065   8.901  0.4131  0.0557  2.1112
 1225TIP3   OH227869   5.724   2.584   7.456  0.2519 -0.9537  0.1272
 1225TIP3    H127870   5.737   2.578   7.551 -2.1075  2.7149  0.8849
 1225TIP3    H227871   5.643   2.536   7.441 -0.7565  0.5360  0.5151
 1226TIP3   OH227872   4.778   0.734   8.779  0.0199 -0.1438  0.3821
 1226TIP3    H127873   4.767   0.733   8.684 -1.6203  0.0184  0.5405
 1226TIP3    H227874   4.840   0.804   8.796 -0.4440  0.4941 -0.5177
 1227TIP3   OH227875   2.962   6.734   7.036  0.4253 -0.1709  0.0318
 1227TIP3    H127876   2.954   6.825   7.008 -0.0895 -0.3682 -0.4881
 1227TIP3    H227877   2.873   6.709   7.062 -0.4546 -1.7822 -3.8331
 1228TIP3   OH227878   1.602   1.060   8.849 -0.3866  0.1062 -0.0222
 1228TIP3    H127879   1.509   1.074   8.868 -0.2665  0.2418  0.4812
 1228TIP3    H227880   1.603   1.026   8.759 -0.9950 -0.8756  0.3220
 1229TIP3   OH227881   0.864   2.046   8.419  0.7764 -0.9168  0.1591
 1229TIP3    H127882   0.838   2.024   8.329 -0.0180 -2.3168  0.7038
 1229TIP3    H227883   0.849   1.966   8.469 -1.2511  0.5441  2.0800
 1230TIP3   OH227884   0.684   4.066   7.690 -0.1002 -0.5117 -0.1285
 1230TIP3    H127885   0.593   4.052   7.713 -0.1611 -0.6650 -0.4542
 1230TIP3    H227886   0.729   4.075   7.774 -0.5151  0.2260  0.0193
 1231TIP3   OH227887   2.407   4.531   7.940 -0.0192  0.1365 -0.8679
 1231TIP3    H127888   2.343   4.591   7.901 -0.8222  0.7090  1.1746
 1231TIP3    H227889   2.354   4.457   7.969  0.1503  0.7121  1.0368
 1232TIP3   OH227890   5.161   4.086   8.653  0.0703 -0.2703  0.1410
 1232TIP3    H127891   5.171   4.056   8.744  0.8233 -0.6091 -0.0431
 1232TIP3    H227892   5.068   4.073   8.634  0.1859 -1.6377  0.3840
 1233TIP3   OH227893   6.374   5.465   7.906 -0.4317 -0.6533  0.0780
 1233TIP3    H127894   6.344   5.421   7.985 -0.1147  0.3523  0.7716
 1233TIP3    H227895   6.425   5.398   7.860 -0.2472 -1.1177  0.9326
 1234TIP3   OH227896   3.570   7.574   7.551  0.0595  0.5119  0.2890
 1234TIP3    H127897   3.477   7.569   7.575  0.0528 -0.2918  0.1137
 1234TIP3    H227898   3.614   7.600   7.632 -0.1284 -0.8008  0.8382
 1235TIP3   OH227899   6.486   5.580   7.581 -0.4132 -0.9134 -0.2883
 1235TIP3    H127900   6.468   5.647   7.647 -0.1235 -2.6285  1.6217
 1235TIP3    H227901   6.400   5.547   7.555 -0.4887 -2.2081  1.4360
 1236TIP3   OH227902   7.001   4.714   8.601  0.4897 -0.0255 -0.1522
 1236TIP3    H127903   6.921   4.703   8.549  1.3036  0.7870 -1.6453
 1236TIP3    H227904   7.047   4.630   8.591  1.3867  0.6308 -2.1572
 1237TIP3   OH227905   7.651   3.872   8.273  0.0737 -0.2060  0.8392
 1237TIP3    H127906   7.699   3.840   8.197  1.0695 -0.7755  1.6785
 1237TIP3    H227907   7.660   3.967   8.270 -2.1856  0.0499 -1.2110
 1238TIP3   OH227908   1.105   7.215   9.659 -0.2072  0.0925 -0.1753
 1238TIP3    H127909   1.101   7.230   9.565  1.0187  0.1665 -0.2313
 1238TIP3    H227910   1.109   7.119   9.668 -0.2278  0.0893 -0.1998
 1239TIP3   OH227911   1.330   6.719   9.025  0.5162  0.0227  0.0658
 1239TIP3    H127912   1.405   6.717   9.085  0.4014  3.2371  0.4958
 1239TIP3    H227913   1.369   6.718   8.938  1.2176  2.2159  0.2844
 1240TIP3   OH227914   6.927   4.516   8.077 -0.3337 -0.8903 -0.3998
 1240TIP3    H127915   6.969   4.488   8.159  1.3858  1.4872 -0.3582
 1240TIP3    H227916   6.845   4.555   8.105  0.1776 -0.2215  0.1999
 1241TIP3   OH227917   1.672   7.151   8.325  0.0052  0.3450  0.1132
 1241TIP3    H127918   1.606   7.163   8.257 -0.2922 -1.2901  0.0639
 1241TIP3    H227919   1.749   7.198   8.293  0.3399 -1.5387 -2.0759
 1242TIP3   OH227920   6.750   3.188   8.443  0.0402 -0.5036  0.7823
 1242TIP3    H127921   6.762   3.094   8.458 -1.3880 -1.2705 -2.0622
 1242TIP3    H227922   6.658   3.204   8.463  0.4066  0.4472  1.7737
 1243TIP3   OH227923   6.461   0.619   8.989  0.3324 -0.0767 -0.4869
 1243TIP3    H127924   6.490   0.602   9.078  0.3605  0.2110 -0.4393
 1243TIP3    H227925   6.373   0.656   8.999  1.0190  1.6427 -0.4651
 1244TIP3   OH227926   7.208   4.570   7.239 -0.0248 -0.2568  0.2870
 1244TIP3    H127927   7.248   4.636   7.182  0.1826 -0.0723  0.6400
 1244TIP3    H227928   7.238   4.487   7.203  0.7827 -0.1174  0.6116
 1245TIP3   OH227929   0.183   2.537   8.347 -0.6316 -0.2567  0.5920
 1245TIP3    H127930   0.144   2.620   8.321 -0.4498 -0.7591 -1.4762
 1245TIP3    H227931   0.109   2.483   8.375 -1.2705 -0.6022 -1.5999
 1246TIP3   OH227932   5.233   7.366   8.797  0.2508  0.1566 -0.1212
 1246TIP3    H127933   5.314   7.379   8.846  0.8006 -1.4670 -0.5326
 1246TIP3    H227934   5.261   7.354   8.707 -0.5578  0.7169 -0.4622
 1247TIP3   OH227935   3.534   4.805   8.052 -0.0725 -0.3273 -0.4630
 1247TIP3    H127936   3.563   4.716   8.035  0.0632 -0.3448 -0.1538
 1247TIP3    H227937   3.544   4.816   8.147  0.8102  0.3254 -0.6125
 1248TIP3   OH227938   2.722   1.453   8.167 -0.0665  0.4363 -0.1552
 1248TIP3    H127939   2.665   1.382   8.194 -0.5224  1.2202  1.0191
 1248TIP3    H227940   2.684   1.485   8.085  0.1813 -0.6866 -0.7242
 1249TIP3   OH227941   0.965   1.703   8.861 -0.0252 -0.1519 -0.1563
 1249TIP3    H127942   1.004   1.642   8.924  1.6928 -0.2970 -1.2938
 1249TIP3    H227943   1.039   1.736   8.811 -1.1727  1.2339 -1.0040
 1250TIP3   OH227944   4.174   5.534   9.125 -0.0246 -0.2664 -0.0046
 1250TIP3    H127945   4.123   5.614   9.118  0.0045  0.1591  3.2021
 1250TIP3    H227946   4.108   5.464   9.128 -0.3461  0.0796  1.7697
 1251TIP3   OH227947   4.194   4.886   9.247 -0.2811 -0.0632 -0.1369
 1251TIP3    H127948   4.100   4.870   9.236 -0.6286  0.9999  1.0200
 1251TIP3    H227949   4.215   4.949   9.178 -0.6808  0.5531  0.2924
 1252TIP3   OH227950   1.640   1.414   9.379  0.6250 -0.0281 -0.4105
 1252TIP3    H127951   1.649   1.445   9.469 -1.5423 -0.4715 -0.0024
 1252TIP3    H227952   1.555   1.445   9.350 -0.2108 -2.6712 -1.1217
 1253TIP3   OH227953   7.181   2.939   6.936 -0.5773 -0.1522  0.5254
 1253TIP3    H127954   7.146   2.859   6.899 -1.1757  0.5440 -0.4524
 1253TIP3    H227955   7.182   3.001   6.863 -0.4841  0.8421  1.3488
 1254TIP3   OH227956   1.945   5.775   6.792  0.5036 -0.1949 -0.1789
 1254TIP3    H127957   1.943   5.859   6.747  2.3958  0.0835  0.1932
 1254TIP3    H227958   2.035   5.745   6.784 -0.0883 -2.1118 -0.1200
 1255TIP3   OH227959   5.471   7.365   8.940  0.3209  0.5239 -0.4343
 1255TIP3    H127960   5.567   7.373   8.939  0.5436 -1.4322 -2.4852
 1255TIP3    H227961   5.451   7.329   9.026  1.7247 -1.2680 -0.7868
 1256TIP3   OH227962   1.044   1.212   9.065  0.8008 -0.7020  0.6168
 1256TIP3    H127963   1.008   1.124   9.070 -0.2328 -0.3457 -0.0308
 1256TIP3    H227964   1.028   1.249   9.153 -3.0337  0.3415 -0.2933
 1257TIP3   OH227965   2.276   4.731   7.826  0.1889 -0.2941  0.4001
 1257TIP3    H127966   2.341   4.770   7.768  1.4429 -0.8406  1.3834
 1257TIP3    H227967   2.218   4.681   7.768 -1.1208  2.4398 -0.8302
 1258TIP3   OH227968   2.569   2.537   6.561 -0.2533  0.8634 -0.0708
 1258TIP3    H127969   2.550   2.455   6.515 -0.1017  0.0868  1.2067
 1258TIP3    H227970   2.604   2.595   6.493  0.6116 -0.4730 -0.8224
 1259TIP3   OH227971   4.497   6.812   8.323  0.5650 -0.3942  0.3245
 1259TIP3    H127972   4.465   6.751   8.389  1.3999 -1.4478 -0.2008
 1259TIP3    H227973   4.586   6.781   8.303  0.9392  0.8824 -0.1092
 1260TIP3   OH227974   6.346   7.633   7.343  0.1318 -0.1855 -0.2659
 1260TIP3    H127975   6.420   7.669   7.294  0.7112 -1.2042 -0.1669
 1260TIP3    H227976   6.282   7.607   7.277 -0.8947  2.1955 -0.3031
 1261TIP3   OH227977   6.654   2.321   8.079  0.7216 -0.0647 -0.1926
 1261TIP3    H127978   6.745   2.294   8.093  1.0069  0.4711 -0.9390
 1261TIP3    H227979   6.651   2.411   8.112  0.7898  0.3605 -1.3279
 1262TIP3   OH227980   4.083   0.431   9.370 -0.3706 -0.0088 -0.2217
 1262TIP3    H127981   4.008   0.454   9.315 -0.6785  2.2060  1.0033
 1262TIP3    H227982   4.057   0.350   9.414 -2.2180  0.8999  0.4391
 1263TIP3   OH227983   3.463   2.297   8.700  0.1315 -0.1484  0.0392
 1263TIP3    H127984   3.505   2.300   8.786  1.0131 -0.1686 -0.3753
 1263TIP3    H227985   3.507   2.225   8.654 -0.0106  0.1505 -0.5785
 1264TIP3   OH227986   4.000   1.916   7.040  0.0383 -0.4888 -0.1957
 1264TIP3    H127987   3.962   1.992   7.085 -1.0756 -1.3777  0.4205
 1264TIP3    H227988   4.013   1.946   6.950 -0.3530  0.4511  0.0462
 1265TIP3   OH227989   4.454   1.289   7.701  0.3723 -0.6220  0.6737
 1265TIP3    H127990   4.482   1.234   7.775  1.7920 -2.1007 -0.8752
 1265TIP3    H227991   4.378   1.243   7.665  0.1265 -0.2922  0.7674
 1266TIP3   OH227992   0.845   2.828   7.784 -0.6336  0.1811  0.0322
 1266TIP3    H127993   0.779   2.895   7.769  0.7898  1.5190 -0.5319
 1266TIP3    H227994   0.920   2.856   7.732  0.4633 -1.1762  0.8105
 1267TIP3   OH227995   1.563   1.388   7.747 -0.2158 -0.5709 -0.4338
 1267TIP3    H127996   1.651   1.350   7.757 -1.4124 -3.2274  0.9629
 1267TIP3    H227997   1.552   1.442   7.825  0.2025 -0.0812 -0.7020
 1268TIP3   OH227998   6.994   5.322   8.204  0.1016  0.6576  0.8718
 1268TIP3    H127999   7.001   5.304   8.110  3.0505  0.8158  0.9864
 1268TIP3    H228000   7.012   5.239   8.247 -1.2159  0.5886  1.3614
 1269TIP3   OH228001   5.438   6.395   7.796  0.2368  0.1053 -0.1754
 1269TIP3    H128002   5.377   6.428   7.861 -0.9833 -0.5355 -0.9719
 1269TIP3    H228003   5.394   6.320   7.756  1.6349 -0.5347 -0.6181
 1270TIP3   OH228004   2.931   5.970   8.017  0.2565 -0.3339 -0.0826
 1270TIP3    H128005   2.924   5.882   8.054 -0.8988 -0.5042 -0.6487
 1270TIP3    H228006   3.023   5.993   8.026  0.3421 -1.0940  1.2090
 1271TIP3   OH228007   6.616   2.620   9.190 -0.1252 -0.4807  0.1745
 1271TIP3    H128008   6.553   2.674   9.237  1.3034  1.3555  0.1010
 1271TIP3    H228009   6.564   2.549   9.152 -1.7687 -0.2650  1.9071
 1272TIP3   OH228010   2.047   4.086   7.029  0.3401 -0.6028 -0.0659
 1272TIP3    H128011   2.000   4.113   6.950  0.3495 -0.3962 -0.0025
 1272TIP3    H228012   2.128   4.047   6.997  0.4387 -0.3295 -0.1510
 1273TIP3   OH228013   5.722   0.155   7.784 -0.5027 -0.0091  0.6860
 1273TIP3    H128014   5.665   0.178   7.711 -1.3331  0.9707  1.6023
 1273TIP3    H228015   5.772   0.080   7.753  0.0945  1.1613 -1.3254
 1274TIP3   OH228016   1.769   4.194   6.352 -0.9101 -0.3348 -0.2959
 1274TIP3    H128017   1.685   4.239   6.360 -1.5322 -1.4089 -0.5138
 1274TIP3    H228018   1.795   4.175   6.442 -2.0066 -1.9258 -0.2793
 1275TIP3   OH228019   2.991   5.564   8.975 -0.3109 -0.0569  0.6932
 1275TIP3    H128020   2.927   5.627   9.009  1.4933  1.5769  1.2902
 1275TIP3    H228021   3.065   5.571   9.036 -0.1251 -3.0595  0.9883
 1276TIP3   OH228022   0.738   6.961   8.832  0.0687 -0.0499  0.1112
 1276TIP3    H128023   0.652   7.002   8.842  0.0474  0.0613 -0.4967
 1276TIP3    H228024   0.767   6.986   8.744  2.0725  2.4297  1.3556
 1277TIP3   OH228025   2.771   1.005   7.692 -0.1612  0.1895 -0.4462
 1277TIP3    H128026   2.798   0.941   7.757 -0.5864 -1.3983 -1.7451
 1277TIP3    H228027   2.851   1.049   7.665  0.2664 -0.4008 -0.1414
 1278TIP3   OH228028   1.159   0.243   9.028 -0.5716  0.1119  0.3112
 1278TIP3    H128029   1.142   0.336   9.013 -0.7964 -0.0337 -0.3352
 1278TIP3    H228030   1.079   0.198   9.001  0.3059 -0.4572 -1.4716
 1279TIP3   OH228031   0.090   0.309   7.003  0.2180  0.1627 -0.2119
 1279TIP3    H128032   0.032   0.233   7.007  0.4989 -0.0329  0.0948
 1279TIP3    H228033   0.174   0.278   7.035  0.9948 -0.0070 -2.2640
 1280TIP3   OH228034   2.890   6.855   9.139  0.1558  0.2912  0.0025
 1280TIP3    H128035   2.931   6.879   9.056 -0.8846 -0.3606 -0.7195
 1280TIP3    H228036   2.796   6.851   9.120 -0.1313  0.4075  1.2816
 1281TIP3   OH228037   0.965   3.794   6.687  0.2216 -0.1995  0.3968
 1281TIP3    H128038   0.885   3.772   6.640 -0.3164  3.7592 -0.9974
 1281TIP3    H228039   1.034   3.788   6.620  0.5885 -0.7247  0.8147
 1282TIP3   OH228040   5.952   7.039   9.100 -0.4361 -0.2638 -0.1301
 1282TIP3    H128041   6.007   6.965   9.124 -0.0238  0.3788  1.0217
 1282TIP3    H228042   5.964   7.049   9.006 -0.2048 -1.4137 -0.2334
 1283TIP3   OH228043   2.880   4.708   7.172  0.0382 -0.0532  0.4355
 1283TIP3    H128044   2.954   4.742   7.222  1.2950 -0.4889 -1.0235
 1283TIP3    H228045   2.889   4.613   7.177  0.4543 -0.1108 -0.9174
 1284TIP3   OH228046   0.550   2.358   9.150  0.3528 -0.8341 -0.0300
 1284TIP3    H128047   0.642   2.332   9.150  0.6213  0.0260 -1.1118
 1284TIP3    H228048   0.547   2.435   9.093 -1.0591 -0.9332 -0.1284
 1285TIP3   OH228049   0.454   2.422   8.526  0.2327 -0.5073  0.0010
 1285TIP3    H128050   0.378   2.434   8.468 -0.3895 -1.8941  0.4897
 1285TIP3    H228051   0.527   2.460   8.477 -0.4682 -0.6752 -1.2281
 1286TIP3   OH228052   2.726   5.334   6.841 -0.1206  0.1547 -0.2700
 1286TIP3    H128053   2.642   5.301   6.809 -0.2982  1.0818 -0.7912
 1286TIP3    H228054   2.704   5.378   6.924  0.0015 -0.3859  0.0541
 1287TIP3   OH228055   5.518   5.831   7.729  0.1517 -0.1000 -0.4708
 1287TIP3    H128056   5.532   5.919   7.694 -0.2316  1.0703  2.1624
 1287TIP3    H228057   5.602   5.807   7.768 -0.2592 -0.1396  0.4061
 1288TIP3   OH228058   3.110   2.492   7.206  0.2862  0.3786  0.4074
 1288TIP3    H128059   3.041   2.449   7.155  0.6447  0.0089  0.2240
 1288TIP3    H228060   3.103   2.585   7.184 -1.1907  0.5824  1.6220
 1289TIP3   OH228061   6.745   3.973   7.685  0.0954  0.1291  0.2451
 1289TIP3    H128062   6.824   3.933   7.721  0.3482 -0.6780 -1.0860
 1289TIP3    H228063   6.756   4.067   7.699  0.9817 -0.0257  0.6612
 1290TIP3   OH228064   7.387   1.825   8.768  0.0696 -0.1626 -0.0626
 1290TIP3    H128065   7.469   1.872   8.777 -0.4210  1.1105 -1.6663
 1290TIP3    H228066   7.324   1.892   8.742 -1.1274 -1.3635 -0.3633
 1291TIP3   OH228067   5.667   6.033   7.280 -0.3162 -0.0358 -0.6890
 1291TIP3    H128068   5.739   6.074   7.232 -1.8901  0.6795 -2.5796
 1291TIP3    H228069   5.633   5.967   7.220 -0.9811 -0.6463  0.3341
 1292TIP3   OH228070   6.870   2.765   9.076  0.5415  0.2650 -0.1173
 1292TIP3    H128071   6.845   2.673   9.080  1.6727 -0.1909 -2.2862
 1292TIP3    H228072   6.873   2.793   9.168 -0.8161 -1.5474  0.5431
 1293TIP3   OH228073   3.867   5.423   6.938  0.0057  0.5780 -0.0442
 1293TIP3    H128074   3.906   5.345   6.977  0.7527  1.2868  0.6608
 1293TIP3    H228075   3.938   5.465   6.890  0.3695  2.2843  1.8643
 1294TIP3   OH228076   4.341   6.094   7.689  0.5160  0.2090  0.4224
 1294TIP3    H128077   4.413   6.136   7.737  0.1591  2.8571 -1.1651
 1294TIP3    H228078   4.299   6.038   7.754  2.1144  0.9997  2.2455
 1295TIP3   OH228079   0.642   5.957   7.209  0.3891  0.0267  0.1978
 1295TIP3    H128080   0.686   5.975   7.293  1.7743  0.1676 -0.5297
 1295TIP3    H228081   0.668   6.029   7.152 -0.0165 -0.4051 -0.5469
 1296TIP3   OH228082   4.453   3.330   7.524 -0.0892  0.2601 -0.0558
 1296TIP3    H128083   4.512   3.388   7.572 -1.8704 -0.7540  3.7112
 1296TIP3    H228084   4.392   3.389   7.480  0.8404  1.2232 -0.1018
 1297TIP3   OH228085   2.176   3.744   7.497  0.3464 -0.0723 -0.0367
 1297TIP3    H128086   2.258   3.790   7.515  0.1586  0.2371  0.0345
 1297TIP3    H228087   2.165   3.751   7.402  0.6101 -0.4665 -0.0956
 1298TIP3   OH228088   1.964   6.447   7.935 -0.6834 -0.0768  0.2496
 1298TIP3    H128089   1.883   6.397   7.939 -1.1114  0.5028 -0.8561
 1298TIP3    H228090   1.948   6.523   7.992 -1.1848  0.3957 -0.5072
 1299TIP3   OH228091   2.564   1.834   8.237 -0.2602  0.4260 -0.0662
 1299TIP3    H128092   2.638   1.773   8.234  0.9204  1.8301 -1.0978
 1299TIP3    H228093   2.594   1.905   8.294 -1.3192  0.4181  0.5279
 1300TIP3   OH228094   7.650   0.624   8.926  0.0894 -0.5646 -0.6932
 1300TIP3    H128095   7.572   0.665   8.964  0.4379 -0.3229 -0.2305
 1300TIP3    H228096   7.618   0.584   8.845 -0.8312 -1.7440  0.2158
 1301TIP3   OH228097   3.351   1.570   9.273 -0.0331 -0.0762  0.0316
 1301TIP3    H128098   3.350   1.497   9.211 -1.1488 -1.7431  1.8782
 1301TIP3    H228099   3.341   1.648   9.219  0.2738 -1.3476 -1.9554
 1302TIP3   OH228100   6.271   6.976   9.389 -0.2334  0.3320 -0.2010
 1302TIP3    H128101   6.206   7.047   9.388  0.3086  0.8520 -2.1469
 1302TIP3    H228102   6.219   6.898   9.406 -1.1496  0.9205 -0.1900
 1303TIP3   OH228103   4.832   3.408   9.352  0.3520 -0.3215  0.9670
 1303TIP3    H128104   4.831   3.499   9.324  0.2788 -0.7589 -0.5298
 1303TIP3    H228105   4.924   3.385   9.357  0.3981 -0.8824 -1.2657
 1304TIP3   OH228106   0.024   5.825   8.122 -0.1132  0.5502  0.0776
 1304TIP3    H128107   0.004   5.913   8.153  0.9763  0.9653 -0.3739
 1304TIP3    H228108   0.050   5.836   8.031 -0.6504 -0.3364 -0.2065
 1305TIP3   OH228109   1.800   7.032   8.086 -0.0483  0.6892  0.2853
 1305TIP3    H128110   1.810   7.111   8.033  1.7351  1.8944  2.2346
 1305TIP3    H228111   1.870   7.038   8.151 -0.2407 -2.2154  0.9078
 1306TIP3   OH228112   5.317   6.564   7.992 -0.0222 -0.1817  0.1967
 1306TIP3    H128113   5.294   6.539   8.082 -0.5217  1.1821  0.4821
 1306TIP3    H228114   5.377   6.638   8.003  0.5317 -0.5058 -0.5990
 1307TIP3   OH228115   0.054   7.225   9.136  0.1946 -0.1712 -0.6324
 1307TIP3    H128116   0.114   7.277   9.190  0.9323  0.0566 -1.6357
 1307TIP3    H228117  -0.033   7.244   9.172  0.7299 -0.8696  1.1531
 1308TIP3   OH228118   3.325   4.677   9.283 -0.4592  0.2553  0.1058
 1308TIP3    H128119   3.316   4.753   9.339  1.2026 -0.2896  1.2042
 1308TIP3    H228120   3.420   4.664   9.276 -0.5989  0.1722 -2.6937
 1309TIP3   OH228121   4.388   1.988   7.745 -0.1834  0.1241 -0.0025
 1309TIP3    H128122   4.395   2.074   7.703 -0.0271 -0.4145 -1.1055
 1309TIP3    H228123   4.295   1.965   7.736  0.1342 -0.6904 -1.5176
 1310TIP3   OH228124   3.725   3.797   7.138  0.1447 -0.2895 -0.1454
 1310TIP3    H128125   3.710   3.746   7.059  0.2561  0.4809 -0.6777
 1310TIP3    H228126   3.813   3.772   7.167  0.4546  0.0531 -0.7606
 1311TIP3   OH228127   1.346   6.089   7.893  0.0247 -0.1928  0.1776
 1311TIP3    H128128   1.351   6.185   7.888  0.3691 -0.0089  2.7479
 1311TIP3    H228129   1.416   6.065   7.953 -0.0198 -2.1087 -0.4647
 1312TIP3   OH228130   5.484   4.993   8.920  0.6250  0.0498 -0.0568
 1312TIP3    H128131   5.496   5.022   8.830  1.4488 -2.6239 -0.9057
 1312TIP3    H228132   5.400   5.029   8.946 -0.2259 -0.1238 -2.3589
 1313TIP3   OH228133   0.621   2.911   8.979 -0.2084 -0.0155 -0.4609
 1313TIP3    H128134   0.625   2.823   8.941 -1.0023 -0.5516  0.6489
 1313TIP3    H228135   0.578   2.899   9.064 -0.8442  1.5173 -0.5279
 1314TIP3   OH228136   4.802   7.600   7.154 -0.1241 -0.1971  0.7099
 1314TIP3    H128137   4.776   7.515   7.120 -0.4483  0.2171 -0.1356
 1314TIP3    H228138   4.889   7.615   7.116 -0.0855 -0.1410  0.8220
 1315TIP3   OH228139   7.459   7.030   8.130 -0.3469  0.7606  0.2544
 1315TIP3    H128140   7.392   7.004   8.193 -0.2693  1.1318  0.4921
 1315TIP3    H228141   7.450   6.967   8.058  0.5079 -0.5471  1.2457
 1316TIP3   OH228142   3.737   5.220   8.635  0.0839 -0.3350  0.1268
 1316TIP3    H128143   3.712   5.129   8.623  0.4243 -0.4429  0.2084
 1316TIP3    H228144   3.816   5.231   8.581  0.0985 -0.1163  0.1900
 1317TIP3   OH228145   2.804   6.982   8.209  0.8330  0.5952 -0.4314
 1317TIP3    H128146   2.760   6.964   8.292 -1.6105 -0.6471 -1.8962
 1317TIP3    H228147   2.838   7.071   8.218 -0.2866  0.8636  1.5069
 1318TIP3   OH228148   5.227   0.672   7.881  0.3260  0.1343 -0.5067
 1318TIP3    H128149   5.177   0.621   7.945  1.0943 -0.0818 -0.0609
 1318TIP3    H228150   5.311   0.689   7.924  1.4072 -1.1941 -1.9299
 1319TIP3   OH228151   2.219   2.846   7.093 -0.1713 -0.4759 -0.6241
 1319TIP3    H128152   2.174   2.833   7.010 -1.3145 -0.3501 -0.0411
 1319TIP3    H228153   2.156   2.818   7.159  0.5941 -0.2457  0.2216
 1320TIP3   OH228154   2.752   4.532   8.089 -0.4705 -0.2501 -0.5164
 1320TIP3    H128155   2.818   4.463   8.079 -0.4833 -0.0701 -2.1512
 1320TIP3    H228156   2.702   4.530   8.008 -1.6245  0.5209  0.1387
 1321TIP3   OH228157   7.674   3.052   6.557  0.2333 -0.0049 -0.3104
 1321TIP3    H128158   7.707   3.008   6.479  1.1313  0.9168 -0.4864
 1321TIP3    H228159   7.749   3.055   6.616  0.2398  1.3465 -0.3532
 1322TIP3   OH228160   6.414   0.901   7.869  0.2984 -0.5125  0.3343
 1322TIP3    H128161   6.402   0.996   7.871  0.1458 -0.5455  1.3194
 1322TIP3    H228162   6.504   0.888   7.899  0.1490 -0.7069  0.6975
 1323TIP3   OH228163   5.107   4.517   8.768  0.2622  0.6318  0.2571
 1323TIP3    H128164   5.018   4.513   8.733  0.5670  0.8741 -0.5581
 1323TIP3    H228165   5.112   4.441   8.826 -0.2864  0.2778 -0.1423
 1324TIP3   OH228166   1.676   4.680   7.997 -0.3848  0.5521 -0.2723
 1324TIP3    H128167   1.632   4.718   7.920 -0.4935  0.9344 -0.0213
 1324TIP3    H228168   1.764   4.659   7.966 -0.9764 -1.0008 -1.0271
 1325TIP3   OH228169   5.614   6.137   8.772 -0.4479  0.3043 -0.1165
 1325TIP3    H128170   5.557   6.063   8.752  0.3151  0.1154 -1.7988
 1325TIP3    H228171   5.697   6.096   8.798  0.2855  0.4906 -1.9738
 1326TIP3   OH228172   3.129   3.248   7.740 -0.5328  0.3011 -0.1145
 1326TIP3    H128173   3.044   3.212   7.716 -0.5825  1.0121 -1.0413
 1326TIP3    H228174   3.111   3.338   7.768 -0.1172  0.3625 -0.0353
 1327TIP3   OH228175   0.734   7.631   9.643 -0.2278  0.0188  0.2106
 1327TIP3    H128176   0.666   7.688   9.606 -0.9007 -1.1280 -0.3882
 1327TIP3    H228177   0.718   7.633   9.738 -1.1855 -0.3333  0.0665
 1328TIP3   OH228178   7.383   0.834   7.353 -0.7444  0.0973  0.4413
 1328TIP3    H128179   7.375   0.856   7.261 -1.3326  1.3143  0.7702
 1328TIP3    H228180   7.294   0.815   7.382 -0.4763 -1.0679  0.5969
 1329TIP3   OH228181   3.567   1.075   8.671  0.2962 -0.4646 -0.1680
 1329TIP3    H128182   3.498   1.095   8.607  1.1899  3.0009 -0.2328
 1329TIP3    H228183   3.521   1.026   8.740 -2.2381  1.3590 -0.3852
 1330TIP3   OH228184   2.237   3.654   7.916  0.2219  0.0577  0.0212
 1330TIP3    H128185   2.284   3.707   7.981 -0.6501  0.7167  0.1382
 1330TIP3    H228186   2.306   3.612   7.865  0.9384  0.9577  0.2223
 1331TIP3   OH228187   5.791   4.335   8.541  0.1838  0.0623 -0.7299
 1331TIP3    H128188   5.726   4.267   8.524 -0.0034 -0.3818  1.3933
 1331TIP3    H228189   5.740   4.415   8.551  0.1362  0.0430 -0.8228
 1332TIP3   OH228190   2.491   5.838   7.743  0.1553 -0.1607  0.0331
 1332TIP3    H128191   2.572   5.790   7.727 -0.2171 -1.0464  0.6762
 1332TIP3    H228192   2.519   5.925   7.770  0.8988 -0.5513  0.5518
 1333TIP3   OH228193   7.601   7.488   9.248  0.0146 -0.6437  0.0191
 1333TIP3    H128194   7.576   7.429   9.319  0.0722 -1.8937 -0.9703
 1333TIP3    H228195   7.550   7.568   9.264 -0.0730 -0.9499  1.3731
 1334TIP3   OH228196   6.008   0.082   7.417 -1.1140  0.4629  0.1149
 1334TIP3    H128197   5.993   0.061   7.325 -1.5810  0.4281  0.1966
 1334TIP3    H228198   6.039   0.173   7.416 -1.5127  0.6009 -0.0490
 1335TIP3   OH228199   5.549   5.512   8.996 -0.4275  0.4370  0.4132
 1335TIP3    H128200   5.561   5.509   8.901 -0.1566  0.4251  0.4444
 1335TIP3    H228201   5.468   5.465   9.012  0.2829 -0.8725  0.3159
 1336TIP3   OH228202   6.594   6.897   8.773 -0.2880 -0.0568  0.3873
 1336TIP3    H128203   6.602   6.972   8.714  1.0170  0.8510  1.6240
 1336TIP3    H228204   6.506   6.905   8.809 -1.0007 -0.4689 -1.1801
 1337TIP3   OH228205   7.101   3.325   7.566  0.2643 -0.2336 -0.0270
 1337TIP3    H128206   7.155   3.319   7.486  1.5553 -2.5862  0.9366
 1337TIP3    H228207   7.027   3.267   7.550 -1.0498  1.5074 -0.5740
 1338TIP3   OH228208   5.939   3.137   7.556  0.2089 -0.2052 -0.0720
 1338TIP3    H128209   5.854   3.105   7.587 -0.6809  1.5386 -0.5570
 1338TIP3    H228210   5.919   3.178   7.471  1.7293 -0.6503 -0.6821
 1339TIP3   OH228211   2.641   3.129   7.560 -0.4140 -0.0641 -0.2144
 1339TIP3    H128212   2.602   3.078   7.489 -0.1648 -2.0969  1.0581
 1339TIP3    H228213   2.567   3.151   7.617 -0.5244  1.0934 -0.7641
 1340TIP3   OH228214   7.368   6.817   9.283 -0.1293  0.1609 -0.7263
 1340TIP3    H128215   7.457   6.782   9.275 -0.7466 -2.2855  1.5559
 1340TIP3    H228216   7.317   6.744   9.318 -2.3918  2.3503  0.9065
 1341TIP3   OH228217   5.447   5.535   8.430  0.5465  0.1316 -0.4333
 1341TIP3    H128218   5.406   5.550   8.345  0.4575  0.7199 -0.2913
 1341TIP3    H228219   5.534   5.502   8.410  0.3655 -0.1497 -0.7493
 1342TIP3   OH228220   4.132   4.759   7.077  0.2061 -0.2907 -0.1202
 1342TIP3    H128221   4.178   4.783   6.996  0.8506 -0.1740  0.2732
 1342TIP3    H228222   4.193   4.783   7.147 -1.3128  1.9803  0.5562
 1343TIP3   OH228223   1.468   5.481   8.568 -0.0601 -0.1422  0.3782
 1343TIP3    H128224   1.497   5.390   8.562  1.3467  0.3496 -1.0471
 1343TIP3    H228225   1.376   5.475   8.595 -0.2285 -2.0147 -0.4374
 1344TIP3   OH228226   7.619   4.398   7.830  0.0041  0.3973 -0.0641
 1344TIP3    H128227   7.619   4.474   7.772  0.1963  0.8705  0.5416
 1344TIP3    H228228   7.538   4.407   7.881 -1.7236 -1.5734 -2.2126
 1345TIP3   OH228229   2.216   5.324   9.170  0.3402 -0.8535 -0.5213
 1345TIP3    H128230   2.208   5.419   9.168 -0.3908 -0.9136 -1.0413
 1345TIP3    H228231   2.256   5.305   9.255  1.4338 -0.0324 -0.8415
 1346TIP3   OH228232   1.662   0.389   8.909 -0.1090  0.0752  0.1134
 1346TIP3    H128233   1.592   0.413   8.848 -1.4927 -1.3650  1.0779
 1346TIP3    H228234   1.631   0.420   8.995  0.6627 -0.1598  0.4885
 1347TIP3   OH228235   3.095   3.429   8.336  0.4379 -0.0218 -0.3261
 1347TIP3    H128236   3.097   3.346   8.385  0.1725  0.1131 -0.0795
 1347TIP3    H228237   3.174   3.476   8.366 -0.2677  0.5082  0.7888
 1348TIP3   OH228238   2.283   1.367   7.976  0.2724  0.2436  0.2836
 1348TIP3    H128239   2.277   1.304   7.905  0.2215  0.2831  0.2537
 1348TIP3    H228240   2.273   1.453   7.934  0.2814  0.2687  0.3326
 1349TIP3   OH228241   0.665   5.740   9.156 -0.2459 -0.3194 -0.2685
 1349TIP3    H128242   0.639   5.719   9.067 -0.1487  0.0285 -0.3798
 1349TIP3    H228243   0.700   5.658   9.191 -0.5652 -0.5336 -0.4461
 1350TIP3   OH228244   1.586   0.682   6.887 -0.1500  0.4297 -0.5439
 1350TIP3    H128245   1.556   0.769   6.863  0.3102  0.6715 -0.2482
 1350TIP3    H228246   1.529   0.623   6.838 -0.0770  0.9016 -1.2085
 1351TIP3   OH228247   0.348   4.263   8.331 -0.4442 -0.3532 -0.3063
 1351TIP3    H128248   0.439   4.234   8.328 -0.0421  0.9614 -2.0917
 1351TIP3    H228249   0.310   4.212   8.403  1.4429 -1.5936 -0.1004
 1352TIP3   OH228250   3.414   5.754   9.136  0.4228  0.7232 -1.1580
 1352TIP3    H128251   3.489   5.722   9.085  1.1793  1.1791 -0.3501
 1352TIP3    H228252   3.428   5.848   9.144 -0.1377  0.7855 -0.8285
 1353TIP3   OH228253   2.934   5.377   8.479 -0.0909  0.5711 -0.4263
 1353TIP3    H128254   2.983   5.396   8.558  0.2141  1.2851 -0.7752
 1353TIP3    H228255   2.873   5.307   8.504 -0.6009  1.3732  0.6666
 1354TIP3   OH228256   4.405   3.054   7.455 -0.4473 -0.0426  0.5947
 1354TIP3    H128257   4.453   3.136   7.453  1.1344 -0.9364  0.3971
 1354TIP3    H228258   4.319   3.075   7.419  0.5274  1.1460 -1.1591
 1355TIP3   OH228259   3.229   5.243   9.303 -0.4639  0.0363 -0.2961
 1355TIP3    H128260   3.209   5.300   9.378  0.8330  1.4371 -0.9528
 1355TIP3    H228261   3.148   5.240   9.253 -1.1159 -0.2737  0.7454
 1356TIP3   OH228262   0.673   0.069   7.587  0.0204  0.4842 -0.4428
 1356TIP3    H128263   0.616   0.053   7.512 -1.6646  0.5388  0.7771
 1356TIP3    H228264   0.666   0.163   7.604 -1.1419  0.1984  0.9025
 1357TIP3   OH228265   7.282   4.378   8.309 -0.3245  0.0623  0.2893
 1357TIP3    H128266   7.231   4.339   8.238  0.9682 -1.3216  0.0593
 1357TIP3    H228267   7.296   4.306   8.371 -0.4692  0.9589  1.3925
 1358TIP3   OH228268   1.469   6.971   9.637  0.4633 -0.0847 -0.4684
 1358TIP3    H128269   1.483   6.954   9.544  2.2313 -0.1998 -0.2133
 1358TIP3    H228270   1.452   7.065   9.641  1.3485  0.1057 -0.8304
 1359TIP3   OH228271   4.780   2.001   9.227  0.1434  0.0041 -0.4597
 1359TIP3    H128272   4.747   2.087   9.253 -0.7964 -0.9166  1.7305
 1359TIP3    H228273   4.791   2.006   9.133 -1.1914  2.1044 -0.5648
 1360TIP3   OH228274   3.272   5.291   8.817  0.3540  0.3624 -0.8024
 1360TIP3    H128275   3.330   5.304   8.742  0.5891  1.1529 -0.4852
 1360TIP3    H228276   3.304   5.351   8.884 -0.9658  1.0002 -0.6998
 1361TIP3   OH228277   5.322   4.978   7.690 -0.6119  0.0017  0.0938
 1361TIP3    H128278   5.307   4.968   7.596 -3.0728  2.1422  0.1267
 1361TIP3    H228279   5.234   4.988   7.727  0.3949  2.2643  2.1683
 1362TIP3   OH228280   3.156   4.960   8.934  0.5225  0.7284 -0.2017
 1362TIP3    H128281   3.247   4.960   8.961  0.2023  2.4489  1.0203
 1362TIP3    H228282   3.110   5.008   9.002 -1.6375 -1.6112  0.1689
 1363TIP3   OH228283   1.289   4.710   7.194  0.0258 -0.0899 -0.4390
 1363TIP3    H128284   1.274   4.618   7.175  2.5532 -1.1569  2.0738
 1363TIP3    H228285   1.316   4.748   7.110 -0.2981 -1.7995 -1.3551
 1364TIP3   OH228286   3.036   0.165   9.552  0.2719  1.0214  0.7648
 1364TIP3    H128287   3.070   0.130   9.634  1.0603  0.2014  0.1053
 1364TIP3    H228288   3.020   0.088   9.498 -0.6135  1.5290  0.2762
 1365TIP3   OH228289   5.934   2.909   8.869  0.0130  0.2579 -0.1881
 1365TIP3    H128290   5.999   2.914   8.939 -0.3211 -1.4294  0.2856
 1365TIP3    H228291   5.941   2.993   8.824  0.9773  0.9668  1.2074
 1366TIP3   OH228292   6.567   4.076   6.957 -0.4714  0.0654  0.3562
 1366TIP3    H128293   6.610   4.071   7.043 -0.9789 -1.9742  0.5328
 1366TIP3    H228294   6.609   4.007   6.906 -2.7582 -1.2970  0.2099
 1367TIP3   OH228295   0.408   0.622   7.062  0.2462 -0.0548  0.0941
 1367TIP3    H128296   0.486   0.570   7.081  0.2720 -0.1349 -0.2188
 1367TIP3    H228297   0.416   0.699   7.119  0.0905 -0.5014  0.7206
 1368TIP3   OH228298   2.664   2.528   7.374  0.0731  0.4343  0.1412
 1368TIP3    H128299   2.667   2.477   7.293 -1.7814 -1.0268  0.9067
 1368TIP3    H228300   2.584   2.581   7.366 -0.8638 -0.7032  1.5157
 1369TIP3   OH228301   1.660   1.487   8.240  0.0428 -0.0535  0.0872
 1369TIP3    H128302   1.584   1.442   8.203 -0.9125  2.4314 -1.1956
 1369TIP3    H228303   1.631   1.515   8.327 -0.1076 -0.0929  0.0497
 1370TIP3   OH228304   5.516   6.651   8.524 -0.5041  0.6205 -0.0746
 1370TIP3    H128305   5.611   6.640   8.528 -0.5110  0.5138 -0.1956
 1370TIP3    H228306   5.484   6.568   8.488 -0.7589  0.1061  1.2756
 1371TIP3   OH228307   4.380   1.854   9.635 -0.0701  0.1469  0.1165
 1371TIP3    H128308   4.389   1.904   9.554 -1.2234  0.6020  0.2479
 1371TIP3    H228309   4.326   1.909   9.692  2.1788  0.6674  1.9088
 1372TIP3   OH228310   2.092   5.069   9.595  0.3316 -0.2443  0.7786
 1372TIP3    H128311   2.025   5.099   9.656 -0.4160 -1.0711  0.3934
 1372TIP3    H228312   2.043   5.020   9.528  1.2131  0.0090 -0.0688
 1373TIP3   OH228313   4.827   0.820   7.422  0.4453 -0.3678  0.0489
 1373TIP3    H128314   4.810   0.727   7.440  0.2116 -0.1312  1.1024
 1373TIP3    H228315   4.790   0.866   7.497 -1.4962  0.7662 -1.4904
 1374TIP3   OH228316   5.634   4.085   8.554 -0.5398  0.1289 -1.0896
 1374TIP3    H128317   5.690   4.007   8.555  0.1508  0.5338 -2.9016
 1374TIP3    H228318   5.579   4.072   8.477 -1.0390  1.0226 -0.8900
 1375TIP3   OH228319   7.255   5.179   7.372 -0.5561 -0.2743 -0.5571
 1375TIP3    H128320   7.199   5.241   7.418 -1.1469 -0.6989 -0.6850
 1375TIP3    H228321   7.235   5.094   7.412 -0.4176 -0.5110 -0.9855
 1376TIP3   OH228322   1.117   1.496   7.089  0.8561  0.6187  0.0595
 1376TIP3    H128323   1.066   1.416   7.075  0.4938  0.6220  1.2892
 1376TIP3    H228324   1.059   1.554   7.138  1.9026  0.7447  1.2003
 1377TIP3   OH228325   2.200   5.840   8.477  0.5486 -0.4587 -0.2385
 1377TIP3    H128326   2.271   5.811   8.534  0.4577 -0.1873  0.0134
 1377TIP3    H228327   2.129   5.862   8.536  0.8052  0.8060 -0.3766
 1378TIP3   OH228328   6.312   6.674   8.238  0.3670  0.1613  0.7547
 1378TIP3    H128329   6.300   6.596   8.293  0.2545 -0.5102 -0.1950
 1378TIP3    H228330   6.354   6.737   8.295  0.7989 -0.7306  1.4488
 1379TIP3   OH228331   2.049   0.494   9.303 -0.6159 -0.2287  0.0922
 1379TIP3    H128332   2.109   0.564   9.328 -1.5891  1.3145 -1.6371
 1379TIP3    H228333   1.970   0.511   9.355 -0.4999 -0.6615  0.4130
 1380TIP3   OH228334   0.780   4.462   8.860  0.4317  0.2442  0.0618
 1380TIP3    H128335   0.733   4.523   8.917  0.0292 -0.2137  0.2294
 1380TIP3    H228336   0.836   4.517   8.806 -1.7575  0.9870 -1.5463
 1381TIP3   OH228337   3.086   0.232   8.799  0.2887 -0.2528  0.2003
 1381TIP3    H128338   3.072   0.313   8.749 -0.2610  0.3174  1.2579
 1381TIP3    H228339   3.132   0.260   8.878  1.4885 -1.2047 -0.1285
 1382TIP3   OH228340   4.144   0.448   8.631 -0.4606 -0.4863 -0.0160
 1382TIP3    H128341   4.127   0.372   8.576 -2.9657 -0.1626  0.1552
 1382TIP3    H228342   4.165   0.412   8.717 -0.5466 -1.0028 -0.2099
 1383TIP3   OH228343   2.357   1.530   7.053 -0.1225  0.1688  0.2555
 1383TIP3    H128344   2.350   1.464   6.983 -0.6052  0.2782  0.1979
 1383TIP3    H228345   2.339   1.481   7.134  1.7508 -0.2459  0.4629
 1384TIP3   OH228346   4.168   3.126   9.596  0.3991 -0.2945  0.1828
 1384TIP3    H128347   4.115   3.095   9.522  1.4681 -1.7243 -0.0452
 1384TIP3    H228348   4.216   3.201   9.561  1.7834 -1.6664 -1.0035
 1385TIP3   OH228349   2.681   3.276   7.851 -0.3819 -0.1411 -0.2388
 1385TIP3    H128350   2.643   3.363   7.864 -0.9116 -0.7490  3.1445
 1385TIP3    H228351   2.758   3.274   7.908 -0.4111 -1.9045 -0.2077
 1386TIP3   OH228352   0.351   7.058   9.295  0.7281  1.0181 -0.0172
 1386TIP3    H128353   0.325   7.149   9.304 -0.7772  0.5087  1.0896
 1386TIP3    H228354   0.290   7.022   9.231  1.0782  0.6955 -0.1723
 1387TIP3   OH228355   2.103   7.519   7.554 -0.0504 -0.3192 -0.3442
 1387TIP3    H128356   2.181   7.523   7.499 -0.7926  0.8360 -1.3360
 1387TIP3    H228357   2.138   7.519   7.644  1.0849  0.0328 -0.7655
 1388TIP3   OH228358   2.382   0.158   8.634  0.8561 -0.5194 -0.2000
 1388TIP3    H128359   2.464   0.139   8.679  1.4728 -1.0081 -1.4660
 1388TIP3    H228360   2.341   0.073   8.621 -1.2399 -0.1043  2.8100
 1389TIP3   OH228361   3.230   0.947   9.022 -0.1697  0.0709  0.1285
 1389TIP3    H128362   3.245   0.918   9.112 -0.0234 -0.7080 -0.1426
 1389TIP3    H228363   3.149   0.998   9.026  0.3197  0.8087  0.8600
 1390TIP3   OH228364   5.119   6.767   8.378 -0.0279 -0.6540  0.3841
 1390TIP3    H128365   5.030   6.780   8.413  0.1047 -1.3253  1.0127
 1390TIP3    H228366   5.124   6.824   8.302 -0.8560 -0.2819  0.5975
 1391TIP3   OH228367   5.960   1.050   7.908  0.0418 -0.1644  0.2816
 1391TIP3    H128368   6.002   1.124   7.863  0.7406 -1.3658 -1.1389
 1391TIP3    H228369   5.926   0.995   7.837 -2.3822 -0.1691  1.3562
 1392TIP3   OH228370   1.925   0.888   8.079  0.7271  0.3966 -0.4824
 1392TIP3    H128371   1.870   0.847   8.144  1.3416 -0.2818 -0.3785
 1392TIP3    H228372   2.010   0.843   8.086  0.7949  0.2680 -1.7676
 1393TIP3   OH228373   7.228   0.906   8.985  0.7021 -0.9795  0.1298
 1393TIP3    H128374   7.191   0.945   9.064 -0.8840  1.1445 -1.5413
 1393TIP3    H228375   7.183   0.822   8.975 -1.5231  0.1837 -0.2013
 1394TIP3   OH228376   5.441   5.232   7.604  0.0023  0.0297  0.6385
 1394TIP3    H128377   5.390   5.151   7.608 -0.2147  0.1955  1.2067
 1394TIP3    H228378   5.378   5.301   7.625  0.4490  0.2371  1.3222
 1395TIP3   OH228379   4.029   7.192   6.989  0.1272  0.5030  0.3113
 1395TIP3    H128380   4.039   7.111   6.939 -1.2601  1.0911 -1.0049
 1395TIP3    H228381   3.940   7.222   6.968 -0.0384  1.4479  2.1657
 1396TIP3   OH228382   5.781   1.394   9.235  0.2744 -0.2634  0.3070
 1396TIP3    H128383   5.793   1.400   9.140  0.4015  0.2457  0.3471
 1396TIP3    H228384   5.849   1.452   9.270 -2.3863  2.9922  0.5503
 1397TIP3   OH228385   3.706   6.408   6.514  0.1067 -0.3869  0.4343
 1397TIP3    H128386   3.710   6.469   6.588  1.8539  0.9087 -0.6709
 1397TIP3    H228387   3.670   6.458   6.442  0.7972 -0.8793 -0.2760
 1398TIP3   OH228388   2.368   2.640   7.347  0.4505 -0.5607  0.5588
 1398TIP3    H128389   2.285   2.592   7.338  1.2502 -2.3475  1.9341
 1398TIP3    H228390   2.358   2.689   7.429  0.6254 -0.5400  0.5683
 1399TIP3   OH228391   4.759   5.967   8.398  0.4044  0.1177 -0.1971
 1399TIP3    H128392   4.714   5.980   8.314  0.2702 -1.1180 -0.3402
 1399TIP3    H228393   4.767   6.055   8.435 -1.8150  0.4401 -0.3253
 1400TIP3   OH228394   4.118   1.540   9.556 -0.1676  0.1644  0.7052
 1400TIP3    H128395   4.148   1.608   9.495 -1.7835 -0.5059 -0.9706
 1400TIP3    H228396   4.039   1.577   9.595 -1.0175 -0.6757 -0.1674
 1401TIP3   OH228397   5.453   6.406   7.346 -0.5910 -0.2747 -0.3371
 1401TIP3    H128398   5.457   6.315   7.375  3.4141  0.1973  1.2550
 1401TIP3    H228399   5.450   6.400   7.251 -1.3288 -2.0127 -0.2552
 1402TIP3   OH228400   1.004   7.539   6.822 -0.0851  0.2188 -0.4868
 1402TIP3    H128401   0.927   7.521   6.769 -0.8603 -0.0968  0.7084
 1402TIP3    H228402   1.014   7.634   6.818 -0.6457  0.2802 -0.5129
 1403TIP3   OH228403   5.302   3.321   7.438 -0.1120  0.0648 -0.3633
 1403TIP3    H128404   5.334   3.243   7.485  2.3371  0.7379 -0.7537
 1403TIP3    H228405   5.331   3.308   7.348 -0.9524  0.7877 -0.7480
 1404TIP3   OH228406   6.897   1.772   6.857  0.0247 -0.0639  0.3406
 1404TIP3    H128407   6.958   1.804   6.791 -0.5473  1.3934  0.4919
 1404TIP3    H228408   6.929   1.809   6.940 -1.2727  1.0817  0.3639
 1405TIP3   OH228409   0.696   1.282   8.754  0.1834 -0.2461 -0.0772
 1405TIP3    H128410   0.681   1.377   8.760 -0.7870 -0.4128  0.3469
 1405TIP3    H228411   0.610   1.246   8.732  1.0386 -0.8075 -3.0181
 1406TIP3   OH228412   3.694   1.663   7.227  0.1594  0.6548 -0.1453
 1406TIP3    H128413   3.680   1.625   7.314 -0.1081  1.4249  0.1533
 1406TIP3    H228414   3.680   1.590   7.166 -0.5064  0.3114  0.4091
 1407TIP3   OH228415   1.933   6.900   8.731 -0.2382  0.0277 -0.4198
 1407TIP3    H128416   1.966   6.934   8.648 -0.0988  0.0148 -0.3708
 1407TIP3    H228417   1.862   6.841   8.707  1.2451 -1.7387 -0.6823
 1408TIP3   OH228418   2.485   3.699   8.625 -0.0113  0.5050 -0.5045
 1408TIP3    H128419   2.457   3.628   8.567 -1.0136  1.0129 -0.6740
 1408TIP3    H228420   2.425   3.694   8.700 -0.4830  1.5193 -0.7906
 1409TIP3   OH228421   6.035   4.893   6.880  0.1036  0.1387 -0.4426
 1409TIP3    H128422   5.964   4.914   6.941  0.1437  0.7614 -0.6099
 1409TIP3    H228423   6.029   4.798   6.869  0.5863 -0.1012  1.1263
 1410TIP3   OH228424   0.306   3.552   7.771 -0.0722 -0.6275  0.2430
 1410TIP3    H128425   0.382   3.524   7.720  0.2687  1.4552 -0.4988
 1410TIP3    H228426   0.232   3.545   7.711 -0.3606 -1.9477  0.7338
 1411TIP3   OH228427   6.763   0.568   8.018  0.0245 -0.7554 -0.3109
 1411TIP3    H128428   6.810   0.645   8.053  1.7296 -1.3699 -1.1303
 1411TIP3    H228429   6.818   0.494   8.044 -1.5355 -1.7242  0.3621
 1412TIP3   OH228430   3.069   7.666   9.358 -0.4088  0.5557  0.2280
 1412TIP3    H128431   3.093   7.588   9.407  0.1002  0.7867  0.3483
 1412TIP3    H228432   3.022   7.633   9.282  1.5353  0.0113 -0.7731
 1413TIP3   OH228433   1.853   7.002   8.430  0.5140  0.0659  0.1200
 1413TIP3    H128434   1.782   7.053   8.391  0.0384 -0.4717  0.2724
 1413TIP3    H228435   1.907   7.066   8.476  0.7362  0.6282 -0.8850
 1414TIP3   OH228436   1.017   0.546   6.701 -0.2106  0.0205 -0.0349
 1414TIP3    H128437   0.953   0.567   6.769  0.7012 -0.9208  1.1456
 1414TIP3    H228438   1.102   0.565   6.741  0.3133  0.2684 -1.2180
 1415TIP3   OH228439   4.116   7.122   7.931  0.1747 -0.5444  0.3196
 1415TIP3    H128440   4.158   7.055   7.985  0.9788 -1.3997 -1.3221
 1415TIP3    H228441   4.137   7.099   7.841 -0.2317  1.4493 -0.3520
 1416TIP3   OH228442   3.412   6.344   7.547  0.0084 -0.0069  0.1902
 1416TIP3    H128443   3.503   6.365   7.529 -0.5965  1.5907 -1.2712
 1416TIP3    H228444   3.411   6.249   7.561  1.7207 -0.2065 -0.8439
 1417TIP3   OH228445   7.584   4.109   6.856  0.8133  0.4116 -1.0800
 1417TIP3    H128446   7.489   4.101   6.852  0.9798 -1.2514 -2.5543
 1417TIP3    H228447   7.617   4.037   6.803  2.9754 -0.6187  1.4323
 1418TIP3   OH228448   2.526   1.281   8.064  0.5813 -0.0651 -0.1603
 1418TIP3    H128449   2.453   1.320   8.016 -0.1388 -1.0908  0.0575
 1418TIP3    H228450   2.539   1.196   8.022  1.8028  0.1899 -0.3291
 1419TIP3   OH228451   5.685   3.396   8.391  0.1176 -0.5700 -0.3228
 1419TIP3    H128452   5.699   3.332   8.460  2.0006 -0.9664 -1.0099
 1419TIP3    H228453   5.754   3.461   8.404  0.8145 -0.9052 -2.0866
 1420TIP3   OH228454   3.845   5.665   7.071 -0.3712  0.2828  0.7741
 1420TIP3    H128455   3.841   5.735   7.005  0.8450 -0.5110 -0.1918
 1420TIP3    H228456   3.860   5.586   7.020 -1.3566 -0.6509  1.8833
 1421TIP3   OH228457   5.782   6.188   8.142 -0.1082 -0.3264  0.0472
 1421TIP3    H128458   5.801   6.128   8.214 -2.0577 -0.8599  0.1542
 1421TIP3    H228459   5.724   6.253   8.179 -0.2346  0.0394 -0.7756
 1422TIP3   OH228460   2.748   6.090   8.469 -0.2233 -0.1708  0.2710
 1422TIP3    H128461   2.764   6.109   8.377  0.5642 -1.6865  0.0714
 1422TIP3    H228462   2.699   6.008   8.469  1.0794 -0.9800  1.2277
 1423TIP3   OH228463   2.747   4.174   6.565 -0.1303 -0.5096  0.3036
 1423TIP3    H128464   2.778   4.099   6.514 -0.1831  0.5441 -1.3366
 1423TIP3    H228465   2.675   4.139   6.617 -1.2759 -1.2589 -1.6826
 1424TIP3   OH228466   3.233   7.307   9.566  0.1030  0.0662  0.1347
 1424TIP3    H128467   3.144   7.336   9.548  0.7738  1.2197 -1.5954
 1424TIP3    H228468   3.268   7.373   9.626 -0.3512 -0.7050  1.2883
 1425TIP3   OH228469   2.322   5.741   9.443  0.1300  0.1304 -0.1691
 1425TIP3    H128470   2.323   5.751   9.538  0.5140 -0.8034 -0.0702
 1425TIP3    H228471   2.383   5.808   9.411  1.9894 -1.1931  0.4285
 1426TIP3   OH228472   0.491   3.486   8.274 -0.0216 -0.3534  0.4802
 1426TIP3    H128473   0.506   3.413   8.213 -0.4164 -1.5950  1.8041
 1426TIP3    H228474   0.577   3.503   8.312  0.2916  0.6391 -0.6004
 1427TIP3   OH228475   4.969   1.627   8.802 -0.1085 -0.0447 -0.2425
 1427TIP3    H128476   4.909   1.676   8.858  0.1457  0.8125 -0.7009
 1427TIP3    H228477   5.056   1.650   8.833  0.0287  0.2702 -0.8455
 1428TIP3   OH228478   2.471   0.640   8.427  0.2276  0.4930  0.0063
 1428TIP3    H128479   2.448   0.651   8.334  1.0155  0.7456 -0.1766
 1428TIP3    H228480   2.552   0.588   8.425 -0.6182 -0.8794  0.6409
 1429TIP3   OH228481   1.338   7.059   7.431 -0.1432 -0.2000 -0.5587
 1429TIP3    H128482   1.277   7.083   7.361  0.3320 -0.7530 -1.1712
 1429TIP3    H228483   1.424   7.056   7.389 -0.0862 -2.4472 -0.4267
 1430TIP3   OH228484   6.728   1.334   7.102  0.3751  0.4473 -0.2668
 1430TIP3    H128485   6.736   1.402   7.035  0.5743 -0.2510 -0.9784
 1430TIP3    H228486   6.700   1.256   7.053 -1.3128  0.3835  0.7553
 1431TIP3   OH228487   4.926   5.998   7.396  0.0637 -0.1476  0.4639
 1431TIP3    H128488   4.879   6.055   7.457 -0.9055  1.5891 -1.7875
 1431TIP3    H228489   4.996   6.053   7.361  0.1014 -0.8350 -0.5888
 1432TIP3   OH228490   5.213   6.515   8.742 -0.3835 -0.0404  0.1670
 1432TIP3    H128491   5.223   6.423   8.766 -1.1056 -0.2579 -0.3305
 1432TIP3    H228492   5.299   6.553   8.755 -0.3070 -0.5633  1.3227
 1433TIP3   OH228493   6.380   6.644   9.223 -0.5342 -0.4800 -0.1526
 1433TIP3    H128494   6.461   6.639   9.172 -0.5318  0.2606 -0.2335
 1433TIP3    H228495   6.408   6.633   9.314 -0.1938  0.8767 -0.0804
 1434TIP3   OH228496   4.512   3.633   9.250 -0.0665  0.0548 -0.0714
 1434TIP3    H128497   4.497   3.708   9.306  0.8735  0.3420 -0.1867
 1434TIP3    H228498   4.598   3.648   9.212 -0.2917 -0.5905 -0.8732
 1435TIP3   OH228499   2.362   2.573   6.966 -0.0947  0.0867  0.5929
 1435TIP3    H128500   2.273   2.595   6.939  0.0697  0.7263  0.5385
 1435TIP3    H228501   2.417   2.629   6.911  0.4619 -1.8822 -0.9688
 1436TIP3   OH228502   0.217   4.434   7.828 -0.0716 -0.2840  0.2413
 1436TIP3    H128503   0.122   4.429   7.829 -0.0639 -4.1541  1.7147
 1436TIP3    H228504   0.243   4.426   7.920  1.7671  2.3287  0.0640
 1437TIP3   OH228505   5.415   1.839   8.312 -0.0125  0.2520 -0.0884
 1437TIP3    H128506   5.464   1.821   8.392  2.1623  1.1042 -1.1305
 1437TIP3    H228507   5.387   1.930   8.320  1.6421  0.8750 -0.9317
 1438TIP3   OH228508   3.119   4.218   7.692 -0.4646 -0.2479 -0.6010
 1438TIP3    H128509   3.076   4.278   7.752  3.7239  2.2752  0.2970
 1438TIP3    H228510   3.144   4.273   7.617  0.9498 -1.5357 -1.1327
 1439TIP3   OH228511   5.726   6.084   7.540 -0.3861 -0.1141  0.1993
 1439TIP3    H128512   5.818   6.058   7.540 -0.1605  0.5975  1.5277
 1439TIP3    H228513   5.696   6.067   7.450  0.1629 -3.2895  0.5154
 1440TIP3   OH228514   4.006   7.095   7.249 -0.1758 -0.6652  0.4780
 1440TIP3    H128515   4.046   7.128   7.169 -1.2253  0.3617  0.3382
 1440TIP3    H228516   3.912   7.110   7.237 -0.7759 -3.7575  0.4152
 1441TIP3   OH228517   0.477   1.078   8.282 -0.3033 -0.2312 -0.3851
 1441TIP3    H128518   0.521   1.001   8.246 -0.6453 -0.4347 -0.3736
 1441TIP3    H228519   0.399   1.044   8.324 -0.4062  0.1132 -0.2899
 1442TIP3   OH228520   4.442   6.904   7.573 -0.5410  0.3606 -0.4422
 1442TIP3    H128521   4.462   6.970   7.507  0.6984  1.1907  0.7102
 1442TIP3    H228522   4.509   6.916   7.641 -0.6574 -1.6614  0.1094
 1443TIP3   OH228523   1.368   4.493   8.052  0.9138 -0.1460 -0.6446
 1443TIP3    H128524   1.410   4.475   8.136  1.2292  0.7888 -0.5939
 1443TIP3    H228525   1.441   4.509   7.992  0.6742 -0.2944 -0.9834
 1444TIP3   OH228526   1.818   0.164   7.699 -0.5977 -0.0002  0.1826
 1444TIP3    H128527   1.752   0.230   7.679 -0.8472  0.0209  1.0690
 1444TIP3    H228528   1.869   0.157   7.618 -0.6514  1.1685  0.0301
 1445TIP3   OH228529   2.628   3.681   6.958  0.1779 -0.2311 -0.0563
 1445TIP3    H128530   2.680   3.643   6.887  0.0358  0.0252 -0.3005
 1445TIP3    H228531   2.692   3.728   7.012  0.2641 -0.3034 -0.0960
 1446TIP3   OH228532   5.904   0.024   7.165  0.1689  0.2209 -0.2673
 1446TIP3    H128533   5.837  -0.039   7.192 -0.9152  2.4049  2.6702
 1446TIP3    H228534   5.875   0.053   7.078  0.9098 -3.3823 -1.9129
 1447TIP3   OH228535   5.384   6.261   8.629  0.0596 -0.2397 -0.3220
 1447TIP3    H128536   5.401   6.178   8.584  1.1865 -0.4553  0.4528
 1447TIP3    H228537   5.313   6.242   8.690 -1.0270 -0.1115 -1.5195
 1448TIP3   OH228538   0.915   2.226   6.793 -0.1236  0.0975 -0.5908
 1448TIP3    H128539   0.993   2.171   6.804  0.2091  0.7979  0.9450
 1448TIP3    H228540   0.950   2.314   6.779 -0.6386  0.3468 -0.3314
 1449TIP3   OH228541   6.082   6.102   8.661  0.5994 -0.6130 -0.6290
 1449TIP3    H128542   6.092   6.182   8.713  2.7420 -0.8426 -0.5814
 1449TIP3    H228543   6.077   6.134   8.570 -0.9960 -0.3221 -0.4543
 1450TIP3   OH228544   2.412   6.533   8.350  0.3845 -0.4374  0.4495
 1450TIP3    H128545   2.325   6.553   8.314  0.6357 -0.2355 -0.0627
 1450TIP3    H228546   2.395   6.492   8.435 -0.1983  0.3783  0.7413
 1451TIP3   OH228547   0.826   7.128   8.093 -0.3915 -0.6316 -0.0487
 1451TIP3    H128548   0.733   7.109   8.082 -0.2824 -0.8903 -0.5257
 1451TIP3    H228549   0.852   7.076   8.169 -0.6285 -0.5692  0.0791
 1452TIP3   OH228550   2.823   3.602   8.741 -0.4411 -0.4284  0.0850
 1452TIP3    H128551   2.841   3.580   8.833  0.3203  0.5173  0.1839
 1452TIP3    H228552   2.768   3.680   8.746  0.8796  0.5596 -0.2403
 1453TIP3   OH228553   4.908   7.025   8.201  0.2827  0.1902  0.1677
 1453TIP3    H128554   4.849   6.960   8.239  0.7806  0.4763  1.4662
 1453TIP3    H228555   4.866   7.049   8.118  0.5442 -2.4143 -0.8088
 1454TIP3   OH228556   5.790   5.929   9.222 -0.5424 -0.2416  0.3548
 1454TIP3    H128557   5.721   5.986   9.189  0.7258  0.3301 -1.4519
 1454TIP3    H228558   5.780   5.848   9.172  0.6170  0.1647 -0.5668
 1455TIP3   OH228559   3.021   1.010   7.343  0.1630 -0.4138  0.8555
 1455TIP3    H128560   3.004   0.962   7.424 -1.5597 -0.4997  0.4674
 1455TIP3    H228561   3.006   0.946   7.274  1.2663 -0.2358  0.4318
 1456TIP3   OH228562   5.047   2.191   8.428 -0.1159  0.0556 -0.1431
 1456TIP3    H128563   5.092   2.111   8.457  0.5515  1.4271  2.9056
 1456TIP3    H228564   4.955   2.165   8.420  0.3480 -1.4496 -1.2134
 1457TIP3   OH228565   5.686   5.256   9.209  0.2818  0.0061 -0.2818
 1457TIP3    H128566   5.654   5.317   9.275 -1.3467  1.1187 -1.9621
 1457TIP3    H228567   5.752   5.306   9.161 -1.0107  0.4999 -1.6235
 1458TIP3   OH228568   6.627   3.219   9.287  0.8950  0.6886  0.0711
 1458TIP3    H128569   6.621   3.162   9.210 -0.1617  0.5145  0.2768
 1458TIP3    H228570   6.702   3.183   9.335  0.1497 -0.6595  0.2851
 1459TIP3   OH228571   5.484   5.290   8.033  0.3901 -0.6003  0.0664
 1459TIP3    H128572   5.427   5.366   8.029  0.4980 -0.5734 -1.4478
 1459TIP3    H228573   5.430   5.220   8.069  0.3073  0.1833  1.5180
 1460TIP3   OH228574   5.388   2.653   7.659  0.3000 -0.9299 -0.8120
 1460TIP3    H128575   5.369   2.723   7.596  0.2277 -0.3698 -0.1846
 1460TIP3    H228576   5.350   2.575   7.620 -0.4946 -0.4316 -1.0658
 1461TIP3   OH228577   4.883   4.453   8.211  0.5221 -0.3784 -0.2761
 1461TIP3    H128578   4.965   4.423   8.172 -0.1438 -0.2759 -1.8108
 1461TIP3    H228579   4.814   4.409   8.161 -0.4265  1.6226 -0.8708
 1462TIP3   OH228580   5.117   0.878   7.429 -0.0246 -0.3301  0.2346
 1462TIP3    H128581   5.101   0.956   7.376  2.7574 -0.6653 -1.2982
 1462TIP3    H228582   5.041   0.822   7.415 -0.3011  0.4951 -1.7962
 1463TIP3   OH228583   1.048   7.286   9.327 -0.1612 -0.2632 -0.6557
 1463TIP3    H128584   1.119   7.265   9.267  0.3410  0.2090 -0.2373
 1463TIP3    H228585   0.974   7.233   9.297  0.4012 -0.8426 -1.0252
 1464TIP3   OH228586   2.227   2.574   9.331  0.1020 -0.6236 -0.0353
 1464TIP3    H128587   2.300   2.606   9.383 -0.5485  0.7216  0.1010
 1464TIP3    H228588   2.236   2.620   9.247 -0.8314 -0.0788  0.1475
 1465TIP3   OH228589   6.516   7.678   7.608 -0.7840  0.6383  0.5168
 1465TIP3    H128590   6.557   7.760   7.583  1.5891 -0.1703  1.4467
 1465TIP3    H228591   6.589   7.616   7.617 -2.4533 -1.5233  0.0713
 1466TIP3   OH228592   4.757   5.072   8.808  0.0418 -0.8445  0.1711
 1466TIP3    H128593   4.676   5.104   8.769 -0.0034 -0.4556  0.5756
 1466TIP3    H228594   4.766   4.983   8.775 -0.2482 -0.6894 -0.3330
 1467TIP3   OH228595   5.509   4.250   9.314 -0.4076 -0.0416 -0.1405
 1467TIP3    H128596   5.569   4.284   9.380 -0.4871 -1.4847  0.7358
 1467TIP3    H228597   5.499   4.321   9.251 -0.0687  1.2802  1.2243
 1468TIP3   OH228598   4.878   3.438   9.025 -0.2095 -0.3297  1.1652
 1468TIP3    H128599   4.824   3.502   8.978 -2.5006 -3.5899 -1.1111
 1468TIP3    H228600   4.823   3.410   9.098 -0.1615 -1.2129  0.8689
 1469TIP3   OH228601   0.024   6.101   7.038  0.2550  0.2033  0.2735
 1469TIP3    H128602   0.066   6.163   6.979  2.3260 -0.1701  1.2680
 1469TIP3    H228603   0.050   6.014   7.006 -0.0931 -0.0666  0.6958
 1470TIP3   OH228604   5.931   1.033   6.672 -0.0778 -0.3315  0.4756
 1470TIP3    H128605   6.000   1.074   6.725 -0.3164 -0.6405  1.0326
 1470TIP3    H228606   5.867   1.103   6.657  0.6005  0.1147 -0.5112
 1471TIP3   OH228607   3.480   6.333   8.936 -0.0187  0.1592  0.3656
 1471TIP3    H128608   3.530   6.404   8.896 -1.0229  0.2223 -0.8262
 1471TIP3    H228609   3.413   6.378   8.988  1.2932  0.0806  2.2489
 1472TIP3   OH228610   2.194   2.348   9.522 -0.0089 -0.3033 -0.0459
 1472TIP3    H128611   2.193   2.428   9.469  2.4590  1.0295  1.6868
 1472TIP3    H228612   2.105   2.339   9.555 -0.0611  2.7362  0.9705
 1473TIP3   OH228613   3.365   0.473   8.946  0.3372 -0.4253  0.6813
 1473TIP3    H128614   3.284   0.438   8.982 -0.6398  0.1036 -0.9252
 1473TIP3    H228615   3.428   0.401   8.955 -0.5965 -1.2315  0.9259
 1474TIP3   OH228616   3.760   2.903   9.936 -0.4209 -0.7252 -0.0982
 1474TIP3    H128617   3.761   2.812   9.966 -0.4672 -0.5755  0.3724
 1474TIP3    H228618   3.845   2.915   9.894  0.3361 -0.4776  1.4250
 1475TIP3   OH228619   0.956   7.484   8.367  0.3950 -0.1090  0.0677
 1475TIP3    H128620   0.887   7.493   8.302 -0.6257 -0.6568  1.0441
 1475TIP3    H228621   1.000   7.570   8.368  1.7858 -0.6719 -2.7486
 1476TIP3   OH228622   7.009   6.132   8.691  0.9619  0.2901  0.4012
 1476TIP3    H128623   6.989   6.052   8.740 -0.7858 -0.3926 -1.2961
 1476TIP3    H228624   6.933   6.188   8.704  1.2324  0.7845 -0.1163
 1477TIP3   OH228625   4.941   2.394   8.633 -0.2953 -0.3224 -0.0114
 1477TIP3    H128626   4.974   2.387   8.723 -0.6945  1.0073  0.2659
 1477TIP3    H228627   5.020   2.398   8.579 -0.0167  0.1853  0.4127
 1478TIP3   OH228628   7.206   7.495   6.544  0.2823 -0.0217  0.1503
 1478TIP3    H128629   7.273   7.529   6.485 -0.8616 -0.8708 -1.7510
 1478TIP3    H228630   7.221   7.401   6.545  0.1299 -0.0388  1.0336
 1479TIP3   OH228631   5.551   4.466   8.657 -0.0901 -0.7541 -0.6117
 1479TIP3    H128632   5.474   4.518   8.677 -0.9124 -2.1409 -0.0291
 1479TIP3    H228633   5.558   4.404   8.730  2.4891  0.3177  0.1651
 1480TIP3   OH228634   3.019   0.706   9.415  0.3422 -0.5170  0.0650
 1480TIP3    H128635   2.968   0.655   9.478  2.9755 -2.1822  1.0159
 1480TIP3    H228636   3.037   0.789   9.460  1.5670 -1.4027  1.3013
 1481TIP3   OH228637   1.024   3.245   6.478 -0.1081 -0.4281  0.1416
 1481TIP3    H128638   1.046   3.198   6.558  0.2328 -0.2587  0.1481
 1481TIP3    H228639   1.102   3.236   6.423  0.4887  1.2439  0.6495
 1482TIP3   OH228640   1.117   2.594   7.475 -0.4687 -0.0933 -0.0199
 1482TIP3    H128641   1.028   2.566   7.453 -0.5516  1.2293 -1.6086
 1482TIP3    H228642   1.174   2.530   7.432 -0.6611  0.0134 -0.4394
 1483TIP3   OH228643   4.185   3.838   9.449 -0.4402 -0.1139 -0.6202
 1483TIP3    H128644   4.277   3.846   9.425 -0.4189  1.3897 -0.1482
 1483TIP3    H228645   4.177   3.750   9.486  0.9361 -0.0581 -0.1321
 1484TIP3   OH228646   4.045   1.365   8.875 -0.2145  0.0303 -0.1294
 1484TIP3    H128647   3.971   1.425   8.869  0.5153  1.0304  0.3828
 1484TIP3    H228648   4.018   1.298   8.938 -0.8829  0.0741 -0.3696
 1485TIP3   OH228649   0.390   5.333   7.707  0.0037 -0.2050  0.0847
 1485TIP3    H128650   0.353   5.419   7.690  1.0259  0.1145 -0.6692
 1485TIP3    H228651   0.480   5.339   7.675 -0.3494 -2.0156 -1.4626
 1486TIP3   OH228652   5.440   4.346   7.740 -0.3725  0.1163 -0.6002
 1486TIP3    H128653   5.366   4.296   7.704 -0.7127  0.4895 -0.4326
 1486TIP3    H228654   5.485   4.381   7.663 -0.4768  0.0346 -0.6990
 1487TIP3   OH228655   2.492   5.260   8.994  0.5028 -0.6620 -0.1106
 1487TIP3    H128656   2.514   5.227   9.081  1.7903  2.2759  0.8163
 1487TIP3    H228657   2.402   5.292   9.003  0.3196 -1.1768 -0.1197
 1488TIP3   OH228658   2.940   6.848   9.413  0.7033 -0.2598 -0.0958
 1488TIP3    H128659   2.949   6.754   9.430 -2.2548 -0.6649 -0.2592
 1488TIP3    H228660   2.908   6.853   9.323 -0.6427  0.7630  0.4065
 1489TIP3   OH228661   0.185   6.136   9.324  0.2178  0.2132  0.4587
 1489TIP3    H128662   0.124   6.097   9.386  0.6263 -0.1692  0.6235
 1489TIP3    H228663   0.139   6.212   9.290 -0.4593 -0.2193  0.3880
 1490TIP3   OH228664   7.531   2.480   8.463 -0.5203  0.3781 -0.7756
 1490TIP3    H128665   7.454   2.434   8.431 -0.1921 -0.8225  0.0843
 1490TIP3    H228666   7.592   2.410   8.487  0.4036  1.2869 -0.4091
 1491TIP3   OH228667   0.922   1.068   9.334  0.6222 -0.3313 -0.1016
 1491TIP3    H128668   0.870   1.052   9.413  0.5506 -0.5379 -0.1885
 1491TIP3    H228669   0.947   0.980   9.304  0.5422 -0.2593 -0.3798
 1492TIP3   OH228670   7.440   5.371   9.289 -0.1977  0.3249  0.5560
 1492TIP3    H128671   7.385   5.352   9.364 -2.1382  0.6433 -0.6989
 1492TIP3    H228672   7.450   5.467   9.290 -1.6024  0.5178 -0.4293
 1493TIP3   OH228673   5.853   6.026   8.875  0.0995  0.3270  0.0504
 1493TIP3    H128674   5.903   5.972   8.936  1.2541  1.3892  0.0942
 1493TIP3    H228675   5.883   5.999   8.788 -0.5966 -0.2885 -0.0057
 1494TIP3   OH228676   7.083   1.178   6.747 -0.3374 -0.0795  0.0405
 1494TIP3    H128677   6.999   1.170   6.702 -1.0398  0.6504  1.1676
 1494TIP3    H228678   7.108   1.269   6.736 -0.5367  0.1228  1.1085
 1495TIP3   OH228679   4.068   4.603   8.662 -0.6938 -0.1428  0.2843
 1495TIP3    H128680   4.081   4.698   8.667  0.0234 -0.2142 -0.1153
 1495TIP3    H228681   3.975   4.591   8.681 -0.8798  0.6795 -0.0386
 1496TIP3   OH228682   2.157   5.903   8.205 -0.0779  0.8127 -0.1357
 1496TIP3    H128683   2.139   5.883   8.297  0.1645 -0.2735 -0.3113
 1496TIP3    H228684   2.251   5.888   8.195  0.1788  2.3548 -0.2220
 1497TIP3   OH228685   0.640   5.247   8.623 -0.1664 -0.1770 -0.3811
 1497TIP3    H128686   0.729   5.278   8.643  0.9273 -2.8376 -0.6669
 1497TIP3    H228687   0.583   5.305   8.674  1.6985  1.5766 -0.1162
 1498TIP3   OH228688   1.439   3.432   7.542  0.1058  0.3807  0.1506
 1498TIP3    H128689   1.475   3.345   7.522  0.5531  0.3849  0.9383
 1498TIP3    H228690   1.480   3.489   7.477 -0.6054 -0.0688 -0.7312
 1499TIP3   OH228691   3.146   4.158   8.177 -0.3919  0.3434  0.0838
 1499TIP3    H128692   3.239   4.170   8.157 -0.0857 -1.6785  0.0875
 1499TIP3    H228693   3.144   4.149   8.273 -0.6038  0.4565  0.0906
 1500TIP3   OH228694   0.070   6.746   7.977  0.1451  0.4764 -0.3839
 1500TIP3    H128695   0.035   6.659   7.957  1.0156  0.1830 -0.6776
 1500TIP3    H228696   0.165   6.733   7.980  0.2987  1.4853 -0.7612
 1501TIP3   OH228697   3.364   7.554   9.368 -0.0748 -0.8707 -0.2525
 1501TIP3    H128698   3.304   7.622   9.400  0.9320  0.2833 -0.7429
 1501TIP3    H228699   3.317   7.512   9.296 -1.1212 -1.4258  0.7032
 1502TIP3   OH228700   1.186   5.905   6.901  0.0889  0.1012 -0.1629
 1502TIP3    H128701   1.091   5.902   6.913 -0.0159  1.5366 -0.5127
 1502TIP3    H228702   1.218   5.953   6.977  0.4012  0.7730 -0.7118
 1503TIP3   OH228703   7.509   3.144   7.741  0.8230  0.7010  0.8208
 1503TIP3    H128704   7.490   3.227   7.699 -0.7072  0.1914  0.4172
 1503TIP3    H228705   7.548   3.167   7.825  1.0636  1.8037  0.4112
 1504TIP3   OH228706   6.541   5.626   8.526  0.4885  0.0723 -0.0088
 1504TIP3    H128707   6.544   5.657   8.616  0.1469 -0.2118  0.1045
 1504TIP3    H228708   6.467   5.565   8.524  1.1400 -0.7274 -0.2227
 1505TIP3   OH228709   5.777   4.584   8.874 -0.5070 -0.0011 -0.2708
 1505TIP3    H128710   5.718   4.523   8.918 -0.3471 -1.1484 -1.5729
 1505TIP3    H228711   5.720   4.639   8.820 -0.5279 -0.0897 -0.3408
 1506TIP3   OH228712   3.638   3.055   7.939  0.2075  0.5419  0.1512
 1506TIP3    H128713   3.701   3.059   7.867  0.3030  0.4687  0.2313
 1506TIP3    H228714   3.666   2.980   7.991  0.6758  1.1289  0.7649
 1507TIP3   OH228715   3.825   3.592   8.509  0.2760 -0.0509 -0.1833
 1507TIP3    H128716   3.919   3.607   8.494  0.2898  0.0487  0.0050
 1507TIP3    H228717   3.822   3.536   8.587  0.1684  0.2032 -0.0038
 1508TIP3   OH228718   7.447   1.825   9.563  0.1022 -0.6757  0.1148
 1508TIP3    H128719   7.430   1.911   9.602  0.4971 -1.0609  1.1541
 1508TIP3    H228720   7.493   1.845   9.481  1.2819  0.0679  0.9331
 1509TIP3   OH228721   4.885   4.536   9.017 -0.0670 -0.0615  0.2214
 1509TIP3    H128722   4.798   4.575   9.014 -0.4237 -0.8940 -0.5018
 1509TIP3    H228723   4.897   4.511   9.109 -0.4791  0.2690  0.3686
 1510TIP3   OH228724   6.258   6.465   8.441  0.1796 -0.3583  0.0302
 1510TIP3    H128725   6.239   6.434   8.529 -0.4159  0.6874  0.2875
 1510TIP3    H228726   6.173   6.484   8.403  0.4884  2.7811  0.5931
 1511TIP3   OH228727   5.910   0.577   8.399 -0.1484  0.1314 -0.1067
 1511TIP3    H128728   5.877   0.523   8.328 -0.3180  0.3896 -0.2265
 1511TIP3    H228729   5.864   0.661   8.389  0.0600  0.2746  0.1156
 1512TIP3   OH228730   7.587   6.409   6.483  0.1234  0.1604  0.6143
 1512TIP3    H128731   7.635   6.477   6.435  1.4003 -1.0937  0.0366
 1512TIP3    H228732   7.655   6.351   6.516 -0.9731 -2.4391 -1.3398
 1513TIP3   OH228733   4.496   3.867   9.389 -0.2940  0.2313  0.7233
 1513TIP3    H128734   4.589   3.852   9.400 -0.2134 -0.5956 -0.7504
 1513TIP3    H228735   4.490   3.957   9.355 -0.0843  0.4738  1.3201
 1514TIP3   OH228736   1.918   0.524   8.555  0.7600 -0.7562 -0.5831
 1514TIP3    H128737   1.978   0.536   8.629 -1.1873 -0.9695  1.1083
 1514TIP3    H228738   1.871   0.607   8.549 -1.2705 -1.7577  0.5152
 1515TIP3   OH228739   2.452   6.465   7.172  0.3081 -0.1737 -0.0773
 1515TIP3    H128740   2.455   6.560   7.186 -1.4038  0.0084 -0.7051
 1515TIP3    H228741   2.490   6.453   7.085 -0.0733  0.0033 -0.2673
 1516TIP3   OH228742   2.236   4.432   8.953 -0.1536  0.1326 -0.2787
 1516TIP3    H128743   2.271   4.369   8.889 -0.8175 -0.0284 -0.4910
 1516TIP3    H228744   2.195   4.500   8.899 -0.7219 -0.0069 -0.0326
 1517TIP3   OH228745   0.816   0.972   7.837 -0.3408  0.4717  0.1766
 1517TIP3    H128746   0.746   1.019   7.882  1.7772  1.5919  2.5212
 1517TIP3    H228747   0.866   1.041   7.793  0.5901 -0.0402  0.4256
 1518TIP3   OH228748   7.130   0.797   9.325  0.7823  0.1323 -0.2144
 1518TIP3    H128749   7.149   0.882   9.284 -2.7617  1.9538  1.4827
 1518TIP3    H228750   7.159   0.809   9.416 -0.0472 -0.3522  0.1153
 1519TIP3   OH228751   2.104   2.174   6.620 -0.3149 -0.2700 -0.1117
 1519TIP3    H128752   2.032   2.110   6.623 -2.5361  2.0665  1.9288
 1519TIP3    H228753   2.091   2.221   6.538 -1.7009  0.6297  0.5768
 1520TIP3   OH228754   6.348   0.121   9.513 -0.4032  0.4765  0.8008
 1520TIP3    H128755   6.263   0.104   9.552 -0.6763  0.3920  0.1793
 1520TIP3    H228756   6.392   0.180   9.575 -1.3888  1.5142  0.5459
 1521TIP3   OH228757   2.402   3.900   8.332 -0.3872  0.4653  0.0755
 1521TIP3    H128758   2.481   3.951   8.350 -1.2066  1.5802  0.6348
 1521TIP3    H228759   2.430   3.809   8.343  0.7343  0.8461  0.5877
 1522TIP3   OH228760   5.826   1.817   8.472 -0.1822  0.7871  0.6011
 1522TIP3    H128761   5.782   1.814   8.557 -2.2898  0.1158 -0.4431
 1522TIP3    H228762   5.772   1.876   8.419  0.1176 -0.0777 -0.7363
 1523TIP3   OH228763   5.222   1.002   7.642  0.3608 -0.6821 -0.3106
 1523TIP3    H128764   5.190   0.932   7.585  1.7101  0.6246 -2.8522
 1523TIP3    H228765   5.205   1.082   7.592 -0.4732  0.7814  2.1892
 1524TIP3   OH228766   4.292   3.950   9.094 -0.1695  0.7271 -0.0523
 1524TIP3    H128767   4.289   4.033   9.047  1.1636  1.2497  0.7227
 1524TIP3    H228768   4.354   3.966   9.165  0.2403 -0.9842  0.0024
 1525TIP3   OH228769   5.091   1.784   8.271  0.5637 -0.5196  0.0719
 1525TIP3    H128770   5.182   1.774   8.299  0.5239 -0.8671  0.0869
 1525TIP3    H228771   5.053   1.845   8.335  0.3078 -1.7879  1.1790
 1526TIP3   OH228772   0.663   0.698   7.909 -0.4837  0.6629  0.0672
 1526TIP3    H128773   0.715   0.618   7.896  0.1272  1.1819 -0.8423
 1526TIP3    H228774   0.721   0.768   7.879 -1.2872  1.3714  0.1512
 1527TIP3   OH228775   3.708   1.329   8.485 -0.5565  0.1946 -0.5204
 1527TIP3    H128776   3.619   1.363   8.491  0.3857  3.0713 -1.1957
 1527TIP3    H228777   3.701   1.238   8.514 -3.4786  0.6504  0.5523
 1528TIP3   OH228778   5.449   6.621   8.797  0.4122 -0.2280  0.3620
 1528TIP3    H128779   5.472   6.661   8.713 -0.6531 -0.7542 -0.1883
 1528TIP3    H228780   5.460   6.692   8.861 -0.6061  0.7299 -0.4849
 1529TIP3   OH228781   3.144   0.355   9.040 -0.3138 -0.3512  0.3486
 1529TIP3    H128782   3.090   0.434   9.052  0.1265 -0.2134  1.5611
 1529TIP3    H228783   3.144   0.313   9.126  0.3004 -1.1384 -0.0257
 1530TIP3   OH228784   6.558   5.825   8.744 -0.1796 -0.0765  0.5987
 1530TIP3    H128785   6.578   5.900   8.800  1.5165 -0.5226  0.6454
 1530TIP3    H228786   6.505   5.862   8.673  1.6806  1.4615 -0.0736
 1531TIP3   OH228787   4.569   5.518   8.073  0.5026  0.0056  0.2728
 1531TIP3    H128788   4.654   5.554   8.100  0.4907  1.6284 -1.6450
 1531TIP3    H228789   4.589   5.464   7.997  0.0120 -1.0479  0.8709
 1532TIP3   OH228790   1.806   4.774   9.494  0.1634 -0.2418 -0.0905
 1532TIP3    H128791   1.822   4.775   9.399 -0.4787  2.2559 -0.2562
 1532TIP3    H228792   1.892   4.755   9.532  0.6040 -0.4974 -1.1543
 1533TIP3   OH228793   6.024   1.605   8.866  0.2685 -0.7708  0.2892
 1533TIP3    H128794   6.041   1.519   8.828 -1.5573 -1.6637  1.3353
 1533TIP3    H228795   6.045   1.667   8.797 -0.5619 -2.1853 -1.2966
 1534TIP3   OH228796   5.131   3.302   7.683  0.7484 -0.4378  0.5520
 1534TIP3    H128797   5.122   3.262   7.770  0.2065 -1.1851  0.1648
 1534TIP3    H228798   5.180   3.237   7.633 -1.0984 -1.1763 -0.4118
 1535TIP3   OH228799   0.143   2.016   9.099  0.1122 -0.4120 -0.1484
 1535TIP3    H128800   0.172   1.926   9.090  0.1114 -0.1857 -4.2574
 1535TIP3    H228801   0.223   2.068   9.090 -0.2278  0.0222 -0.7473
 1536TIP3   OH228802   2.536   0.165   6.908  0.4193 -0.2947  0.1154
 1536TIP3    H128803   2.621   0.158   6.864  0.0285  0.1985 -0.7450
 1536TIP3    H228804   2.490   0.084   6.883 -0.1198  0.3648 -1.1129
 1537TIP3   OH228805   7.230   1.686   7.665 -0.1191  0.9041 -0.2640
 1537TIP3    H128806   7.299   1.688   7.598  0.2603 -0.0800  0.0840
 1537TIP3    H228807   7.267   1.634   7.736 -1.7191 -0.8016 -0.6244
 1538TIP3   OH228808   3.781   3.276   8.014  0.4656  0.0568  0.7469
 1538TIP3    H128809   3.725   3.333   8.067  0.4836  0.1430  0.6728
 1538TIP3    H228810   3.724   3.204   7.988  0.3077  0.2989  0.4191
 1539TIP3   OH228811   6.263   0.941   8.850 -0.7208  0.4859 -0.3025
 1539TIP3    H128812   6.199   1.011   8.839 -1.5720 -0.4146 -1.4090
 1539TIP3    H228813   6.237   0.875   8.786 -0.4575 -1.2073  1.2560
 1540TIP3   OH228814   6.523   1.064   9.168 -0.0063  0.0298  0.7285
 1540TIP3    H128815   6.530   1.159   9.175  4.1022 -0.0450 -0.1278
 1540TIP3    H228816   6.535   1.045   9.075 -0.6760 -1.3719  0.8935
 1541TIP3   OH228817   6.264   5.269   6.875  0.0359  0.2812 -0.3881
 1541TIP3    H128818   6.304   5.303   6.955 -1.2586  1.3275 -0.1605
 1541TIP3    H228819   6.260   5.344   6.815 -0.3103 -0.1433 -0.9112
 1542TIP3   OH228820   0.648   0.366   9.521 -0.1288  0.3960  0.1982
 1542TIP3    H128821   0.692   0.400   9.443 -1.3444  0.0708 -0.6584
 1542TIP3    H228822   0.600   0.442   9.556 -0.2208  0.3509  0.1704
 1543TIP3   OH228823   2.929   1.125   9.456 -0.0686 -0.0217  0.8310
 1543TIP3    H128824   2.870   1.081   9.395 -1.6289  2.0413  0.7402
 1543TIP3    H228825   2.908   1.087   9.541 -3.5475  2.3741  1.2554
 1544TIP3   OH228826   7.115   3.210   8.871  0.3165  0.2046  0.2137
 1544TIP3    H128827   7.067   3.293   8.866  0.6909  0.3612 -1.8210
 1544TIP3    H228828   7.203   3.236   8.899  0.1924  0.4010  0.4215
 1545TIP3   OH228829   3.255   7.646   7.787  0.5744 -0.3471 -0.3053
 1545TIP3    H128830   3.347   7.662   7.808  0.2755  0.6823  0.2970
 1545TIP3    H228831   3.255   7.625   7.694  1.6641 -2.6322  0.1536
 1546TIP3   OH228832   4.376   2.224   7.602 -0.0331 -0.0672 -0.1533
 1546TIP3    H128833   4.403   2.220   7.511 -0.7681 -1.0153 -0.3418
 1546TIP3    H228834   4.366   2.317   7.620  1.8712  0.2392 -0.4952
 1547TIP3   OH228835   6.843   0.398   7.011 -0.4574 -0.2018  0.1487
 1547TIP3    H128836   6.753   0.430   7.005 -0.2725  0.4876  0.8816
 1547TIP3    H228837   6.841   0.332   7.080  0.2212  2.2221  2.6258
 1548TIP3   OH228838   7.527   2.286   8.119 -0.4070  0.4655 -0.6970
 1548TIP3    H128839   7.565   2.199   8.131  0.4210  0.4947 -2.7051
 1548TIP3    H228840   7.601   2.346   8.125 -0.4389  0.7220 -2.3928
 1549TIP3   OH228841   5.114   4.033   8.912 -0.1842  0.4607  0.4293
 1549TIP3    H128842   5.102   4.128   8.918 -0.6065  0.4131  0.3891
 1549TIP3    H228843   5.026   3.997   8.923 -0.0282  0.0726  0.4366
 1550TIP3   OH228844   7.558   3.404   7.908 -0.0079  0.9009  0.4193
 1550TIP3    H128845   7.503   3.458   7.966  0.9107  1.3307  0.9016
 1550TIP3    H228846   7.608   3.349   7.968  0.0837  0.4956 -0.0266
 1551TIP3   OH228847   1.488   5.784   7.696 -0.1159  0.5835 -0.2169
 1551TIP3    H128848   1.582   5.778   7.710 -0.1805 -1.3219 -0.3089
 1551TIP3    H228849   1.450   5.757   7.780 -0.5640 -0.1791 -0.6570
 1552TIP3   OH228850   0.298   5.914   7.997 -0.3607 -0.1229 -0.1412
 1552TIP3    H128851   0.245   5.972   8.051 -0.8818 -0.7946  0.0929
 1552TIP3    H228852   0.276   5.937   7.907 -0.4917  0.1045 -0.0494
 1553TIP3   OH228853   3.863   4.206   8.204  0.0507 -0.2158  0.8834
 1553TIP3    H128854   3.824   4.285   8.242  0.2028  0.3208 -0.0386
 1553TIP3    H228855   3.808   4.135   8.235 -0.0859  0.2529  1.7357
 1554TIP3   OH228856   6.049   4.038   7.910  0.0173  0.5570 -0.6557
 1554TIP3    H128857   6.009   4.084   7.836 -0.5971  0.6039 -0.3017
 1554TIP3    H228858   6.042   3.945   7.887  1.5921  0.6186 -1.5420
 1555TIP3   OH228859   4.721   4.057   7.698 -0.5578  0.1215 -0.7699
 1555TIP3    H128860   4.781   4.069   7.624 -3.3569  1.0391 -3.0656
 1555TIP3    H228861   4.682   3.971   7.684 -0.8178  0.1301 -0.1207
 1556TIP3   OH228862   4.473   7.431   7.594  0.0401  0.2407 -0.2754
 1556TIP3    H128863   4.567   7.437   7.609 -0.1450  0.0423  1.1032
 1556TIP3    H228864   4.437   7.510   7.637 -0.3966  0.4825 -1.0670
 1557TIP3   OH228865   0.448   7.247   9.520  0.8619  0.3196 -0.2148
 1557TIP3    H128866   0.354   7.242   9.538  0.8681 -0.0814 -0.2720
 1557TIP3    H228867   0.489   7.202   9.594  1.0931  1.6644  0.4933
 1558TIP3   OH228868   6.055   3.791   8.563 -0.3817  0.6193 -0.1805
 1558TIP3    H128869   6.119   3.841   8.512 -1.6314  0.6628 -1.7826
 1558TIP3    H228870   6.078   3.809   8.654  2.0647  0.3842 -0.6735
 1559TIP3   OH228871   7.548   0.621   7.446  0.3557  0.1060 -0.0205
 1559TIP3    H128872   7.499   0.697   7.414 -0.3019 -0.4597 -0.3892
 1559TIP3    H228873   7.586   0.650   7.529 -0.2821  0.6922  0.0760
 1560TIP3   OH228874   3.063   2.915   8.515  0.5187  0.2809 -0.0100
 1560TIP3    H128875   2.986   2.860   8.527  0.1849  0.9372  0.9087
 1560TIP3    H228876   3.132   2.854   8.488 -0.5086 -0.2089 -1.7133
 1561TIP3   OH228877   3.866   6.013   8.818  0.2148 -0.3885 -0.5549
 1561TIP3    H128878   3.811   5.962   8.758  0.7341  1.7875 -3.0634
 1561TIP3    H228879   3.824   6.004   8.903 -1.8237 -1.8813 -1.6492
 1562TIP3   OH228880   2.573   6.838   8.006 -0.1671 -0.0522 -0.1826
 1562TIP3    H128881   2.662   6.845   8.041 -0.1027 -1.1223 -0.1116
 1562TIP3    H228882   2.524   6.906   8.053  0.1594 -0.7780  1.2554
 1563TIP3   OH228883   0.783   7.607   7.793  0.3956 -0.4761  0.6523
 1563TIP3    H128884   0.740   7.660   7.726  0.2428  1.0195  1.8876
 1563TIP3    H228885   0.817   7.532   7.745  1.7264  1.3263 -1.4280
 1564TIP3   OH228886   5.734   1.340   7.837  0.5035  0.1506 -0.4885
 1564TIP3    H128887   5.749   1.424   7.793  1.0742  0.4850  0.3098
 1564TIP3    H228888   5.760   1.274   7.773  0.8955  0.6052 -0.8050
 1565TIP3   OH228889   5.297   1.672   8.642 -0.8549  0.0546  1.0428
 1565TIP3    H128890   5.307   1.646   8.734 -0.2947 -0.1871  0.9185
 1565TIP3    H228891   5.232   1.741   8.644  0.5220  1.4020  1.8550
 1566TIP3   OH228892   5.461   6.024   8.038  0.0544  0.0881  0.0115
 1566TIP3    H128893   5.509   6.003   8.118 -0.2402  1.2555  0.5146
 1566TIP3    H228894   5.514   5.986   7.968  0.2971 -0.9821  0.7472
 1567TIP3   OH228895   0.447   3.982   7.451 -0.1609  0.6516 -0.3632
 1567TIP3    H128896   0.375   4.041   7.432 -1.5720 -1.3265 -1.5113
 1567TIP3    H228897   0.446   3.971   7.546 -1.6282  0.3663 -0.4000
 1568TIP3   OH228898   0.292   0.972   7.860  0.5632  0.2508  0.4234
 1568TIP3    H128899   0.205   0.942   7.835  1.1387  0.2902 -1.7832
 1568TIP3    H228900   0.277   1.054   7.907 -0.5521  0.8043 -0.8574
 1569TIP3   OH228901   1.416   6.272   7.211 -0.0208 -0.1902  0.6395
 1569TIP3    H128902   1.493   6.240   7.163 -0.9033 -2.0501  0.3738
 1569TIP3    H228903   1.418   6.367   7.198  2.6658 -0.0498  1.3352
 1570TIP3   OH228904   2.867   5.495   7.813 -0.3649  0.3573 -0.2591
 1570TIP3    H128905   2.905   5.410   7.834 -0.6712  0.1540 -0.5114
 1570TIP3    H228906   2.913   5.524   7.735  0.0425  0.6293  0.0742
 1571TIP3   OH228907   5.404   6.778   9.308 -0.5156  0.1412 -0.2665
 1571TIP3    H128908   5.476   6.743   9.256 -0.8802 -0.6100 -0.2702
 1571TIP3    H228909   5.358   6.701   9.341 -0.4161  0.6029  0.9927
 1572TIP3   OH228910   5.076   5.087   9.135 -0.0657  0.4132 -0.3234
 1572TIP3    H128911   5.021   5.165   9.137 -0.2573  0.2674  0.1832
 1572TIP3    H228912   5.015   5.014   9.144 -0.2986 -0.0364 -4.0168
 1573TIP3   OH228913   2.875   6.221   6.794  0.0486 -0.1087 -0.4322
 1573TIP3    H128914   2.895   6.142   6.845 -0.9300 -0.0736  0.0322
 1573TIP3    H228915   2.956   6.272   6.796 -0.0044 -0.0419  1.2248
 1574TIP3   OH228916   7.421   6.834   7.927 -0.0718 -0.1904 -0.7611
 1574TIP3    H128917   7.463   6.837   7.841  0.4773 -2.8813 -0.6703
 1574TIP3    H228918   7.460   6.758   7.971  0.3667  1.6048  2.2901
 1575TIP3   OH228919   0.099   0.999   6.813  0.4378  0.0917  0.2665
 1575TIP3    H128920   0.122   0.982   6.722 -0.7646  1.2834 -0.3010
 1575TIP3    H228921   0.025   1.059   6.808 -0.6357 -0.9834  2.0161
 1576TIP3   OH228922   4.398   6.238   8.480 -0.4181 -0.1320  0.1738
 1576TIP3    H128923   4.488   6.215   8.459 -0.7202  0.8728 -2.6835
 1576TIP3    H228924   4.356   6.155   8.502  0.6920 -0.9243 -0.6164
 1577TIP3   OH228925   1.438   0.101   8.974  0.4353 -0.2884  0.4882
 1577TIP3    H128926   1.345   0.121   8.983 -0.4059 -3.5107  0.2397
 1577TIP3    H228927   1.478   0.138   9.052 -0.8486  1.9236  0.1813
 1578TIP3   OH228928   4.864   2.098   9.493 -0.0427  0.1221 -0.1214
 1578TIP3    H128929   4.871   2.016   9.443  1.0714  0.3464 -0.3653
 1578TIP3    H228930   4.782   2.090   9.541 -0.0412 -1.0610 -0.2911
 1579TIP3   OH228931   1.420   0.527   7.189 -0.2130  0.1194  0.0790
 1579TIP3    H128932   1.354   0.523   7.258 -1.4536 -0.2392 -1.0672
 1579TIP3    H228933   1.413   0.443   7.144 -2.0963  1.5988 -2.7433
 1580TIP3   OH228934   2.557   2.270   7.816  0.1761 -0.2565 -0.0149
 1580TIP3    H128935   2.633   2.232   7.773  2.9005  1.6679  2.5990
 1580TIP3    H228936   2.539   2.351   7.768  0.5670 -0.1529  0.0091
 1581TIP3   OH228937   1.300   6.978   7.715  0.1849 -0.0937  0.2824
 1581TIP3    H128938   1.219   7.029   7.710  0.7190  0.7197 -0.2295
 1581TIP3    H228939   1.318   6.953   7.625  0.2894 -0.6179  0.4478
 1582TIP3   OH228940   2.820   2.183   7.692 -0.4504  0.4442 -0.6170
 1582TIP3    H128941   2.910   2.156   7.708 -0.9615 -1.5338 -0.8051
 1582TIP3    H228942   2.827   2.273   7.659  1.4672  0.1782 -1.0218
 1583TIP3   OH228943   5.986   7.358   9.558 -0.1630 -0.2912 -0.3536
 1583TIP3    H128944   5.996   7.453   9.549 -1.6863 -0.0854 -0.2565
 1583TIP3    H228945   6.075   7.325   9.570  0.2448  1.3494  1.7594
 1584TIP3   OH228946   6.387   4.945   7.674 -0.0212 -0.1303  0.5425
 1584TIP3    H128947   6.294   4.919   7.679  0.1734 -0.7765  1.0162
 1584TIP3    H228948   6.385   5.040   7.668 -0.7474 -0.1816 -0.4236
 1585TIP3   OH228949   4.059   5.799   6.425  0.5119  0.0349  0.0976
 1585TIP3    H128950   3.998   5.828   6.357  0.1983 -3.1043 -1.1443
 1585TIP3    H228951   4.143   5.838   6.399  0.1882 -0.2739 -1.5692
 1586TIP3   OH228952   0.176   0.570   7.246  0.1878 -0.3010 -0.0751
 1586TIP3    H128953   0.180   0.600   7.337 -1.0839 -0.1477 -0.0429
 1586TIP3    H228954   0.266   0.571   7.216  0.6764 -0.7449  1.3093
 1587TIP3   OH228955   1.908   0.057   8.755  0.7090  0.4084 -0.1162
 1587TIP3    H128956   1.917   0.123   8.687  0.4836  1.3362  0.7387
 1587TIP3    H228957   1.819   0.068   8.789  0.1043 -1.3616 -0.9859
 1588TIP3   OH228958   1.620   6.097   9.134 -0.1237  0.6654 -0.0893
 1588TIP3    H128959   1.631   6.190   9.151  0.5529  0.5320  0.2459
 1588TIP3    H228960   1.532   6.089   9.097  0.1440  1.5469 -0.9562
 1589TIP3   OH228961   5.528   0.852   8.959 -0.0904 -0.0969 -0.4744
 1589TIP3    H128962   5.525   0.923   9.023  0.3651  0.9339 -1.5535
 1589TIP3    H228963   5.604   0.799   8.985  0.8098  0.9841 -0.8059
 1590TIP3   OH228964   2.942   3.080   8.985 -0.1935  0.5680 -0.0189
 1590TIP3    H128965   2.921   3.159   8.936 -0.1503  0.5940  0.0044
 1590TIP3    H228966   3.013   3.106   9.044 -1.1292  0.8716  0.9936
 1591TIP3   OH228967   3.270   4.693   7.565  0.4067 -0.3753  0.2131
 1591TIP3    H128968   3.185   4.703   7.608  0.5992 -1.1232  0.7963
 1591TIP3    H228969   3.327   4.657   7.633  1.2751  0.3935 -0.0899
 1592TIP3   OH228970   1.949   4.108   6.164  0.1059  0.0966 -0.5943
 1592TIP3    H128971   1.877   4.155   6.208  0.1449  0.1227 -0.5581
 1592TIP3    H228972   2.022   4.170   6.166  0.0250  0.2051 -0.9511
 1593TIP3   OH228973   7.397   2.034   9.014  0.4834 -0.0748 -0.1538
 1593TIP3    H128974   7.408   1.963   9.078  0.9801  1.2041  1.2503
 1593TIP3    H228975   7.303   2.043   9.003  0.2566  1.0162  2.0554
 1594TIP3   OH228976   0.044   2.851   8.620 -0.2621 -0.4009  0.3976
 1594TIP3    H128977   0.007   2.792   8.687 -0.9916  0.3863  0.7010
 1594TIP3    H228978   0.134   2.821   8.609 -0.6699 -1.6923  0.4132
 1595TIP3   OH228979   4.947   6.497   8.605  0.5949  0.6539 -0.2020
 1595TIP3    H128980   4.922   6.588   8.618 -0.8447  0.4958 -1.5874
 1595TIP3    H228981   5.038   6.492   8.637  0.3683  2.3097  0.8035
 1596TIP3   OH228982   1.638   0.070   8.783 -0.3186  0.0468 -0.0576
 1596TIP3    H128983   1.623   0.107   8.697 -0.7713 -0.6004 -0.2659
 1596TIP3    H228984   1.569   0.107   8.838 -1.1678 -0.9703 -0.4185
 1597TIP3   OH228985   6.760   4.836   8.950 -0.0728 -0.3414  0.1584
 1597TIP3    H128986   6.678   4.877   8.920 -0.3578  0.4746  1.9405
 1597TIP3    H228987   6.826   4.867   8.887 -0.5809  1.6083  0.5065
 1598TIP3   OH228988   7.581   3.775   8.510  0.2578 -0.2984  0.2131
 1598TIP3    H128989   7.613   3.783   8.420  1.0295  1.5559  0.6048
 1598TIP3    H228990   7.603   3.859   8.551  0.4579 -1.3087  2.3033
 1599TIP3   OH228991   0.883   4.672   8.719  0.0174  0.0783 -0.2012
 1599TIP3    H128992   0.926   4.731   8.782  0.2082 -0.3620  0.0862
 1599TIP3    H228993   0.926   4.692   8.636  1.7049 -1.2206  0.2945
 1600TIP3   OH228994   2.522   0.562   9.632 -0.0626  0.6937  0.0620
 1600TIP3    H128995   2.495   0.513   9.554  0.8957 -0.5314  0.4683
 1600TIP3    H228996   2.445   0.560   9.689  0.4465 -1.9028  0.7969
 1601TIP3   OH228997   3.384   4.323   8.565 -0.7541 -0.0353 -0.2213
 1601TIP3    H128998   3.445   4.393   8.587 -0.6410 -0.3890  0.5975
 1601TIP3    H228999   3.299   4.355   8.595 -0.8118  0.0188 -0.4355
 1602TIP3   OH229000   6.198   5.016   9.105  0.0971 -0.4402  0.4153
 1602TIP3    H129001   6.128   4.964   9.145  0.9412  0.3218  3.0948
 1602TIP3    H229002   6.237   4.959   9.039 -1.4689 -1.7445  0.5726
 1603TIP3   OH229003   2.281   2.598   9.048  0.3507  0.5668  0.2129
 1603TIP3    H129004   2.375   2.593   9.029  0.1503 -0.2778 -0.6119
 1603TIP3    H229005   2.239   2.568   8.968 -0.6041 -0.2529  1.0029
 1604TIP3   OH229006   1.433   3.055   8.091  0.4010 -0.2098 -0.7086
 1604TIP3    H129007   1.476   3.070   8.006  0.0506 -1.3996 -1.1227
 1604TIP3    H229008   1.500   3.012   8.144  0.3832 -0.1354 -0.6247
 1605TIP3   OH229009   7.629   0.880   9.222  0.0399  0.2529  0.7004
 1605TIP3    H129010   7.586   0.856   9.305 -1.5114  2.1317  0.5156
 1605TIP3    H229011   7.708   0.827   9.220 -0.6202 -0.9336  2.6794
 1606TIP3   OH229012   6.494   0.578   8.043  0.8456 -0.2137  0.1728
 1606TIP3    H129013   6.588   0.561   8.035  0.5642 -1.5349 -0.5636
 1606TIP3    H229014   6.487   0.637   8.118  2.2709  0.0564  0.1271
 1607TIP3   OH229015   2.696   7.018   8.456 -0.0640  0.3893  0.0037
 1607TIP3    H129016   2.680   6.994   8.547 -1.4385  0.2602 -0.2523
 1607TIP3    H229017   2.638   6.961   8.406 -0.3053  1.3746 -0.8666
 1608TIP3   OH229018   7.055   3.726   8.879  0.0888  0.3610  0.1564
 1608TIP3    H129019   7.063   3.651   8.937  0.9071  0.0086 -0.3867
 1608TIP3    H229020   7.137   3.774   8.890 -0.1211  0.7785 -0.0454
 1609TIP3   OH229021   3.132   2.874   9.283 -0.5294  0.0275 -0.3640
 1609TIP3    H129022   3.196   2.924   9.232 -0.5234  1.4335  0.9571
 1609TIP3    H229023   3.090   2.816   9.219  2.3075 -1.2718 -1.2210
 1610TIP3   OH229024   6.726   5.920   7.216 -0.1363 -0.1539 -0.3293
 1610TIP3    H129025   6.674   5.984   7.168 -0.4529 -0.0153  0.1807
 1610TIP3    H229026   6.809   5.965   7.234  0.2279 -0.4269 -1.2702
 1611TIP3   OH229027   2.350   1.214   7.751 -0.0546 -0.0037 -0.2049
 1611TIP3    H129028   2.402   1.228   7.672  1.3161 -0.2884  0.6180
 1611TIP3    H229029   2.380   1.129   7.785  1.1760  1.2015  1.9412
 1612TIP3   OH229030   5.044   3.623   8.681 -0.9415 -0.1129 -0.0945
 1612TIP3    H129031   5.028   3.528   8.680 -1.9348  0.0224  1.1639
 1612TIP3    H229032   5.038   3.648   8.588  2.5786 -1.7308 -0.9378
 1613TIP3   OH229033   4.883   1.678   7.473  0.3355 -0.0948 -0.1855
 1613TIP3    H129034   4.963   1.711   7.432  0.7040 -0.9255 -0.1596
 1613TIP3    H229035   4.843   1.623   7.406  1.1865 -1.8536  0.6807
 1614TIP3   OH229036   5.224   0.313   6.868  0.1774  0.2205  0.2458
 1614TIP3    H129037   5.303   0.271   6.901  0.4841  0.6276  0.0443
 1614TIP3    H229038   5.202   0.265   6.788  1.1238  1.0764 -0.5570
 1615TIP3   OH229039   3.752   3.425   8.752 -0.3497  0.2011  0.2971
 1615TIP3    H129040   3.700   3.502   8.777  1.4339  1.2567  0.9335
 1615TIP3    H229041   3.687   3.359   8.727 -1.9682  2.7096 -2.9001
 1616TIP3   OH229042   0.190   3.221   7.503  0.6456  0.3687 -0.5477
 1616TIP3    H129043   0.270   3.206   7.454  0.0182 -2.7275 -0.8402
 1616TIP3    H229044   0.211   3.196   7.593  0.0777 -0.4575 -0.6235
 1617TIP3   OH229045   4.715   2.386   9.681 -0.1966 -0.4019 -0.3399
 1617TIP3    H129046   4.718   2.408   9.587 -3.2168  1.1362 -0.1941
 1617TIP3    H229047   4.744   2.465   9.725 -1.9881  0.1039  0.0178
 1618TIP3   OH229048   5.624   7.118   9.147 -0.3137 -0.1529  0.0961
 1618TIP3    H129049   5.543   7.169   9.145 -0.3339 -0.1840  0.1254
 1618TIP3    H229050   5.644   7.101   9.055  0.3235  0.9114  0.0160
 1619TIP3   OH229051   3.818   6.869   7.104  0.4594  0.5771 -0.1817
 1619TIP3    H129052   3.748   6.922   7.141  0.2467  0.4993 -0.4715
 1619TIP3    H229053   3.800   6.867   7.010  0.0666 -0.5909 -0.0978
 1620TIP3   OH229054   1.249   5.309   7.221  0.5429 -0.7038 -0.5567
 1620TIP3    H129055   1.269   5.351   7.305  1.9004  0.3864 -1.3898
 1620TIP3    H229056   1.188   5.238   7.244  1.6442 -1.0685  1.4760
 1621TIP3   OH229057   4.774   6.121   8.139 -0.3050 -0.0073 -0.2557
 1621TIP3    H129058   4.785   6.214   8.159 -0.3727  0.0561 -0.5137
 1621TIP3    H229059   4.836   6.104   8.069 -0.2809 -0.1605 -0.1972
 1622TIP3   OH229060   3.249   1.467   6.779  0.1662  0.1170 -0.2888
 1622TIP3    H129061   3.263   1.524   6.703 -0.9645  0.7528 -0.0461
 1622TIP3    H229062   3.238   1.527   6.853  2.9392 -0.5086  0.7585
 1623TIP3   OH229063   2.345   5.331   8.089  0.3866  0.2407  0.1636
 1623TIP3    H129064   2.375   5.313   8.178  0.5864  0.5195  0.1533
 1623TIP3    H229065   2.256   5.295   8.086  0.0691  0.9580  0.7274
 1624TIP3   OH229066   7.645   7.335   9.755 -0.1140  0.1321  0.2660
 1624TIP3    H129067   7.559   7.343   9.714  0.4912 -0.6615 -1.2290
 1624TIP3    H229068   7.698   7.403   9.712  0.0132  0.6482  1.2100
 1625TIP3   OH229069   3.493   5.651   6.967 -0.4855 -0.0823 -0.3645
 1625TIP3    H129070   3.550   5.624   6.895  0.3180  0.5067  0.0459
 1625TIP3    H229071   3.406   5.621   6.940 -0.3406  0.8188 -1.9754
 1626TIP3   OH229072   6.723   3.001   1.440  0.1929 -0.3461  0.0268
 1626TIP3    H129073   6.659   2.947   1.395 -0.8609  1.2505 -0.4771
 1626TIP3    H229074   6.806   2.954   1.429 -0.4313 -1.1271 -1.6044
 1627TIP3   OH229075   2.692   6.340   7.744  0.4758 -0.1456  0.1930
 1627TIP3    H129076   2.710   6.297   7.828 -0.3704  0.5307  0.7325
 1627TIP3    H229077   2.629   6.408   7.765  1.0222  0.6991 -0.8310
 1628TIP3   OH229078   6.129   1.368   6.929  0.0194 -0.0013 -1.1230
 1628TIP3    H129079   6.155   1.357   7.021 -3.0208 -0.6165 -0.2342
 1628TIP3    H229080   6.212   1.378   6.883  1.6904  0.2508  1.6530
 1629TIP3   OH229081   0.433   5.972   8.986 -0.2445  0.1608  0.0697
 1629TIP3    H129082   0.419   6.059   9.023  0.3819  0.0990  0.4701
 1629TIP3    H229083   0.360   5.919   9.020 -0.9823  0.6670 -0.6798
 1630TIP3   OH229084   3.762   2.416   8.539 -0.1165  0.1826  0.1582
 1630TIP3    H129085   3.720   2.471   8.473  0.0655  0.3965  0.2231
 1630TIP3    H229086   3.790   2.338   8.490  2.0711  1.3160 -0.5100
 1631TIP3   OH229087   4.219   4.189   9.295  0.2350  0.1317 -0.5526
 1631TIP3    H129088   4.194   4.138   9.371  0.3664 -0.4387 -0.8905
 1631TIP3    H229089   4.163   4.157   9.224  0.6423  0.1172 -0.8767
 1632TIP3   OH229090   4.004   1.816   9.525  0.1981  0.3569 -0.4331
 1632TIP3    H129091   4.079   1.806   9.466 -0.6687  2.6224 -2.0950
 1632TIP3    H229092   4.015   1.904   9.563  0.1561 -0.6269  2.0475
 1633TIP3   OH229093   5.561   4.000   7.345  0.2505  0.0228  0.0081
 1633TIP3    H129094   5.482   4.022   7.393  0.1405 -2.4028  1.0738
 1633TIP3    H229095   5.541   3.917   7.301  1.3658  0.6486 -1.7945
 1634TIP3   OH229096   2.091   2.200   8.453 -0.1929  0.0662 -0.4118
 1634TIP3    H129097   2.124   2.133   8.513 -2.4253 -1.6765 -0.9618
 1634TIP3    H229098   2.128   2.282   8.485  0.4891 -1.0828  1.9722
 1635TIP3   OH229099   5.464   5.129   7.227 -0.1552  0.4697 -0.3195
 1635TIP3    H129100   5.533   5.140   7.293 -0.6907  2.0009  0.0274
 1635TIP3    H229101   5.511   5.123   7.144  0.4151  1.6633 -0.1036
 1636TIP3   OH229102   6.919   3.806   7.029  0.4182 -0.0583  0.0419
 1636TIP3    H129103   6.906   3.895   7.063  1.1356  0.2506 -0.4578
 1636TIP3    H229104   6.992   3.771   7.081  0.4315 -0.1901 -0.0661
 1637TIP3   OH229105   6.739   5.731   7.008  0.2356  0.2139 -0.5853
 1637TIP3    H129106   6.737   5.656   7.068  0.0641 -0.7665 -1.7843
 1637TIP3    H229107   6.715   5.806   7.063  0.9712 -0.4967  0.7721
 1638TIP3   OH229108   6.548   5.599   9.233  0.1686 -0.2254 -0.2419
 1638TIP3    H129109   6.561   5.687   9.196  0.1486 -0.2439 -0.2929
 1638TIP3    H229110   6.611   5.594   9.305 -1.1113  0.5327  0.9869
 1639TIP3   OH229111   3.689   0.661   7.363  0.0708 -0.4757 -0.0234
 1639TIP3    H129112   3.735   0.615   7.293  1.3086  0.8348 -0.1139
 1639TIP3    H229113   3.756   0.718   7.402 -1.1274  0.3983  0.8225
 1640TIP3   OH229114   4.093   4.019   7.339  0.2002  0.4017  0.3430
 1640TIP3    H129115   4.093   3.958   7.266 -0.3715 -0.1763  0.8043
 1640TIP3    H229116   4.014   4.072   7.326  0.5492  0.8665  0.0911
 1641TIP3   OH229117   5.929   2.181   7.175  0.0047 -0.1043  0.2689
 1641TIP3    H129118   5.886   2.204   7.092  0.2429 -0.8272 -0.0604
 1641TIP3    H229119   6.021   2.203   7.161  0.0272 -0.1248  0.3847
 1642TIP3   OH229120   2.884   7.606   9.152 -0.0775  0.0558 -0.2920
 1642TIP3    H129121   2.880   7.651   9.068 -2.2562  0.1095 -0.2310
 1642TIP3    H229122   2.848   7.519   9.134  0.9551 -0.5007  0.2747
 1643TIP3   OH229123   0.632   0.129   8.220  0.1170  0.1566 -0.5459
 1643TIP3    H129124   0.727   0.140   8.209  0.0534  1.9829  0.3845
 1643TIP3    H229125   0.600   0.107   8.133  1.3206  0.2239 -1.0216
 1644TIP3   OH229126   5.686   7.558   9.322  0.5444 -0.5563 -0.0163
 1644TIP3    H129127   5.614   7.495   9.325 -0.7079  0.8049  0.0761
 1644TIP3    H229128   5.761   7.508   9.290 -0.4561 -2.0140 -0.1778
 1645TIP3   OH229129   4.002   3.406   7.401  0.1161  0.4062 -0.0061
 1645TIP3    H129130   3.948   3.474   7.359 -0.1146  0.1315 -0.1567
 1645TIP3    H229131   3.940   3.347   7.442  0.2985  0.0626 -0.2155
 1646TIP3   OH229132   0.197   0.185   9.114  0.7991  0.1751 -0.2152
 1646TIP3    H129133   0.266   0.134   9.071  2.7519  2.2033  0.3281
 1646TIP3    H229134   0.185   0.262   9.058  0.7924  1.0900  1.0005
 1647TIP3   OH229135   5.976   2.480   7.990 -0.2837  0.5473 -0.0098
 1647TIP3    H129136   5.904   2.420   8.010  0.9713 -1.8402 -1.9929
 1647TIP3    H229137   5.935   2.566   7.981 -2.5672 -0.4089  0.6316
 1648TIP3   OH229138   2.150   5.616   8.798 -0.2605 -0.1258  0.2501
 1648TIP3    H129139   2.160   5.523   8.816  1.7258  0.8324  6.4348
 1648TIP3    H229140   2.229   5.640   8.749  0.2874 -1.3451  0.5076
 1649TIP3   OH229141   0.959   0.509   8.827  0.1232  0.0717 -0.3030
 1649TIP3    H129142   0.913   0.439   8.780  0.1853 -1.4845  1.8222
 1649TIP3    H229143   0.890   0.566   8.859 -0.1297 -0.5366  0.2502
 1650TIP3   OH229144   3.154   3.338   8.064  0.2398 -0.5296  0.1021
 1650TIP3    H129145   3.218   3.266   8.064  0.1887 -0.5982  1.6068
 1650TIP3    H229146   3.135   3.354   8.156 -0.0907  1.1293 -0.2109
 1651TIP3   OH229147   3.573   4.485   8.702  0.7633  0.0419 -0.4971
 1651TIP3    H129148   3.566   4.566   8.753  1.7015 -0.1926  0.0312
 1651TIP3    H229149   3.644   4.437   8.743  0.5817 -0.8143 -1.1493
 1652TIP3   OH229150   1.419   1.781   8.290  0.2605 -0.1031  0.2304
 1652TIP3    H129151   1.403   1.733   8.209  4.5182  0.5404 -1.2215
 1652TIP3    H229152   1.426   1.713   8.358 -1.7388 -0.7692 -0.1670
 1653TIP3   OH229153   7.129   2.962   9.399 -0.0596  0.0093 -0.6211
 1653TIP3    H129154   7.208   2.951   9.452 -0.1580  1.5588 -0.1162
 1653TIP3    H229155   7.160   2.952   9.309  0.2661 -1.7559 -0.3467
 1654TIP3   OH229156   3.837   5.494   7.711  0.3644 -0.1460  0.3140
 1654TIP3    H129157   3.782   5.565   7.677  2.6767  1.3891 -0.4374
 1654TIP3    H229158   3.782   5.450   7.776 -1.3821  1.8942  0.3200
 1655TIP3   OH229159   5.562   0.397   8.697  0.3217  0.5583 -0.1798
 1655TIP3    H129160   5.480   0.350   8.711  0.0557  1.4756  1.6769
 1655TIP3    H229161   5.536   0.482   8.662  0.5076  0.6785 -0.0312
 1656TIP3   OH229162   4.941   0.000   8.521 -0.2642 -0.3042  0.4304
 1656TIP3    H129163   4.995   0.066   8.477 -0.8113  0.6759  1.1663
 1656TIP3    H229164   4.998  -0.034   8.590 -0.4794  0.5529  1.0507
 1657TIP3   OH229165   5.360   0.236   8.878 -0.0593 -0.5391 -0.3886
 1657TIP3    H129166   5.413   0.298   8.927  0.5323 -0.6939 -0.8273
 1657TIP3    H229167   5.407   0.154   8.882 -1.5293 -1.3658  1.3814
 1658TIP3   OH229168   6.259   5.290   8.074  0.4304 -0.4896  0.1071
 1658TIP3    H129169   6.302   5.281   8.159 -2.5942  3.0335  2.3198
 1658TIP3    H229170   6.224   5.203   8.056  1.0102 -1.3369  2.5642
 1659TIP3   OH229171   6.635   4.538   9.155 -0.0961 -0.7825 -0.6717
 1659TIP3    H129172   6.623   4.512   9.246  0.6468 -0.2056 -0.4014
 1659TIP3    H229173   6.704   4.604   9.157 -0.3319 -0.4830 -1.6108
 1660TIP3   OH229174   0.031   3.675   9.048 -0.2400  0.4360  0.3947
 1660TIP3    H129175  -0.036   3.648   9.111 -0.4705 -0.3647 -0.1781
 1660TIP3    H229176  -0.006   3.753   9.006  0.4666  1.7723  2.1219
 1661TIP3   OH229177   4.299   5.936   6.372 -0.0329  0.6345  0.0586
 1661TIP3    H129178   4.305   5.994   6.448  0.7808  1.9679 -0.9999
 1661TIP3    H229179   4.292   5.994   6.297  1.7637 -0.5906 -1.1349
 1662TIP3   OH229180   4.296   1.721   8.242  0.0358 -0.5966 -0.0455
 1662TIP3    H129181   4.287   1.776   8.319 -1.4064  0.2126 -0.7527
 1662TIP3    H229182   4.379   1.749   8.202  0.8703 -1.1249  1.2441
 1663TIP3   OH229183   7.067   3.256   8.316 -0.3024  0.8393 -0.0713
 1663TIP3    H129184   7.126   3.190   8.351  2.5253  1.7874 -2.5753
 1663TIP3    H229185   7.013   3.282   8.391  2.8988  0.3530  2.6693
 1664TIP3   OH229186   0.552   5.837   7.977  0.0038  0.4327  0.2967
 1664TIP3    H129187   0.586   5.864   8.062 -2.0273 -0.5026  1.4602
 1664TIP3    H229188   0.461   5.867   7.976 -0.3646 -0.6065 -1.0667
 1665TIP3   OH229189   6.509   2.006   8.453 -0.3186  0.1802  0.4141
 1665TIP3    H129190   6.446   2.005   8.526 -1.4188 -0.9921 -0.5195
 1665TIP3    H229191   6.549   2.093   8.458 -1.3877  0.6398  1.5704
 1666TIP3   OH229192   4.053   6.310   9.254  0.4468  0.2218  0.4763
 1666TIP3    H129193   3.969   6.284   9.216  0.8372 -1.4011  0.6322
 1666TIP3    H229194   4.033   6.388   9.306 -1.2705 -0.9171  1.6252
 1667TIP3   OH229195   1.446   7.641   9.622 -0.3969 -0.0131  0.1575
 1667TIP3    H129196   1.382   7.576   9.649  0.1669 -0.6226  0.0318
 1667TIP3    H229197   1.397   7.701   9.565 -1.2473  0.4736  1.3625
 1668TIP3   OH229198   6.089   6.826   8.175  0.2716 -0.0415  0.2274
 1668TIP3    H129199   6.072   6.850   8.266 -0.2696 -0.2238  0.1770
 1668TIP3    H229200   6.159   6.761   8.180 -0.5148 -0.8850  0.6089
 1669TIP3   OH229201   3.278   2.222   8.028  0.3981  0.4224  0.7941
 1669TIP3    H129202   3.235   2.138   8.015 -0.0177  0.8499 -0.8342
 1669TIP3    H229203   3.219   2.270   8.087 -0.7895  0.5473 -0.4379
 1670TIP3   OH229204   3.981   1.674   7.166 -0.6666 -0.2247 -0.5170
 1670TIP3    H129205   3.983   1.750   7.109 -0.0273 -0.9768 -1.5345
 1670TIP3    H229206   3.918   1.697   7.235 -0.6013  1.1400 -0.8866
 1671TIP3   OH229207   5.655   2.930   8.875  0.2572 -0.9397 -0.1890
 1671TIP3    H129208   5.658   2.919   8.780  0.8282  0.0126 -0.2943
 1671TIP3    H229209   5.746   2.937   8.902  0.2971 -3.9862  0.8297
 1672TIP3   OH229210   1.644   2.091   7.711 -0.1275  0.1910 -0.1569
 1672TIP3    H129211   1.688   2.086   7.796 -1.2165  1.7803  0.5514
 1672TIP3    H229212   1.551   2.081   7.731 -0.3830  0.3535 -1.1918
 1673TIP3   OH229213   1.217   0.813   7.406 -0.3002 -0.3496 -0.7186
 1673TIP3    H129214   1.264   0.813   7.323  1.2006 -0.9408  0.0837
 1673TIP3    H229215   1.194   0.721   7.420  0.9998 -0.5599  0.3021
 1674TIP3   OH229216   2.897   6.492   9.393 -0.2504  0.4755 -0.0424
 1674TIP3    H129217   2.882   6.484   9.299 -1.7729 -2.1153  0.3338
 1674TIP3    H229218   2.991   6.479   9.404  0.4363  3.4808 -1.3396
 1675TIP3   OH229219   2.399   5.639   8.024  0.2997 -0.5876  0.1693
 1675TIP3    H129220   2.333   5.570   8.033  0.6693 -1.1587 -1.2471
 1675TIP3    H229221   2.449   5.614   7.946  0.0250  1.6271 -0.7686
 1676TIP3   OH229222   2.156   7.181   7.464 -0.1516 -0.1500 -0.7102
 1676TIP3    H129223   2.231   7.155   7.412  0.7109 -2.2007  1.3751
 1676TIP3    H229224   2.191   7.242   7.529 -0.1025 -1.4550  0.5523
 1677TIP3   OH229225   3.218   5.579   7.039  0.1982 -0.2072 -0.2577
 1677TIP3    H129226   3.155   5.625   7.094  0.1125 -0.1788 -0.3797
 1677TIP3    H229227   3.176   5.495   7.020  0.4243 -0.4012  0.1004
 1678TIP3   OH229228   6.741   6.876   6.767  0.0931 -0.1529 -0.4246
 1678TIP3    H129229   6.720   6.957   6.719 -0.4404  0.6433  1.0753
 1678TIP3    H229230   6.824   6.896   6.811 -0.0983 -0.3717  0.0399
 1679TIP3   OH229231   2.500   6.479   9.795  0.3365 -0.2167  0.3652
 1679TIP3    H129232   2.557   6.461   9.870  1.4505  0.2314 -0.3315
 1679TIP3    H229233   2.557   6.466   9.719 -0.2126  1.1634 -0.3241
 1680TIP3   OH229234   6.399   0.262   8.186  0.7505  0.1585  0.8613
 1680TIP3    H129235   6.387   0.265   8.091 -1.8807 -0.5511  1.0868
 1680TIP3    H229236   6.331   0.320   8.221  2.0832  0.9143  2.3219
 1681TIP3   OH229237   3.669   4.721   7.428  0.1294  0.3798 -0.1506
 1681TIP3    H129238   3.738   4.785   7.411  2.5126 -2.2105 -0.8133
 1681TIP3    H229239   3.620   4.716   7.346  1.5129 -0.3990 -0.9676
 1682TIP3   OH229240   3.761   3.048   9.584  0.3114  0.0050 -0.3036
 1682TIP3    H129241   3.677   3.025   9.545 -1.1061  0.9434  1.9711
 1682TIP3    H229242   3.774   2.982   9.653 -0.2009  1.6103  1.4381
 1683TIP3   OH229243   2.175   0.482   7.625 -0.1972  0.6951  0.2055
 1683TIP3    H129244   2.197   0.568   7.662 -0.9461  1.2036 -0.4993
 1683TIP3    H229245   2.161   0.499   7.532 -1.0779 -0.0497  0.1916
 1684TIP3   OH229246   3.181   4.144   8.438  0.3355 -0.2688  0.3659
 1684TIP3    H129247   3.170   4.127   8.532  0.6947  1.5948  0.7937
 1684TIP3    H229248   3.265   4.103   8.417  0.4666 -0.3320  0.9707
 1685TIP3   OH229249   6.075   6.779   9.395  0.0798 -0.1100  0.2032
 1685TIP3    H129250   6.105   6.696   9.357  1.9464  0.2712  0.7738
 1685TIP3    H229251   5.983   6.762   9.418  0.7725 -2.5376  1.6327
 1686TIP3   OH229252   6.317   3.217   7.335 -0.2447  0.1257 -0.1397
 1686TIP3    H129253   6.303   3.311   7.333  1.8092  0.5035  1.0408
 1686TIP3    H229254   6.361   3.197   7.252  1.8219  0.7015  0.7691
 1687TIP3   OH229255   3.795   4.717   8.678 -0.5274  0.5708  0.3128
 1687TIP3    H129256   3.832   4.803   8.698  1.0248 -0.4673  2.2648
 1687TIP3    H229257   3.716   4.711   8.731 -1.1673  1.1247 -0.5524
 1688TIP3   OH229258   4.846   5.278   8.594 -0.4554  0.4620  0.2459
 1688TIP3    H129259   4.797   5.212   8.547  1.5006  0.1980 -1.5684
 1688TIP3    H229260   4.907   5.314   8.530  1.3820  1.1109  2.2195
 1689TIP3   OH229261   1.463   4.662   9.127 -0.1163 -0.2765 -0.1761
 1689TIP3    H129262   1.491   4.573   9.150  1.5838  0.0014 -0.9619
 1689TIP3    H229263   1.503   4.717   9.195 -0.8829 -0.0815  0.1181
 1690TIP3   OH229264   5.852   3.334   7.135  0.2344  0.1965  0.0439
 1690TIP3    H129265   5.900   3.366   7.059 -0.5814  0.6377 -0.2945
 1690TIP3    H229266   5.919   3.297   7.192  0.8432 -0.2274 -0.9299
 1691TIP3   OH229267   2.909   1.521   9.340 -0.2118  0.0928  0.2189
 1691TIP3    H129268   2.939   1.539   9.428 -0.1021 -0.7892  0.3712
 1691TIP3    H229269   2.824   1.479   9.352  0.4623 -1.3911 -0.0131
 1692TIP3   OH229270   4.298   2.937   9.201 -0.5422  0.2378  0.6271
 1692TIP3    H129271   4.251   2.980   9.273  0.3566  1.3575  0.5632
 1692TIP3    H229272   4.385   2.977   9.201 -0.1302 -0.6135 -0.3228
 1693TIP3   OH229273   0.167   7.630   9.291 -0.1281  0.3209 -0.2514
 1693TIP3    H129274   0.100   7.613   9.224 -0.2911  1.7316 -0.4784
 1693TIP3    H229275   0.235   7.678   9.244  0.0076  0.8482  0.4815
 1694TIP3   OH229276   0.445   0.518   8.429 -0.1953 -0.4850 -0.1109
 1694TIP3    H129277   0.496   0.537   8.350 -0.6999 -1.4975 -0.7105
 1694TIP3    H229278   0.369   0.470   8.396 -0.3933 -0.9602  1.0043
 1695TIP3   OH229279   7.125   6.129   7.510  0.1663  0.4391 -0.1202
 1695TIP3    H129280   7.216   6.109   7.492  0.2976  1.0527 -0.1619
 1695TIP3    H229281   7.096   6.060   7.570  1.0145  0.9343  0.8858
 1696TIP3   OH229282   3.409   3.428   7.952  0.3541 -0.0438 -0.1531
 1696TIP3    H129283   3.415   3.504   7.894 -0.7684 -0.6177 -1.0510
 1696TIP3    H229284   3.318   3.425   7.979  0.2982 -1.2798 -0.4199
 1697TIP3   OH229285   0.110   4.234   7.344 -0.1822  0.2501  0.2205
 1697TIP3    H129286   0.139   4.172   7.278  0.1426 -2.2167  2.4728
 1697TIP3    H229287   0.017   4.216   7.355 -0.0920  0.1499  0.8798
 1698TIP3   OH229288   7.023   6.967   9.427 -0.3624 -0.1790  0.2094
 1698TIP3    H129289   6.985   6.889   9.468  1.6598 -1.9645 -1.1183
 1698TIP3    H229290   6.969   6.983   9.349 -1.2072  0.2219  0.8612
 1699TIP3   OH229291   6.160   7.579   7.137  0.4470 -0.6329 -0.3336
 1699TIP3    H129292   6.089   7.639   7.112  1.6131  1.3818  0.8646
 1699TIP3    H229293   6.123   7.492   7.127 -2.5716  0.3411  1.2161
 1700TIP3   OH229294   5.377   2.255   8.932  0.2360 -0.1891  0.1062
 1700TIP3    H129295   5.378   2.228   8.840 -0.2700 -1.3829  0.4260
 1700TIP3    H229296   5.443   2.325   8.938 -0.8163  1.0026 -1.4671
 1701TIP3   OH229297   0.363   3.503   6.516 -1.0266 -0.5199  0.7246
 1701TIP3    H129298   0.451   3.493   6.553 -1.2595 -2.5181  0.8291
 1701TIP3    H229299   0.377   3.510   6.422 -0.6902  0.3886  0.8367
 1702TIP3   OH229300   3.795   4.284   6.941 -0.0841 -0.0227  0.3564
 1702TIP3    H129301   3.861   4.226   6.980  0.3287 -0.0493 -0.3775
 1702TIP3    H229302   3.841   4.367   6.929 -0.3940  0.1693  0.4987
 1703TIP3   OH229303   6.593   2.240   8.930  0.4293 -0.2868  0.3179
 1703TIP3    H129304   6.506   2.210   8.955  0.4613  0.2255  1.0593
 1703TIP3    H229305   6.607   2.320   8.981  1.7526 -0.9355  1.0173
 1704TIP3   OH229306   4.742   0.776   8.498  0.2510 -0.3276 -0.5890
 1704TIP3    H129307   4.689   0.853   8.476 -0.2850 -1.3199 -3.0641
 1704TIP3    H229308   4.812   0.777   8.433  0.0820 -2.0475 -0.8258
 1705TIP3   OH229309   2.660   2.268   8.071  0.4782 -0.0305 -0.1901
 1705TIP3    H129310   2.595   2.261   8.141  0.0666  0.4211 -0.5159
 1705TIP3    H229311   2.612   2.246   7.992  1.3497 -2.2450 -0.1546
 1706TIP3   OH229312   1.080   6.774   9.121 -0.5660 -0.4837  0.2144
 1706TIP3    H129313   1.155   6.766   9.063 -0.5412  0.3589  0.1167
 1706TIP3    H229314   1.116   6.806   9.204 -0.6848 -1.0703  0.4992
 1707TIP3   OH229315   7.314   3.640   8.338 -0.0176 -0.6016  0.1577
 1707TIP3    H129316   7.253   3.593   8.283 -0.0959 -0.6501  0.2858
 1707TIP3    H229317   7.318   3.589   8.419  1.7718 -1.7520 -0.5928
 1708TIP3   OH229318   7.445   4.119   7.804 -0.3857 -0.2050  0.7509
 1708TIP3    H129319   7.485   4.180   7.865  1.2752 -0.1493 -0.3173
 1708TIP3    H229320   7.467   4.033   7.838 -1.8431 -0.2380  1.6941
 1709TIP3   OH229321   2.384   4.865   8.565  0.0822  0.0746 -0.3838
 1709TIP3    H129322   2.371   4.792   8.506  1.1584 -0.3185 -0.1577
 1709TIP3    H229323   2.474   4.856   8.596 -0.3421  0.4567  1.0588
 1710TIP3   OH229324   1.843   2.625  23.150 -0.1402 -0.5496 -0.5871
 1710TIP3    H129325   1.801   2.687  23.090 -3.2452 -0.6931  1.2028
 1710TIP3    H229326   1.773   2.601  23.212  1.9587 -2.9793  1.0362
 1711TIP3   OH229327   6.401   4.520   8.999 -0.3778  0.0920  0.2712
 1711TIP3    H129328   6.399   4.424   9.003  0.1737  0.0415 -0.5988
 1711TIP3    H229329   6.481   4.544   9.044 -0.3249  0.1236  0.1604
 1712TIP3   OH229330   6.206   4.455   7.240 -0.2612  0.1784 -0.5668
 1712TIP3    H129331   6.202   4.500   7.155 -1.7233  0.8384 -0.1797
 1712TIP3    H229332   6.214   4.363   7.217 -0.2389  0.3777 -1.4115
 1713TIP3   OH229333   1.479   0.481   8.712 -0.5117 -0.3160  0.4971
 1713TIP3    H129334   1.388   0.491   8.683 -0.1189 -1.1496 -1.1318
 1713TIP3    H229335   1.491   0.551   8.776 -2.3501 -0.2996  0.8912
 1714TIP3   OH229336   5.651   4.780   7.593  0.1253  0.0293 -0.2171
 1714TIP3    H129337   5.703   4.785   7.674  0.4698  1.6892 -0.4920
 1714TIP3    H229338   5.686   4.704   7.547 -2.4210 -3.2029  2.6608
 1715TIP3   OH229339   3.703   5.803   8.077 -0.0570 -0.1277  0.1890
 1715TIP3    H129340   3.646   5.878   8.087  3.4716  2.9608 -0.4751
 1715TIP3    H229341   3.761   5.827   8.004  2.1268 -2.8755  0.8294
 1716TIP3   OH229342   0.401   1.856   9.088  0.0049  0.3089 -0.3306
 1716TIP3    H129343   0.422   1.861   8.995  0.3668  1.3927 -0.2051
 1716TIP3    H229344   0.424   1.943   9.123  0.5246 -0.2894  0.8999
 1717TIP3   OH229345   5.623   0.177   8.514 -0.7890 -0.3475 -0.4262
 1717TIP3    H129346   5.718   0.167   8.507 -0.7101 -1.5343  1.5793
 1717TIP3    H229347   5.610   0.230   8.592 -1.7757 -1.1519 -0.0199
 1718TIP3   OH229348   4.286   6.740   8.720  0.3346  0.4468  0.1584
 1718TIP3    H129349   4.328   6.732   8.634  0.9736  0.3578  0.4671
 1718TIP3    H229350   4.349   6.699   8.780  0.1369  0.9814  0.7370
 1719TIP3   OH229351   2.848   0.401   9.301 -0.5016 -0.5611 -0.5908
 1719TIP3    H129352   2.766   0.380   9.256  0.0240 -1.1085 -1.3146
 1719TIP3    H229353   2.832   0.378   9.392 -1.8291  1.2328 -0.3081
 1720TIP3   OH229354   5.920   7.295   9.014  0.7941 -0.4834 -0.7786
 1720TIP3    H129355   5.877   7.217   9.050 -1.7829  0.1512 -2.2084
 1720TIP3    H229356   5.980   7.260   8.948  2.2721 -1.3726  0.9354
 1721TIP3   OH229357   2.802   7.368   9.383 -0.2811  0.5261  0.5586
 1721TIP3    H129358   2.806   7.386   9.289  1.1002  1.1818  0.7083
 1721TIP3    H229359   2.806   7.273   9.389 -1.1490  0.4439 -0.0692
 1722TIP3   OH229360   1.692   3.255   6.106  0.5129  0.1183  0.4268
 1722TIP3    H129361   1.654   3.340   6.130  0.0059  0.0918 -0.2444
 1722TIP3    H229362   1.696   3.258   6.010  0.7126 -0.5241  0.4156
 1723TIP3   OH229363   2.140   7.680   8.900  0.4607  0.0905  0.1370
 1723TIP3    H129364   2.186   7.680   8.816  0.8867  1.1292  0.3580
 1723TIP3    H229365   2.048   7.673   8.877  0.3908  2.5101 -0.5668
 1724TIP3   OH229366   6.301   2.160   9.361 -0.4176 -0.1286  0.1567
 1724TIP3    H129367   6.303   2.193   9.271  1.5649  0.8879  0.5191
 1724TIP3    H229368   6.212   2.176   9.390 -0.4538  1.7827 -0.8436
 1725TIP3   OH229369   7.242   1.604   8.340 -0.2262  0.1313 -0.0069
 1725TIP3    H129370   7.234   1.567   8.251 -0.1425  0.4923 -0.1670
 1725TIP3    H229371   7.203   1.691   8.332 -0.5464  0.0278  0.4020
 1726TIP3   OH229372   3.572   5.104   7.938 -0.2722  0.0860 -0.3338
 1726TIP3    H129373   3.573   5.035   8.003  0.5590  0.4606  0.0608
 1726TIP3    H229374   3.651   5.155   7.955  0.0708  0.0693 -1.7638
 1727TIP3   OH229375   2.461   0.619   8.808  0.2012  0.2521 -0.4358
 1727TIP3    H129376   2.431   0.529   8.815  1.3961 -0.3205 -2.0273
 1727TIP3    H229377   2.515   0.633   8.885 -0.4940 -0.1723  0.1370
 1728TIP3   OH229378   6.857   0.820   8.161  0.3862 -0.3940  0.1556
 1728TIP3    H129379   6.920   0.880   8.120  2.8705 -2.1191  1.2239
 1728TIP3    H229380   6.817   0.871   8.231  1.8656  0.2966  0.5384
 1729TIP3   OH229381   4.238   0.249   7.649 -0.3745 -0.0026  0.0287
 1729TIP3    H129382   4.303   0.240   7.579 -1.1404  1.6363 -0.9644
 1729TIP3    H229383   4.275   0.318   7.706 -2.2699  2.8771 -1.9488
 1730TIP3   OH229384   2.247   4.142   8.889 -0.2086 -0.0454 -0.2175
 1730TIP3    H129385   2.265   4.107   8.976  0.2326  0.8771  0.0712
 1730TIP3    H229386   2.186   4.079   8.850 -0.6393 -0.3123  0.8604
 1731TIP3   OH229387   4.384   0.449   8.946  0.0790  0.1705 -0.3935
 1731TIP3    H129388   4.414   0.539   8.941  2.8777 -0.5603  1.1411
 1731TIP3    H229389   4.434   0.402   8.879 -1.5444 -0.2485 -1.3656
 1732TIP3   OH229390   6.967   1.791   7.608  0.2029 -0.0713 -0.3365
 1732TIP3    H129391   7.046   1.740   7.622  0.8742  0.7089 -1.1471
 1732TIP3    H229392   6.945   1.776   7.517  0.3838  1.0204 -0.5726
 1733TIP3   OH229393   2.330   4.622   8.406 -0.1399 -0.3626 -0.3322
 1733TIP3    H129394   2.257   4.562   8.392 -0.7917  0.3912 -0.1797
 1733TIP3    H229395   2.408   4.568   8.391 -0.7339 -0.7043 -2.4801
 1734TIP3   OH229396   4.974   0.334   8.953 -0.6388 -0.1656 -0.2005
 1734TIP3    H129397   5.005   0.346   8.863  0.4961  1.3836  0.3522
 1734TIP3    H229398   4.958   0.423   8.985 -0.4897 -0.6548  1.3095
 1735TIP3   OH229399   6.631   2.874   7.648 -0.5902  0.0210  0.2863
 1735TIP3    H129400   6.672   2.944   7.598 -0.0149  0.0842  0.8388
 1735TIP3    H229401   6.694   2.853   7.717 -0.9273 -0.7661  0.3707
 1736TIP3   OH229402   0.015   5.193   7.571  0.3619 -0.5028  0.0498
 1736TIP3    H129403   0.013   5.244   7.491 -0.0491 -1.4412 -0.5575
 1736TIP3    H229404   0.014   5.102   7.542  3.0578 -0.9260  1.0326
 1737TIP3   OH229405   4.208   1.057   8.571 -0.7000  0.0710  0.2115
 1737TIP3    H129406   4.137   1.010   8.526 -1.4189  1.1180  0.2261
 1737TIP3    H229407   4.192   1.149   8.553  1.1046  0.3052 -0.4091
 1738TIP3   OH229408   0.879   1.056   8.223  0.1487 -0.4584 -0.3000
 1738TIP3    H129409   0.804   1.117   8.220 -0.0193 -0.6054  0.5706
 1738TIP3    H229410   0.893   1.041   8.316  0.1103 -1.8602 -0.5025
 1739TIP3   OH229411   5.892   7.539   7.736 -0.3895 -0.5566 -0.3660
 1739TIP3    H129412   5.841   7.567   7.660  1.6551  1.7376 -1.0036
 1739TIP3    H229413   5.977   7.512   7.699  0.9071  1.3056  1.0675
 1740TIP3   OH229414   0.504   7.631   7.212  0.0130  0.0638  0.4928
 1740TIP3    H129415   0.447   7.554   7.216  0.5797 -0.4147 -0.4691
 1740TIP3    H229416   0.551   7.622   7.130  0.6937  1.0200  0.7660
 1741TIP3   OH229417   4.834   3.433   7.939  0.2945  0.7512 -0.1230
 1741TIP3    H129418   4.880   3.511   7.969  1.8249  0.4826 -1.6536
 1741TIP3    H229419   4.856   3.366   8.004 -0.8038  1.4724  1.0437
 1742TIP3   OH229420   2.099   1.712   7.586 -0.0712  0.2030  0.0704
 1742TIP3    H129421   2.132   1.705   7.496 -0.2323 -0.7764  0.0725
 1742TIP3    H229422   2.177   1.724   7.639  0.3043 -1.7354  0.0385
 1743TIP3   OH229423   6.031   1.724   8.343 -0.8205 -0.7730 -0.4039
 1743TIP3    H129424   6.103   1.785   8.360 -0.4362 -1.6284  1.2388
 1743TIP3    H229425   5.962   1.750   8.404 -2.0438  0.1461 -2.0793
 1744TIP3   OH229426   6.996   6.422   8.973 -0.2863 -0.2141  0.6516
 1744TIP3    H129427   6.926   6.451   8.915 -2.1344 -2.8846  1.3657
 1744TIP3    H229428   6.973   6.458   9.058 -0.9021 -1.2089  0.9154
 1745TIP3   OH229429   6.775   3.632   8.378 -0.2126  0.9464  0.0412
 1745TIP3    H129430   6.848   3.653   8.436  0.9225 -0.6379 -0.7481
 1745TIP3    H229431   6.754   3.541   8.396 -0.0853  0.5240 -1.7114
 1746TIP3   OH229432   2.586   3.691   9.242  0.3771 -0.5460 -0.0649
 1746TIP3    H129433   2.681   3.682   9.233  0.8576  2.0871  1.3700
 1746TIP3    H229434   2.562   3.756   9.176 -0.1246  0.1616  0.8040
 1747TIP3   OH229435   3.411   2.431   6.879 -0.5392  0.1659 -0.3067
 1747TIP3    H129436   3.334   2.375   6.865 -0.5790  0.4854 -1.3991
 1747TIP3    H229437   3.403   2.458   6.971 -2.5669  1.3948 -0.7673
 1748TIP3   OH229438   5.934   5.925   8.242 -0.1319  0.0417 -0.0102
 1748TIP3    H129439   5.941   5.835   8.275 -1.4036 -0.0259  0.1246
 1748TIP3    H229440   6.014   5.938   8.191  0.1681 -1.0910  0.1383
 1749TIP3   OH229441   3.943   0.874   7.706  0.3000  0.2513 -0.6589
 1749TIP3    H129442   3.906   0.903   7.790  2.3665 -1.3619  0.9476
 1749TIP3    H229443   4.027   0.834   7.730  1.0445 -0.1346 -3.5579
 1750TIP3   OH229444   0.891   3.782   9.386 -0.2301 -0.1847 -0.6115
 1750TIP3    H129445   0.975   3.823   9.407 -1.2357  1.2907  0.7900
 1750TIP3    H229446   0.838   3.795   9.465 -0.6584 -4.3118  0.0120
 1751TIP3   OH229447   5.282   7.340   7.277  0.1551 -0.3644 -0.1456
 1751TIP3    H129448   5.242   7.371   7.196  1.1553  0.9339 -0.1739
 1751TIP3    H229449   5.372   7.372   7.274  0.3099 -0.5690  1.3208
 1752TIP3   OH229450   1.433   5.997   8.928  0.5325  0.4427  0.0153
 1752TIP3    H129451   1.484   6.048   8.865 -0.1777 -1.5808 -2.3569
 1752TIP3    H229452   1.348   5.984   8.885 -0.5916  0.3479  2.1284
 1753TIP3   OH229453   0.038   3.199   8.085 -0.4128 -0.1556 -0.2366
 1753TIP3    H129454  -0.041   3.205   8.138  0.1848 -1.4510  0.8761
 1753TIP3    H229455   0.023   3.123   8.029  0.0330 -0.3934 -0.0343
 1754TIP3   OH229456   0.617   6.237   8.030  0.5511  0.1317 -0.0457
 1754TIP3    H129457   0.557   6.204   7.964  1.3762  0.1068 -0.8009
 1754TIP3    H229458   0.580   6.321   8.056  0.2746  0.1948 -0.6227
 1755TIP3   OH229459   1.541   0.871   9.152  0.3820  0.4697 -0.2506
 1755TIP3    H129460   1.485   0.794   9.162 -0.1334  0.8560 -0.1583
 1755TIP3    H229461   1.484   0.946   9.172  0.6269  0.9421 -1.2513
 1756TIP3   OH229462   3.665   6.876   9.133  0.4713  0.5753 -0.2144
 1756TIP3    H129463   3.717   6.796   9.125 -1.0523 -0.5370  0.6689
 1756TIP3    H229464   3.673   6.918   9.047 -0.6123 -1.7427 -1.5326
 1757TIP3   OH229465   1.175   5.898   7.787 -0.3383 -0.1579 -0.5302
 1757TIP3    H129466   1.231   5.968   7.820 -0.9489  0.6898 -1.2392
 1757TIP3    H229467   1.143   5.853   7.865  0.6948 -0.1589 -0.0966
 1758TIP3   OH229468   1.720   0.004   9.557  0.0628 -0.0666 -0.3936
 1758TIP3    H129469   1.640  -0.046   9.574 -0.4391  0.6582 -0.5476
 1758TIP3    H229470   1.791  -0.059   9.568 -0.5085 -0.6375  0.0970
 1759TIP3   OH229471   6.393   4.572   7.595  0.5062 -0.0687 -0.0194
 1759TIP3    H129472   6.415   4.494   7.645 -0.1765 -1.5633 -1.9162
 1759TIP3    H229473   6.461   4.635   7.617  1.7537 -1.5986  0.6836
 1760TIP3   OH229474   7.266   3.045   7.422  0.2536  0.1178  0.0026
 1760TIP3    H129475   7.189   3.017   7.471  0.3498  0.3524  0.2974
 1760TIP3    H229476   7.236   3.052   7.331  0.2329 -0.9187 -0.0732
 1761TIP3   OH229477   5.657   3.126   7.588 -0.5452  0.2755  0.0263
 1761TIP3    H129478   5.597   3.130   7.662  1.7142 -0.4438  2.0092
 1761TIP3    H229479   5.680   3.033   7.580 -0.0530  0.4692 -1.0133
 1762TIP3   OH229480   1.503   4.774   8.717  0.0407 -0.5758 -0.0517
 1762TIP3    H129481   1.542   4.775   8.804 -2.1298  0.0785  0.9685
 1762TIP3    H229482   1.578   4.784   8.657  1.3324  1.8859  1.8130
 1763TIP3   OH229483   0.581   4.485   7.205 -0.3754  0.1298 -0.3713
 1763TIP3    H129484   0.653   4.466   7.264 -2.5175  0.7158  2.6379
 1763TIP3    H229485   0.562   4.578   7.218 -1.6835 -0.0094 -1.0636
 1764TIP3   OH229486   7.641   2.987   7.959 -0.2086 -0.1870  0.1371
 1764TIP3    H129487   7.551   2.954   7.966 -0.3620 -0.0532 -1.0376
 1764TIP3    H229488   7.695   2.908   7.961 -0.3265 -0.2568  1.0632
 1765TIP3   OH229489   5.861   0.274   7.981 -0.2922 -0.0614 -0.1927
 1765TIP3    H129490   5.882   0.206   8.045 -1.7714 -0.1786  0.2005
 1765TIP3    H229491   5.806   0.230   7.917  2.1047 -0.2479 -2.2636
 1766TIP3   OH229492   4.471   6.447   8.300  0.7338  0.2571 -0.1799
 1766TIP3    H129493   4.458   6.441   8.206 -0.6305 -3.9118  0.0225
 1766TIP3    H229494   4.561   6.419   8.314  0.3276 -1.2214 -0.2618
 1767TIP3   OH229495   5.268   3.786   8.778  0.1591  1.0149 -0.0666
 1767TIP3    H129496   5.299   3.828   8.698  0.2776 -0.6280 -0.9282
 1767TIP3    H229497   5.187   3.741   8.752  0.3269  0.2691  0.6466
 1768TIP3   OH229498   7.438   6.228   9.732  0.0811  0.0038  0.0335
 1768TIP3    H129499   7.522   6.250   9.691  0.4582 -1.4046  0.0111
 1768TIP3    H229500   7.445   6.135   9.754 -1.1918  0.0455  0.7314
 1769TIP3   OH229501   6.407   2.178   8.084 -0.3105 -0.2414  0.1855
 1769TIP3    H129502   6.500   2.200   8.091  0.2722 -2.5430  0.5785
 1769TIP3    H229503   6.401   2.124   8.005 -1.1106 -0.9629  0.7143
 1770TIP3   OH229504   1.629   0.227   6.776  0.3108  0.5197  0.5653
 1770TIP3    H129505   1.596   0.176   6.702 -1.3085  2.0807  0.1055
 1770TIP3    H229506   1.718   0.252   6.751 -0.2444  1.0999 -0.9510
 1771TIP3   OH229507   3.079   3.956   7.871 -0.2708 -0.2028 -0.1216
 1771TIP3    H129508   3.105   3.969   7.962 -0.9473 -1.1329  0.2224
 1771TIP3    H229509   3.148   3.999   7.820 -0.9910  2.3025  0.8332
 1772TIP3   OH229510   6.978   7.068   7.394 -0.2906  0.1037  0.0375
 1772TIP3    H129511   6.970   7.035   7.483 -0.9257 -0.3499 -0.1816
 1772TIP3    H229512   6.989   7.163   7.404  0.5242 -0.0437  0.6261
 1773TIP3   OH229513   0.829   0.401   8.586  0.1767  0.2848  0.6352
 1773TIP3    H129514   0.737   0.385   8.564  0.5533 -2.0572  0.4884
 1773TIP3    H229515   0.843   0.493   8.564 -1.4938  0.0845 -1.6737
 1774TIP3   OH229516   4.029   7.183   6.674  0.7109 -0.3880  0.0803
 1774TIP3    H129517   3.975   7.126   6.727 -0.9328  1.8904  1.0395
 1774TIP3    H229518   4.020   7.149   6.585 -2.7108  0.0364  0.1219
 1775TIP3   OH229519   5.686   4.557   6.591  0.1600 -0.0152  0.2752
 1775TIP3    H129520   5.634   4.476   6.590  1.0750 -0.6459 -1.8884
 1775TIP3    H229521   5.776   4.527   6.600  0.7026  0.5368 -2.3526
 1776TIP3   OH229522   3.098   0.171   7.343 -0.2099  0.7992  0.7520
 1776TIP3    H129523   3.091   0.222   7.423 -1.7331 -0.2678  1.3434
 1776TIP3    H229524   3.105   0.236   7.273 -0.8766  1.7934  1.5846
 1777TIP3   OH229525   0.718   0.869   8.434 -0.4057  0.4610  1.0241
 1777TIP3    H129526   0.635   0.903   8.468  0.3072  0.2435  3.1431
 1777TIP3    H229527   0.707   0.869   8.339 -1.6334  3.4711  1.0535
 1778TIP3   OH229528   5.307   1.283   8.887  0.1897  0.3592  0.0207
 1778TIP3    H129529   5.223   1.238   8.882 -0.1694  0.9167  0.8458
 1778TIP3    H229530   5.343   1.276   8.798 -0.3901 -0.5036 -0.1616
 1779TIP3   OH229531   3.357   6.026   7.846  0.4628 -0.0891  0.0669
 1779TIP3    H129532   3.403   6.096   7.893  1.6308 -0.6076 -0.2621
 1779TIP3    H229533   3.367   6.050   7.754  0.7545 -0.6166 -0.0401
 1780TIP3   OH229534   3.282   3.238   9.665  0.1121  0.1436 -0.1892
 1780TIP3    H129535   3.277   3.269   9.574  0.1288 -0.7284 -0.5016
 1780TIP3    H229536   3.374   3.245   9.688  0.0440  0.7473 -0.1027
 1781TIP3   OH229537   4.620   1.636   8.513 -0.8055 -0.3590  0.1960
 1781TIP3    H129538   4.675   1.585   8.572  0.3538  0.5422 -0.0671
 1781TIP3    H229539   4.532   1.601   8.526 -0.4361 -0.7703  1.8069
 1782TIP3   OH229540   1.356   3.907   6.697 -0.3671 -0.0830 -0.0352
 1782TIP3    H129541   1.355   3.812   6.686  1.1494 -0.0780 -0.4723
 1782TIP3    H229542   1.354   3.942   6.608  1.3246  0.2146  0.0067
 1783TIP3   OH229543   2.226   6.879   8.455 -0.0413  0.4623  0.5545
 1783TIP3    H129544   2.278   6.866   8.534  0.4477  1.1061  0.3497
 1783TIP3    H229545   2.180   6.796   8.442 -1.2840  0.8154  2.3451
 1784TIP3   OH229546   1.853   7.348   7.188  0.0868 -0.1229  0.0249
 1784TIP3    H129547   1.924   7.293   7.223  0.7564  1.5710  1.5026
 1784TIP3    H229548   1.840   7.317   7.099  0.7527 -2.3310  0.6328
 1785TIP3   OH229549   0.460   1.496   8.840 -0.3101  0.3548 -0.0647
 1785TIP3    H129550   0.406   1.574   8.825 -2.3545 -1.2163 -1.5351
 1785TIP3    H229551   0.541   1.514   8.793 -0.8182  1.5335 -0.5387
 1786TIP3   OH229552   7.158   1.377   7.474 -0.2590  0.2068 -0.2211
 1786TIP3    H129553   7.131   1.287   7.460  0.5903  0.1841 -1.9522
 1786TIP3    H229554   7.211   1.374   7.554 -0.1363 -0.8496 -0.3348
 1787TIP3   OH229555   2.524   0.898   6.935 -0.1739 -0.2102  0.0847
 1787TIP3    H129556   2.516   0.861   6.847  1.0197 -0.5325  0.0932
 1787TIP3    H229557   2.456   0.965   6.940 -1.0377 -1.0087 -0.6580
 1788TIP3   OH229558   1.828   1.295   8.154  0.3598  0.0409  0.4506
 1788TIP3    H129559   1.918   1.324   8.172 -0.0755  0.2776  2.5515
 1788TIP3    H229560   1.775   1.373   8.168 -0.1606  0.0443 -1.3343
 1789TIP3   OH229561   6.808   7.435   7.222  0.0469 -0.4166 -0.0460
 1789TIP3    H129562   6.803   7.437   7.126 -2.0609 -1.4683 -0.0220
 1789TIP3    H229563   6.776   7.520   7.250 -0.2451 -0.4552 -0.2646
 1790TIP3   OH229564   1.627   7.185   8.584 -0.2381 -0.2468  0.0619
 1790TIP3    H129565   1.640   7.174   8.490  1.5793  1.1989  0.0883
 1790TIP3    H229566   1.558   7.251   8.591  0.2726  0.3359 -0.2938
 1791TIP3   OH229567   4.060   1.989   8.329 -0.1351 -0.6348 -0.1481
 1791TIP3    H129568   4.046   1.895   8.319  0.1703 -0.8714  1.3970
 1791TIP3    H229569   4.136   1.996   8.387  0.9333  0.5886 -1.6300
 1792TIP3   OH229570   5.413   4.614   7.925  0.0517  0.1210  0.7225
 1792TIP3    H129571   5.497   4.658   7.935  0.8732 -1.4263  0.8946
 1792TIP3    H229572   5.417   4.575   7.837 -0.1052 -0.7013  1.0703
 1793TIP3   OH229573   2.770   3.683   7.389 -0.6301  0.0168  0.0944
 1793TIP3    H129574   2.685   3.656   7.355 -0.3492 -0.4169 -0.2728
 1793TIP3    H229575   2.764   3.669   7.484 -1.5755  1.6610  0.3064
 1794TIP3   OH229576   3.759   4.593   9.051 -0.0584  0.1371  0.1222
 1794TIP3    H129577   3.804   4.534   8.990 -0.4384 -0.5104  0.4607
 1794TIP3    H229578   3.709   4.652   8.995 -0.8920 -0.8430 -0.1997
 1795TIP3   OH229579   1.877   1.378   8.557 -0.4617  0.3771  0.0115
 1795TIP3    H129580   1.825   1.436   8.614  1.7800  0.5627  2.0200
 1795TIP3    H229581   1.957   1.428   8.540  0.8957 -1.5133  0.5896
 1796TIP3   OH229582   7.265   5.936   8.957  0.0571  0.0810 -0.2631
 1796TIP3    H129583   7.186   5.909   8.910 -0.0585 -0.2979  0.1401
 1796TIP3    H229584   7.335   5.882   8.921  0.1094  0.3373 -0.5423
 1797TIP3   OH229585   7.607   5.554   8.068 -0.6839 -0.5213 -0.6247
 1797TIP3    H129586   7.633   5.644   8.091  0.0566 -0.7325 -0.6080
 1797TIP3    H229587   7.564   5.563   7.983 -1.6335 -0.0045 -0.1040
 1798TIP3   OH229588   5.179   4.514   9.094  0.3656 -0.2398 -0.3101
 1798TIP3    H129589   5.140   4.531   9.180 -0.9010 -2.7159 -0.3084
 1798TIP3    H229590   5.173   4.598   9.048 -0.7961  0.6232  1.3056
 1799TIP3   OH229591   4.179   2.128   9.326 -0.3402  0.4169  0.5827
 1799TIP3    H129592   4.247   2.133   9.259 -0.9898  2.1412  0.0047
 1799TIP3    H229593   4.136   2.044   9.309  0.6941 -0.0324  0.0473
 1800TIP3   OH229594   2.976   1.606   6.712 -0.3617  0.0434  0.8253
 1800TIP3    H129595   2.999   1.698   6.723 -3.6791  1.1863 -0.5065
 1800TIP3    H229596   3.054   1.566   6.672  1.1550  2.2179  1.4369
 1801TIP3   OH229597   0.362   2.057   7.238  0.0045  0.1991  0.6501
 1801TIP3    H129598   0.303   2.045   7.164  1.8712 -0.6145 -0.7744
 1801TIP3    H229599   0.384   2.150   7.237  1.2791 -0.0841 -0.8734
 1802TIP3   OH229600   2.333   4.669   7.126 -0.4380 -0.0403 -0.3688
 1802TIP3    H129601   2.348   4.743   7.067 -0.1761  0.6781  0.5812
 1802TIP3    H229602   2.401   4.605   7.103  0.7635  0.9604  0.3095
 1803TIP3   OH229603   7.457   0.026   9.263  0.1191 -0.3320  0.5898
 1803TIP3    H129604   7.499   0.107   9.233 -1.3670  0.7004  1.1390
 1803TIP3    H229605   7.460   0.031   9.358 -1.0739 -0.2770  0.6480
 1804TIP3   OH229606   1.367   1.173   7.769 -0.5131  0.0995  0.1055
 1804TIP3    H129607   1.369   1.178   7.673  0.7662  4.0466  0.1202
 1804TIP3    H229608   1.429   1.241   7.797 -1.4572 -0.3254  3.7469
 1805TIP3   OH229609   6.482   3.688   7.543  0.1474  0.5137  0.0023
 1805TIP3    H129610   6.402   3.711   7.494 -1.3254 -2.2144  0.9233
 1805TIP3    H229611   6.462   3.713   7.633  1.4778  2.2628 -0.1212
 1806TIP3   OH229612   2.710   6.362   8.789 -0.9983 -0.4512 -0.2640
 1806TIP3    H129613   2.633   6.315   8.759 -1.3310 -1.6509  2.1930
 1806TIP3    H229614   2.781   6.298   8.784 -1.2248 -0.9662  2.0459
 1807TIP3   OH229615   6.533   7.656   9.346  0.3275 -0.1723  0.3993
 1807TIP3    H129616   6.480   7.722   9.392  0.5209 -0.9487  1.7973
 1807TIP3    H229617   6.469   7.601   9.302  0.0251 -0.4015  1.1082
 1808TIP3   OH229618   4.692   6.397   8.950 -0.7229  0.6602  0.0686
 1808TIP3    H129619   4.718   6.373   8.861  3.0621 -0.2205  1.2487
 1808TIP3    H229620   4.600   6.368   8.957  0.0047 -2.8734 -2.3536
 1809TIP3   OH229621   1.181   4.138   8.362 -0.4878  0.0932 -0.0923
 1809TIP3    H129622   1.182   4.182   8.277 -0.1380  0.2299 -0.0219
 1809TIP3    H229623   1.192   4.045   8.341  0.4679  0.2110 -0.1539
 1810TIP3   OH229624   5.097   0.536   8.077 -0.3195  0.2191 -0.3842
 1810TIP3    H129625   5.108   0.513   8.169  0.8877  1.3894 -0.2071
 1810TIP3    H229626   5.163   0.484   8.031  1.2241  1.9053 -0.1844
 1811TIP3   OH229627   2.672   6.632   8.962 -0.3158 -0.4377 -0.7279
 1811TIP3    H129628   2.706   6.715   8.930 -2.1843  0.3181 -0.8375
 1811TIP3    H229629   2.697   6.568   8.894  2.3580 -0.3027  0.0221
 1812TIP3   OH229630   0.801   2.352   9.395 -0.4769  0.2356 -0.2456
 1812TIP3    H129631   0.833   2.442   9.388 -0.6562  0.4671  1.3441
 1812TIP3    H229632   0.765   2.331   9.309 -1.8647  2.2489 -0.2133
 1813TIP3   OH229633   2.460   4.319   7.355  0.8086 -0.1835 -0.4181
 1813TIP3    H129634   2.392   4.265   7.393  1.4188 -0.0107  0.9608
 1813TIP3    H229635   2.538   4.263   7.354  1.2813  0.4373  0.4061
 1814TIP3   OH229636   6.780   0.961   9.278  0.1020  0.5308 -0.2483
 1814TIP3    H129637   6.704   1.005   9.241 -0.7534 -0.2832  0.4695
 1814TIP3    H229638   6.837   1.032   9.308 -1.6419  1.2182  1.7064
 1815TIP3   OH229639   2.218   4.140   7.444  0.2456  0.8208 -0.0862
 1815TIP3    H129640   2.144   4.093   7.483  1.6023 -1.1985  0.2186
 1815TIP3    H229641   2.179   4.216   7.402 -2.3279 -1.2954 -1.8215
 1816TIP3   OH229642   3.619   1.643   8.708  0.1376  0.0713  0.0515
 1816TIP3    H129643   3.628   1.633   8.802 -0.2688  0.5303  0.1489
 1816TIP3    H229644   3.703   1.617   8.672  0.4557  0.3490  0.5801
 1817TIP3   OH229645   4.854   7.037   9.002 -0.2060  0.6079  0.1170
 1817TIP3    H129646   4.814   6.990   8.928 -0.3276 -1.6833  1.5187
 1817TIP3    H229647   4.945   7.049   8.975 -0.0742 -0.8075 -0.1840
 1818TIP3   OH229648   6.885   1.218   9.265  0.4418  0.1073  0.3944
 1818TIP3    H129649   6.979   1.234   9.266  0.3747  0.9572 -1.8101
 1818TIP3    H229650   6.845   1.305   9.269 -0.1086  0.0878 -2.3106
 1819TIP3   OH229651   4.173   1.767   9.311  0.2392  0.3165 -0.3485
 1819TIP3    H129652   4.147   1.717   9.234  0.0893 -0.0287 -0.0792
 1819TIP3    H229653   4.265   1.789   9.295  0.6581 -1.0356  0.0243
 1820TIP3   OH229654   1.057   1.429   7.680  0.1758 -0.0587 -0.2741
 1820TIP3    H129655   1.028   1.517   7.653 -0.1583 -0.1545 -0.2310
 1820TIP3    H229656   1.152   1.430   7.666  0.3445  0.7064  0.8185
 1821TIP3   OH229657   0.107   3.660   8.696 -0.4674  0.1363 -0.2034
 1821TIP3    H129658   0.112   3.655   8.601 -2.1313  1.5538 -0.4040
 1821TIP3    H229659   0.063   3.579   8.722  2.2828 -1.5069 -0.3465
 1822TIP3   OH229660   4.522   6.337   7.608  0.6861 -0.0462  0.3124
 1822TIP3    H129661   4.502   6.430   7.594 -1.2339 -0.5994 -1.1263
 1822TIP3    H229662   4.578   6.335   7.685  0.1671  2.2521  0.8171
 1823TIP3   OH229663   3.658   2.072   8.610  0.1207 -0.2411 -0.5271
 1823TIP3    H129664   3.590   2.113   8.556  2.3802  1.1743 -2.4586
 1823TIP3    H229665   3.707   2.017   8.549  2.1242  0.5980  0.2536
 1824TIP3   OH229666   1.948   6.332   9.057 -0.1659 -0.2366  0.1971
 1824TIP3    H129667   1.982   6.421   9.058 -0.6517 -0.0255 -0.9778
 1824TIP3    H229668   2.027   6.277   9.049  0.1389  0.0666  1.0102
 1825TIP3   OH229669   6.508   1.495   7.262  0.0083  0.0573  0.4116
 1825TIP3    H129670   6.543   1.424   7.209 -0.5567 -0.0119  0.1226
 1825TIP3    H229671   6.422   1.514   7.224 -0.0877  0.5133  0.8350
 1826TIP3   OH229672   2.166   6.290   8.054 -0.4749 -0.0368 -0.4107
 1826TIP3    H129673   2.084   6.316   8.012  1.1957  2.3334 -2.4598
 1826TIP3    H229674   2.231   6.291   7.984  1.3286 -2.1289  1.0722
 1827TIP3   OH229675   2.850   2.078   8.092 -0.4160 -0.0596 -0.4112
 1827TIP3    H129676   2.875   2.074   8.184 -1.4942 -0.8498 -0.1355
 1827TIP3    H229677   2.789   2.151   8.086 -0.4304 -0.0767 -0.4779
 1828TIP3   OH229678   5.775   4.902   8.006 -0.1467  0.7897 -0.1424
 1828TIP3    H129679   5.722   4.823   8.019  0.4349  0.4478  0.1900
 1828TIP3    H229680   5.802   4.897   7.915 -0.9550  1.1391 -0.4100
 1829TIP3   OH229681   1.141   7.119   7.242  0.1523 -0.5403  0.6300
 1829TIP3    H129682   1.049   7.138   7.263 -0.4096 -0.5907 -1.5268
 1829TIP3    H229683   1.137   7.046   7.181  1.4122  0.9188 -1.3461
 1830TIP3   OH229684   4.730   4.175   9.123  0.3661 -0.2324 -0.2243
 1830TIP3    H129685   4.768   4.259   9.097  0.5337 -0.6732 -1.5159
 1830TIP3    H229686   4.717   4.128   9.040  0.3094 -1.4917  0.4637
 1831TIP3   OH229687   1.413   5.378   9.584  0.0681  0.1535  0.2735
 1831TIP3    H129688   1.382   5.465   9.608 -0.9027 -0.0524 -0.1568
 1831TIP3    H229689   1.455   5.390   9.499 -0.9778  0.0446 -0.2737
 1832TIP3   OH229690   2.746   5.832   9.483 -0.6590  0.0584  0.0125
 1832TIP3    H129691   2.817   5.876   9.529  0.1398 -0.9262 -0.2567
 1832TIP3    H229692   2.673   5.834   9.544 -0.3230  0.8129  0.4073
 1833TIP3   OH229693   7.147   6.007   9.610  0.4100  0.0531 -0.0973
 1833TIP3    H129694   7.077   5.956   9.569  0.6243  0.4673 -1.0208
 1833TIP3    H229695   7.105   6.054   9.681 -0.2594  0.3039 -0.6488
 1834TIP3   OH229696   7.336   6.934   9.653 -0.5468  0.2828  0.0483
 1834TIP3    H129697   7.371   6.970   9.734  0.5722  1.6380 -0.9827
 1834TIP3    H229698   7.264   6.992   9.630 -1.1532 -0.3631  0.2840
 1835TIP3   OH229699   6.966   3.990   9.073 -0.5308  0.0635 -0.1215
 1835TIP3    H129700   7.029   3.945   9.018  0.9138  0.4423  1.1591
 1835TIP3    H229701   6.917   3.919   9.116 -0.1110 -0.2461 -0.1519
 1836TIP3   OH229702   1.285   1.866   8.898 -0.5499  0.0469 -0.2504
 1836TIP3    H129703   1.209   1.923   8.887 -0.7563 -0.0879  0.4344
 1836TIP3    H229704   1.311   1.843   8.809  0.6771  2.6850 -0.6927
 1837TIP3   OH229705   7.508   2.439   9.331 -0.1089 -0.3014  0.2076
 1837TIP3    H129706   7.541   2.350   9.316  0.4373 -0.1153  0.2912
 1837TIP3    H229707   7.453   2.431   9.409  2.2492 -0.0375  2.0063
 1838TIP3   OH229708   6.865   2.037   8.748  0.7470 -0.5498  0.1759
 1838TIP3    H129709   6.788   1.985   8.773  1.1936 -0.9493  0.7292
 1838TIP3    H229710   6.871   2.105   8.814  0.2477  0.1417 -0.4686
 1839TIP3   OH229711   1.950   2.719   7.122 -0.5181  0.2668  0.1255
 1839TIP3    H129712   1.870   2.770   7.109 -0.5953  0.4131  1.1239
 1839TIP3    H229713   1.961   2.716   7.217  0.5008 -0.0058  0.0049
 1840TIP3   OH229714   2.168   4.933   8.326 -0.0972 -0.1458  0.2308
 1840TIP3    H129715   2.156   4.996   8.397  0.6558  0.0992  0.1536
 1840TIP3    H229716   2.104   4.864   8.343 -0.8082  0.5517  0.4143
 1841TIP3   OH229717   6.702   1.929   9.531 -0.1987 -0.2396 -0.3250
 1841TIP3    H129718   6.628   1.925   9.470  0.2105  0.6491 -0.9014
 1841TIP3    H229719   6.741   1.842   9.526 -1.0712 -0.6604 -0.1673
 1842TIP3   OH229720   1.760   0.786   8.279  0.2939 -0.1866 -0.4968
 1842TIP3    H129721   1.751   0.881   8.294  0.3935  0.0307 -1.7679
 1842TIP3    H229722   1.703   0.747   8.346 -0.9220  0.8138 -0.9003
 1843TIP3   OH229723   7.143   7.135   9.595  0.2170  0.3754 -0.7055
 1843TIP3    H129724   7.106   7.086   9.522  1.1142  0.6801 -1.3791
 1843TIP3    H229725   7.068   7.158   9.650 -0.4191 -0.1681 -1.3402
 1844TIP3   OH229726   4.013   1.253   7.191 -1.0270  0.6534 -0.5728
 1844TIP3    H129727   3.940   1.254   7.129 -1.4918  0.5387 -0.0310
 1844TIP3    H229728   4.055   1.169   7.178 -2.6004 -0.4460  0.9535
 1845TIP3   OH229729   2.384   6.508   7.914  0.2974 -0.5747 -0.0747
 1845TIP3    H129730   2.472   6.545   7.909  0.0566 -0.2223 -2.6022
 1845TIP3    H229731   2.341   6.535   7.833 -1.9949 -1.1508  0.8657
 1846TIP3   OH229732   1.626   3.658   7.488 -0.2788 -0.2979 -0.0058
 1846TIP3    H129733   1.601   3.673   7.397  0.7631 -0.8599 -0.3981
 1846TIP3    H229734   1.719   3.636   7.485  0.2526  1.4573  1.3715
 1847TIP3   OH229735   1.784   0.160   7.195  0.1099 -0.1225 -0.5287
 1847TIP3    H129736   1.754   0.193   7.111  1.6405  1.1978 -0.5993
 1847TIP3    H229737   1.764   0.066   7.193 -1.4812  0.2051 -1.6078
 1848TIP3   OH229738   0.865   4.251   7.406  0.3228 -0.0538 -0.2627
 1848TIP3    H129739   0.797   4.205   7.456  0.3512  0.0576 -0.1180
 1848TIP3    H229740   0.886   4.192   7.334  0.4066 -0.2967 -0.0431
 1849TIP3   OH229741   6.055   1.395   8.709  0.0368  0.2163  0.3587
 1849TIP3    H129742   6.141   1.385   8.667 -0.3903 -2.2980 -0.0415
 1849TIP3    H229743   5.998   1.428   8.639  0.7307  2.5466  0.7910
 1850TIP3   OH229744   6.270   7.530   8.810  0.3672 -0.0511 -0.6300
 1850TIP3    H129745   6.262   7.531   8.715  1.7341 -0.5565 -0.7675
 1850TIP3    H229746   6.312   7.613   8.832 -0.2460  0.2096 -0.4322
 1851TIP3   OH229747   2.557   0.158   9.565  0.3703 -0.0449  0.5175
 1851TIP3    H129748   2.522   0.085   9.616  0.0043  0.5051  1.0615
 1851TIP3    H229749   2.563   0.123   9.476 -1.4319 -0.2215  0.4256
 1852TIP3   OH229750   4.834   7.527   9.390 -0.7294  0.4177  0.0889
 1852TIP3    H129751   4.777   7.601   9.370  2.2929  2.1558 -3.0541
 1852TIP3    H229752   4.919   7.550   9.353  0.8206 -4.0727  0.1754
 1853TIP3   OH229753   2.204   5.604   9.222  0.4015  0.1523 -0.3040
 1853TIP3    H129754   2.186   5.642   9.308  0.4151 -0.3246 -0.0873
 1853TIP3    H229755   2.267   5.664   9.182  0.2124  0.5050 -0.0802
 1854TIP3   OH229756   0.992   4.715   8.473 -0.1020 -0.6089 -0.3492
 1854TIP3    H129757   0.915   4.709   8.417  0.1721  1.0595 -0.9637
 1854TIP3    H229758   1.059   4.756   8.418 -0.4552  3.2202  1.7032
 1855TIP3   OH229759   4.950   0.682   7.833 -0.1632 -0.5050  0.0336
 1855TIP3    H129760   4.898   0.763   7.833 -1.0724 -1.0750 -0.6080
 1855TIP3    H229761   5.039   0.711   7.853 -0.6206  0.5587  0.6098
 1856TIP3   OH229762   6.448   0.596   7.155  0.2339 -0.0986  0.2083
 1856TIP3    H129763   6.501   0.556   7.085 -0.3701 -0.7105  0.0772
 1856TIP3    H229764   6.392   0.659   7.109 -1.0639 -1.4023 -0.0887
 1857TIP3   OH229765   5.670   1.475   8.595  0.4429  0.7292  0.5882
 1857TIP3    H129766   5.673   1.523   8.678  0.8160  0.8951  0.4821
 1857TIP3    H229767   5.761   1.473   8.565  0.4479 -0.0801  0.6139
 1858TIP3   OH229768   2.330   0.570   9.133  0.0118  0.7380 -0.0526
 1858TIP3    H129769   2.308   0.507   9.064 -2.1919 -1.4664  2.3878
 1858TIP3    H229770   2.262   0.637   9.126 -0.7670  0.0341  0.4280
 1859TIP3   OH229771   6.486   6.716   8.049 -0.3008  0.1818  0.0479
 1859TIP3    H129772   6.421   6.706   8.119 -0.1483  0.5961  0.2544
 1859TIP3    H229773   6.483   6.633   8.002 -2.2560  0.7940 -1.0448
 1860TIP3   OH229774   0.679   0.578   8.257  0.4075 -0.4260 -0.0164
 1860TIP3    H129775   0.760   0.536   8.228  1.1873  1.9056 -1.4805
 1860TIP3    H229776   0.707   0.661   8.296 -1.2429  0.2722 -0.2360
 1861TIP3   OH229777   7.220   1.303   7.855 -0.6678 -0.7688  0.1758
 1861TIP3    H129778   7.130   1.314   7.824 -0.5464 -0.5378 -0.0976
 1861TIP3    H229779   7.273   1.304   7.776 -0.3668 -0.3012  0.3785
 1862TIP3   OH229780   2.667   6.382   9.072 -0.1973  0.1874  0.0394
 1862TIP3    H129781   2.654   6.471   9.038  0.6566  0.6030  0.7639
 1862TIP3    H229782   2.718   6.338   9.003  0.8384  0.7861  0.4044
 1863TIP3   OH229783   5.411   0.744   8.469  0.0132  0.3301  0.2203
 1863TIP3    H129784   5.419   0.770   8.561  0.1989  0.5449  0.1433
 1863TIP3    H229785   5.500   0.752   8.434 -0.0717  0.3177  0.0023
 1864TIP3   OH229786   2.333   2.024   7.643  0.1389  0.1492  0.1221
 1864TIP3    H129787   2.369   2.031   7.732  0.4622 -1.4041  0.1329
 1864TIP3    H229788   2.385   1.956   7.601  0.3798  1.2693 -1.4778
 1865TIP3   OH229789   2.872   3.935   8.545 -0.1637 -0.1914  0.1051
 1865TIP3    H129790   2.850   3.898   8.460 -2.5031  0.4610  0.3453
 1865TIP3    H229791   2.788   3.939   8.591  0.3451  3.1551  0.9516
 1866TIP3   OH229792   1.502   3.240   6.942 -0.0505  0.0965 -0.2370
 1866TIP3    H129793   1.429   3.179   6.948 -0.0264  0.2303  2.7528
 1866TIP3    H229794   1.568   3.193   6.891 -1.5274 -0.7064 -1.4810
 1867TIP3   OH229795   5.501   7.321   9.457 -0.1280  0.2307  0.6042
 1867TIP3    H129796   5.504   7.226   9.466 -0.7445  0.2156  0.6426
 1867TIP3    H229797   5.518   7.354   9.545  0.1236  0.1633  0.5837
 1868TIP3   OH229798   4.379   4.476   8.116  0.3134  0.3998 -0.2909
 1868TIP3    H129799   4.439   4.488   8.042  3.2650  0.9003  2.0344
 1868TIP3    H229800   4.368   4.563   8.153 -0.0149 -0.0382  0.6752
 1869TIP3   OH229801   6.275   3.410   8.303  0.1986 -0.1311 -0.1188
 1869TIP3    H129802   6.262   3.458   8.221 -0.9607  0.3316  0.3148
 1869TIP3    H229803   6.337   3.464   8.352 -1.0035  0.9116  0.3164
 1870TIP3   OH229804   6.822   3.266   8.166 -0.3901  0.0502 -0.8371
 1870TIP3    H129805   6.912   3.253   8.198  0.0220  2.7389 -0.7366
 1870TIP3    H229806   6.767   3.250   8.243  0.2622  1.6314 -0.0096
 1871TIP3   OH229807   1.578   0.216   7.399 -0.5778 -0.0179 -0.4886
 1871TIP3    H129808   1.639   0.212   7.325 -0.2314  1.4032 -0.3130
 1871TIP3    H229809   1.605   0.294   7.448  0.4083 -1.9218  2.2167
 1872TIP3   OH229810   2.543   1.098   7.545  0.0669 -0.3683  0.0754
 1872TIP3    H129811   2.594   1.179   7.542  0.4977 -0.6480 -0.2655
 1872TIP3    H229812   2.606   1.032   7.574 -0.8451 -0.1435  2.8574
 1873TIP3   OH229813   3.880   4.869   8.423  0.4952 -0.3382 -0.0933
 1873TIP3    H129814   3.909   4.960   8.411 -2.1282  0.6814  0.4719
 1873TIP3    H229815   3.873   4.858   8.517  0.5174 -1.0460 -0.1691
 1874TIP3   OH229816   0.279   0.313   9.644  0.2480  0.1223 -0.1922
 1874TIP3    H129817   0.330   0.383   9.687  0.4552  0.6936 -1.3197
 1874TIP3    H229818   0.335   0.285   9.572  0.3030 -1.4638  0.4334
 1875TIP3   OH229819   6.128   5.722   7.806  0.0206  0.3235  0.1688
 1875TIP3    H129820   6.096   5.718   7.716  2.0673  1.1468 -0.6396
 1875TIP3    H229821   6.222   5.703   7.799  0.0991 -0.2445  2.2196
 1876TIP3   OH229822   3.746   0.073   7.429  0.5960  0.1682 -0.2531
 1876TIP3    H129823   3.788   0.107   7.508  0.3790  0.4814 -0.2707
 1876TIP3    H229824   3.676   0.015   7.462 -0.8119  1.8431 -0.1596
 1877TIP3   OH229825   3.917   3.500   9.172  0.0521  0.3799 -0.1773
 1877TIP3    H129826   3.956   3.466   9.253  0.4963 -0.0900 -0.5805
 1877TIP3    H229827   3.945   3.438   9.105  1.4400  1.9041 -1.0572
 1878TIP3   OH229828   3.742   2.759   8.946  0.4960  0.1973  0.0278
 1878TIP3    H129829   3.660   2.798   8.976  0.3059 -1.8547  2.4921
 1878TIP3    H229830   3.715   2.680   8.899  1.0545  0.2570 -0.4164
 1879TIP3   OH229831   3.580   0.862   9.320  0.8725 -0.8604  0.1222
 1879TIP3    H129832   3.572   0.778   9.275 -0.5069  0.7561 -2.9871
 1879TIP3    H229833   3.490   0.885   9.345  0.9490  0.4731 -0.7407
 1880TIP3   OH229834   2.194   1.434   7.488 -0.2710  0.0948  0.0881
 1880TIP3    H129835   2.117   1.390   7.450  0.1861 -0.5198 -0.1561
 1880TIP3    H229836   2.169   1.452   7.579 -1.2781  1.3330 -0.4012
 1881TIP3   OH229837   6.538   5.264   7.467 -0.1492  0.6657 -0.0003
 1881TIP3    H129838   6.527   5.192   7.405 -0.1270  0.2492  0.4724
 1881TIP3    H229839   6.562   5.340   7.412 -0.4183  0.3764 -0.5237
 1882TIP3   OH229840   5.169   1.855   7.867 -0.0083 -0.2449  0.3513
 1882TIP3    H129841   5.216   1.809   7.937 -0.0043 -0.8034 -0.0125
 1882TIP3    H229842   5.236   1.870   7.800 -0.1653 -0.3072  0.1821
 1883TIP3   OH229843   6.269   4.467   8.760 -0.1045 -0.2583 -0.1553
 1883TIP3    H129844   6.188   4.496   8.800 -0.3379 -0.0513 -0.7621
 1883TIP3    H229845   6.338   4.493   8.821 -0.3481  1.1358 -0.4475
 1884TIP3   OH229846   1.753   4.072   7.354 -0.3547  0.3522  0.2328
 1884TIP3    H129847   1.832   4.126   7.348 -0.5480  0.5680 -0.3643
 1884TIP3    H229848   1.729   4.075   7.447 -0.7063  1.7995  0.1221
 1885TIP3   OH229849   2.674   1.594   6.718  0.4238 -0.5043 -0.0592
 1885TIP3    H129850   2.653   1.682   6.751  0.8916 -0.3383 -0.1982
 1885TIP3    H229851   2.767   1.598   6.697  0.4262 -1.0108 -0.1479
 1886TIP3   OH229852   7.090   1.105   7.412 -0.3610 -0.9139  0.8779
 1886TIP3    H129853   7.065   1.039   7.477 -1.5796 -2.8793 -1.4375
 1886TIP3    H229854   7.103   1.055   7.331  2.0580  1.2897 -0.2356
 1887TIP3   OH229855   0.698   2.789   7.185  0.2060  0.5031  0.2904
 1887TIP3    H129856   0.637   2.820   7.119 -0.3521  2.1594  1.5143
 1887TIP3    H229857   0.685   2.848   7.259  1.1712 -0.9566  1.6937
 1888TIP3   OH229858   5.117   6.874   6.887  0.4016 -0.4197  0.0261
 1888TIP3    H129859   5.048   6.901   6.827 -0.2460 -0.7690  0.6097
 1888TIP3    H229860   5.197   6.914   6.851 -0.4103  1.8672  0.5769
 1889TIP3   OH229861   4.297   3.073   8.113  0.6667  0.3371  0.2224
 1889TIP3    H129862   4.228   3.138   8.124  1.0449  1.5988 -3.3783
 1889TIP3    H229863   4.314   3.040   8.201 -3.0531  1.4273  1.5508
 1890TIP3   OH229864   4.491   4.825   9.275  0.0563 -0.8361  0.2226
 1890TIP3    H129865   4.541   4.900   9.308  0.2948 -1.2656  0.8520
 1890TIP3    H229866   4.404   4.835   9.314 -0.3548 -0.1344 -0.8055
 1891TIP3   OH229867   2.620   4.107   7.306  0.1247 -0.2955 -0.3677
 1891TIP3    H129868   2.584   4.025   7.273 -0.2677 -0.6138  0.8211
 1891TIP3    H229869   2.714   4.090   7.314  0.1144 -0.4615 -0.5912
 1892TIP3   OH229870   7.431   3.734   8.722 -0.2533  0.1430 -0.1295
 1892TIP3    H129871   7.476   3.729   8.638 -1.5932  1.7351 -0.9994
 1892TIP3    H229872   7.493   3.776   8.780  0.3412 -0.0933 -0.5843
 1893TIP3   OH229873   7.187   2.764   9.179 -0.0252  0.0439  0.2482
 1893TIP3    H129874   7.164   2.742   9.270  0.2612 -0.0441  0.3006
 1893TIP3    H229875   7.263   2.710   9.160  0.8414  1.1565  0.4622
 1894TIP3   OH229876   0.784   7.078   8.589  0.5761  0.7673 -0.0713
 1894TIP3    H129877   0.794   7.173   8.599  0.5514  0.7833 -0.1907
 1894TIP3    H229878   0.744   7.068   8.502 -1.9978  0.8033  1.0130
 1895TIP3   OH229879   1.864   5.561   8.729  0.1544 -0.3602 -0.4272
 1895TIP3    H129880   1.944   5.586   8.776  0.9192 -0.5614 -1.5604
 1895TIP3    H229881   1.794   5.573   8.792  1.1408 -0.6880  0.7741
 1896TIP3   OH229882   5.602   6.865   7.083 -0.0514  0.6761  0.1554
 1896TIP3    H129883   5.599   6.828   6.994  0.7916 -3.2715  1.5833
 1896TIP3    H229884   5.695   6.869   7.105 -0.2745  1.2220  1.0503
 1897TIP3   OH229885   7.412   1.666   7.460  0.3599 -0.5074  0.0709
 1897TIP3    H129886   7.484   1.616   7.422  0.8714  2.0995 -2.7828
 1897TIP3    H229887   7.334   1.617   7.437  0.9750 -1.5006  0.0225
 1898TIP3   OH229888   6.673   4.595   8.227 -0.4494 -0.5070  0.1072
 1898TIP3    H129889   6.642   4.525   8.284  1.5884 -1.5798  0.0035
 1898TIP3    H229890   6.615   4.592   8.151 -2.5820  0.2939  1.6180
 1899TIP3   OH229891   2.661   7.579   7.632  1.0655  0.6136 -0.4285
 1899TIP3    H129892   2.748   7.554   7.601  1.5381  0.2981  1.0582
 1899TIP3    H229893   2.678   7.630   7.711 -0.0999 -1.4887  1.3180
 1900TIP3   OH229894   4.055   2.484   8.546 -0.2160 -0.5449  0.3592
 1900TIP3    H129895   3.966   2.458   8.571 -1.0019  1.4284 -0.2401
 1900TIP3    H229896   4.095   2.514   8.628  0.5110 -2.8333  0.9480
 1901TIP3   OH229897   3.157   1.851   9.448 -0.2111 -0.0409  0.4205
 1901TIP3    H129898   3.147   1.768   9.494 -0.1942  0.2472  0.9529
 1901TIP3    H229899   3.109   1.839   9.367  0.9610 -1.0526 -0.1502
 1902TIP3   OH229900   6.824   6.492   8.559  0.1115 -0.1427  0.3633
 1902TIP3    H129901   6.788   6.581   8.549  0.5908 -0.1659 -2.1865
 1902TIP3    H229902   6.911   6.505   8.596 -0.3143  0.3358  1.2246
 1903TIP3   OH229903   6.543   2.857   7.967  0.2190  0.1990  0.2491
 1903TIP3    H129904   6.600   2.781   7.955 -0.6305 -0.3660 -0.3252
 1903TIP3    H229905   6.602   2.932   7.966  1.3528 -0.5398  2.9735
 1904TIP3   OH229906   1.107   7.087   9.069  0.3501  0.7034 -0.1032
 1904TIP3    H129907   1.099   7.051   9.157  1.2272  1.3374  0.2467
 1904TIP3    H229908   1.200   7.105   9.058  0.5469 -1.0750 -1.8671
 1905TIP3   OH229909   5.442   3.278   9.003 -0.0745 -0.1759 -0.0028
 1905TIP3    H129910   5.461   3.261   8.910 -1.2911  1.1490 -0.5259
 1905TIP3    H229911   5.502   3.349   9.027 -0.9692  0.7020 -0.3004
 1906TIP3   OH229912   2.942   0.794   7.521 -0.3453 -0.2162 -0.0057
 1906TIP3    H129913   3.037   0.780   7.525 -0.4037 -0.3086  1.9199
 1906TIP3    H229914   2.913   0.785   7.612 -2.3963 -1.4927 -0.7362
 1907TIP3   OH229915   5.948   0.016   8.060 -0.2243  0.5282 -0.2859
 1907TIP3    H129916   5.867  -0.005   8.106  0.5878  1.2180  1.5576
 1907TIP3    H229917   5.964  -0.059   8.003 -1.9755  0.2432 -0.4530
 1908TIP3   OH229918   3.978   3.854   9.254  0.0740 -0.5701  0.9138
 1908TIP3    H129919   4.048   3.879   9.315  0.2893 -0.9405  0.8247
 1908TIP3    H229920   4.025   3.818   9.178 -0.2231 -3.1169  1.8448
 1909TIP3   OH229921   0.282   5.278   8.543 -0.1772 -0.1829  0.2096
 1909TIP3    H129922   0.200   5.278   8.593 -0.8832  1.9061 -0.8538
 1909TIP3    H229923   0.255   5.268   8.452  0.5918  1.8325 -0.2828
 1910TIP3   OH229924   4.546   5.808   6.664  0.0712 -0.4465  0.5106
 1910TIP3    H129925   4.523   5.799   6.757  2.6626 -1.2679  1.1583
 1910TIP3    H229926   4.608   5.880   6.662 -2.0564  1.4737 -1.1004
 1911TIP3   OH229927   5.631   2.042   7.691  0.1342  0.2859 -0.0839
 1911TIP3    H129928   5.545   2.006   7.672  1.1396 -1.0669 -2.5391
 1911TIP3    H229929   5.669   1.982   7.755 -0.6406  0.7708  0.8447
 1912TIP3   OH229930   7.342   7.622   9.599 -0.5345  0.0446 -0.6558
 1912TIP3    H129931   7.335   7.529   9.622  0.0072  0.5434  1.8108
 1912TIP3    H229932   7.252   7.653   9.598 -0.6235 -0.1353  0.3914
 1913TIP3   OH229933   2.228   1.591   8.856  0.4638  0.2112 -0.3742
 1913TIP3    H129934   2.248   1.512   8.905  0.4955  0.0691 -0.6163
 1913TIP3    H229935   2.165   1.638   8.911  2.4528  1.3567  1.0796
 1914TIP3   OH229936   6.267   0.681   7.935 -0.0211 -0.3357  0.1560
 1914TIP3    H129937   6.346   0.636   7.965  0.4143 -0.4705 -1.1373
 1914TIP3    H229938   6.293   0.772   7.925 -0.3286 -0.1766  0.7246
 1915TIP3   OH229939   4.437   4.970   8.477 -0.0278 -0.4476  0.1231
 1915TIP3    H129940   4.506   4.941   8.417  0.7602 -1.5324  1.5015
 1915TIP3    H229941   4.386   4.891   8.495 -0.6162 -0.0076  0.4127
 1916TIP3   OH229942   5.827   6.704   7.272 -0.3100  0.3135  0.2842
 1916TIP3    H129943   5.798   6.656   7.349 -1.3354  1.3020  0.5468
 1916TIP3    H229944   5.800   6.648   7.198 -0.2564 -0.1525  0.6116
 1917TIP3   OH229945   6.929   6.227   9.263  0.3278 -0.1439  0.4670
 1917TIP3    H129946   6.947   6.133   9.271 -1.1487 -0.3810  1.5030
 1917TIP3    H229947   6.878   6.235   9.183  1.3380 -0.0598 -0.1824
 1918TIP3   OH229948   2.489   5.137   8.270 -0.6633  0.0554 -0.2512
 1918TIP3    H129949   2.553   5.136   8.198 -0.6527 -0.1553 -0.2404
 1918TIP3    H229950   2.450   5.050   8.268 -1.1974  0.3001 -0.4729
 1919TIP3   OH229951   7.341   2.734   8.486 -0.4207 -0.0309  0.0069
 1919TIP3    H129952   7.326   2.796   8.557 -0.5415 -1.9927  1.7872
 1919TIP3    H229953   7.303   2.777   8.409  2.9354  3.8187  0.1768
 1920TIP3   OH229954   1.097   7.572   9.014 -0.2248  0.3562 -0.1825
 1920TIP3    H129955   1.086   7.642   8.949 -0.9059 -0.0743 -0.5339
 1920TIP3    H229956   1.079   7.491   8.966  1.9872 -0.2217 -0.1680
 1921TIP3   OH229957   1.602   4.854   8.180  0.7704 -0.1614 -0.1595
 1921TIP3    H129958   1.522   4.813   8.212  0.7808 -0.3693 -0.3956
 1921TIP3    H229959   1.631   4.797   8.109  1.3109 -0.2770  0.1435
 1922TIP3   OH229960   0.502   3.635   7.967  0.5124 -0.4031  0.0099
 1922TIP3    H129961   0.499   3.549   8.008  1.1916 -1.6259 -2.3189
 1922TIP3    H229962   0.436   3.632   7.898  1.1337  0.6048 -0.6791
 1923TIP3   OH229963   5.134   1.928   7.392 -0.3718  0.7564  0.0104
 1923TIP3    H129964   5.159   1.836   7.390  0.1886  0.9148 -0.5728
 1923TIP3    H229965   5.047   1.930   7.352 -0.5476  0.4331  0.3730
 1924TIP3   OH229966   4.989   0.688   6.915  0.2643  0.2366  0.1641
 1924TIP3    H129967   4.942   0.746   6.855 -0.3708 -1.5313 -1.1368
 1924TIP3    H229968   4.968   0.722   7.002 -0.1164  1.8929 -0.5254
 1925TIP3   OH229969   0.094   6.816   6.611 -0.1021  0.0194 -0.6973
 1925TIP3    H129970   0.097   6.903   6.651 -0.5723 -0.3009  0.0568
 1925TIP3    H229971   0.185   6.796   6.590 -0.0139  0.7911 -1.1130
 1926TIP3   OH229972   1.018   1.713   8.251  0.1367 -0.5062 -0.0699
 1926TIP3    H129973   1.060   1.722   8.165  0.1806  0.2707  0.0261
 1926TIP3    H229974   1.012   1.619   8.265 -1.0901 -0.6790 -1.5289
 1927TIP3   OH229975   7.050   3.999   8.509 -0.4533  0.3351 -0.1931
 1927TIP3    H129976   7.063   4.053   8.588 -0.4402  0.4287 -0.2586
 1927TIP3    H229977   7.123   3.938   8.510 -1.0074 -0.3333  0.4096
 1928TIP3   OH229978   7.409   2.862   7.925  0.1148 -0.0317 -0.2234
 1928TIP3    H129979   7.444   2.774   7.913  0.0469 -0.3029  1.3753
 1928TIP3    H229980   7.358   2.878   7.845  0.9156 -1.0403 -0.9756
 1929TIP3   OH229981   4.213   6.584   8.071 -0.0250 -0.0414  0.1114
 1929TIP3    H129982   4.218   6.600   8.165 -0.8699  1.4182 -0.0617
 1929TIP3    H229983   4.148   6.515   8.062 -0.7095  0.5236  0.5606
 1930TIP3   OH229984   1.849   3.197   8.593  0.0866  0.4039 -0.3438
 1930TIP3    H129985   1.792   3.164   8.524 -1.0579  0.2455  0.6498
 1930TIP3    H229986   1.791   3.244   8.652  0.7042 -0.9564  1.4551
 1931TIP3   OH229987   0.503   3.478   7.585 -0.2650  0.2194 -0.7723
 1931TIP3    H129988   0.524   3.523   7.503 -0.5642 -0.6169 -1.3268
 1931TIP3    H229989   0.587   3.468   7.629  0.1560 -0.7130 -1.7230
 1932TIP3   OH229990   1.208   1.343   6.806 -0.0227 -0.2750 -0.1376
 1932TIP3    H129991   1.237   1.428   6.773 -1.9651  0.0650 -1.0965
 1932TIP3    H229992   1.140   1.364   6.871 -1.2081 -1.0835 -1.0860
 1933TIP3   OH229993   6.877   0.448   7.335  0.2616  0.0444  0.2710
 1933TIP3    H129994   6.834   0.397   7.266  1.7363 -1.2166  0.2331
 1933TIP3    H229995   6.951   0.489   7.291  0.8952 -0.3256  0.9718
 1934TIP3   OH229996   2.768   6.308   8.010  0.0368  0.5928  0.8687
 1934TIP3    H129997   2.761   6.217   8.038 -1.2095  1.0522  2.1040
 1934TIP3    H229998   2.702   6.355   8.060 -0.3464  1.9525 -0.7973
 1935TIP3   OH229999   5.832   6.863   8.497 -0.0191  0.4122  0.3083
 1935TIP3    H130000   5.840   6.781   8.545  0.7758  0.7074  0.6969
 1935TIP3    H230001   5.738   6.871   8.480 -0.0504 -0.8377 -0.2257
 1936TIP3   OH230002   6.573   5.518   7.317 -0.1757  0.2768  0.3983
 1936TIP3    H130003   6.576   5.557   7.404 -0.5153 -0.8651  0.9301
 1936TIP3    H230004   6.480   5.524   7.292 -0.3554 -0.8046  0.7752
 1937TIP3   OH230005   6.248   2.687   8.866  0.8450 -0.7427  0.6867
 1937TIP3    H130006   6.290   2.692   8.781  1.4845 -1.5539  0.9396
 1937TIP3    H230007   6.160   2.653   8.848 -0.1814  2.0080  0.0297
 1938TIP3   OH230008   0.617   3.320   9.233  0.3075  0.3201  0.2008
 1938TIP3    H130009   0.603   3.230   9.262 -0.4020  0.0522 -0.9053
 1938TIP3    H230010   0.678   3.357   9.297 -2.0031  0.1359  2.7056
 1939TIP3   OH230011   7.102   5.955   7.707  1.0081 -0.0764  0.4368
 1939TIP3    H130012   7.114   5.944   7.801  1.3263 -0.2989  0.3728
 1939TIP3    H230013   7.098   5.866   7.672  0.7430  0.0031  0.2561
 1940TIP3   OH230014   1.119   1.983   9.321 -0.0725  0.4712 -0.3097
 1940TIP3    H130015   1.096   2.051   9.259 -2.3509  0.2504  0.2088
 1940TIP3    H230016   1.109   1.901   9.272 -0.5411  0.3638 -0.0399
 1941TIP3   OH230017   1.445   3.177   8.347 -0.5507 -0.3972 -0.4445
 1941TIP3    H130018   1.361   3.221   8.360 -1.4228 -2.3343  0.8927
 1941TIP3    H230019   1.425   3.105   8.286  0.4835 -0.0075 -1.2804
 1942TIP3   OH230020   5.086   3.512   9.275 -0.2263 -0.1993  0.6353
 1942TIP3    H130021   5.169   3.467   9.256  0.1122  0.5437  0.3156
 1942TIP3    H230022   5.102   3.603   9.249 -1.8739 -0.4727 -1.6144
 1943TIP3   OH230023   0.613   7.379   7.570 -0.2257 -0.1968  0.3792
 1943TIP3    H130024   0.695   7.427   7.582 -1.7717  2.6522  0.3626
 1943TIP3    H230025   0.630   7.322   7.495  2.7809 -2.4400  2.4787
 1944TIP3   OH230026   0.957   1.618   7.997  0.3042  0.3839  0.2519
 1944TIP3    H130027   0.930   1.528   7.980 -1.5841  1.0772 -0.7274
 1944TIP3    H230028   0.896   1.672   7.946  1.3666  2.2237  0.8123
 1945TIP3   OH230029   0.331   6.352   8.005 -0.5840 -0.1038 -0.1049
 1945TIP3    H130030   0.400   6.378   7.944  0.7654 -1.7922  0.6299
 1945TIP3    H230031   0.362   6.381   8.091 -1.0832 -0.3602  0.1658
 1946TIP3   OH230032   6.843   1.482   9.197  0.1247  0.2548  0.1255
 1946TIP3    H130033   6.761   1.513   9.234 -0.1612 -0.6431  0.2573
 1946TIP3    H230034   6.887   1.562   9.166 -0.9746  0.6967 -0.3417
 1947TIP3   OH230035   2.573   4.248   9.168 -0.5935  0.2862  0.5241
 1947TIP3    H130036   2.568   4.183   9.098 -0.5843  0.9734 -0.1299
 1947TIP3    H230037   2.609   4.326   9.126 -0.4751  0.6750  1.3260
 1948TIP3   OH230038   6.193   2.924   8.999 -0.2321  0.1162  0.0803
 1948TIP3    H130039   6.228   2.855   8.944  0.9401 -0.5127  1.5723
 1948TIP3    H230040   6.244   3.002   8.976  0.2562 -0.1460  0.2631
 1949TIP3   OH230041   3.794   0.094   7.846 -0.2477  0.4127  0.1927
 1949TIP3    H130042   3.747   0.171   7.879  0.1268  1.1970 -1.0355
 1949TIP3    H230043   3.854   0.129   7.781  0.0689 -0.9134 -0.2530
 1950TIP3   OH230044   7.563   3.744   7.599 -0.1230 -0.3716 -0.0879
 1950TIP3    H130045   7.472   3.752   7.628 -0.3898 -2.1429 -0.3330
 1950TIP3    H230046   7.561   3.759   7.505  0.0217  0.6830  0.0681
 1951TIP3   OH230047   2.242   3.487   9.108 -0.4040  0.0500  0.4041
 1951TIP3    H130048   2.255   3.568   9.156 -1.0093  0.1580  0.3965
 1951TIP3    H230049   2.276   3.419   9.166  2.4745  0.4678 -0.5997
 1952TIP3   OH230050   1.613   2.304   8.595 -0.3138  0.2169 -0.3943
 1952TIP3    H130051   1.591   2.395   8.574 -0.0753  0.2863 -0.3484
 1952TIP3    H230052   1.601   2.257   8.513 -0.4297  0.2928 -0.4201
 1953TIP3   OH230053   7.542   7.488   8.713 -0.5163 -0.5187 -0.1320
 1953TIP3    H130054   7.586   7.488   8.798 -1.5966  3.2475  0.6181
 1953TIP3    H230055   7.449   7.479   8.734 -0.6492 -2.1887 -1.2154
 1954TIP3   OH230056   1.814   1.887   8.379  0.0869 -0.1375  0.1615
 1954TIP3    H130057   1.859   1.817   8.333  0.1408  1.0842 -1.7298
 1954TIP3    H230058   1.882   1.932   8.429 -0.0858 -1.8974  2.1317
 1955TIP3   OH230059   2.399   5.766   7.048  0.3646  0.0960  0.2382
 1955TIP3    H130060   2.378   5.854   7.016 -0.8071 -1.0023 -2.2845
 1955TIP3    H230061   2.314   5.725   7.063  0.8274 -1.3329 -0.8521
 1956TIP3   OH230062   4.925   1.193   7.751 -0.8639 -0.2134 -0.1227
 1956TIP3    H130063   4.934   1.264   7.815 -0.7471  0.4554 -0.8481
 1956TIP3    H230064   5.010   1.149   7.752 -0.6766  0.1361 -0.1934
 1957TIP3   OH230065   6.247   0.290   8.929 -0.2082  0.4631  0.1375
 1957TIP3    H130066   6.207   0.309   8.844  0.3984  1.1861  0.0046
 1957TIP3    H230067   6.340   0.311   8.917 -0.3797  2.1538  1.4599
 1958TIP3   OH230068   4.747   6.305   7.806 -0.0846 -0.4743 -0.3083
 1958TIP3    H130069   4.686   6.278   7.874  0.3080  0.5996  0.5077
 1958TIP3    H230070   4.828   6.324   7.853  0.9781 -2.0573 -1.3814
 1959TIP3   OH230071   1.872   2.113   9.560 -0.1858  0.3217  0.0172
 1959TIP3    H130072   1.857   2.119   9.465  1.4683  0.3145 -0.2784
 1959TIP3    H230073   1.868   2.204   9.590  2.2982  0.7273 -0.6254
 1960TIP3   OH230074   3.522   3.004   9.418  0.0673  0.3651  0.4112
 1960TIP3    H130075   3.440   2.968   9.451  0.7261 -1.0989  0.4905
 1960TIP3    H230076   3.499   3.040   9.332 -0.6438 -0.0590  0.4176
 1961TIP3   OH230077   5.080   2.549   7.293  0.5357 -0.0050 -0.5007
 1961TIP3    H130078   5.111   2.480   7.233 -1.1451 -1.4229  0.1670
 1961TIP3    H230079   4.986   2.556   7.275  0.0770 -0.1323  1.6003
 1962TIP3   OH230080   4.686   0.042   9.286  0.3346 -0.6675  0.1787
 1962TIP3    H130081   4.664  -0.000   9.203 -0.4285 -1.9992  1.0291
 1962TIP3    H230082   4.611   0.098   9.305  0.3376 -0.6621  0.1751
 1963TIP3   OH230083   6.924   6.964   8.072  0.1034  0.1902 -0.4729
 1963TIP3    H130084   6.977   7.034   8.034 -0.8890  1.6553  0.7364
 1963TIP3    H230085   6.843   6.964   8.022 -0.5090  0.9604  0.4880
 1964TIP3   OH230086   7.676   1.020   8.683 -0.6644 -0.6243  0.1248
 1964TIP3    H130087   7.679   0.982   8.771  1.8160  0.5077  0.6106
 1964TIP3    H230088   7.690   1.113   8.697 -1.3405 -0.2549 -1.4363
 1965TIP3   OH230089   2.485   0.978   8.256  0.2651  0.4281 -0.0736
 1965TIP3    H130090   2.562   0.954   8.307  0.0213  0.4612  0.3129
 1965TIP3    H230091   2.514   1.049   8.199  1.0155 -0.7810 -1.2589
 1966TIP3   OH230092   3.625   1.697   7.755 -0.6407 -0.0710  0.4238
 1966TIP3    H130093   3.691   1.765   7.765 -0.2250 -0.4625  0.3692
 1966TIP3    H230094   3.668   1.628   7.705 -1.7373  0.5670 -1.5333
 1967TIP3   OH230095   1.027   3.591   8.300 -0.2665 -0.0906  0.1936
 1967TIP3    H130096   1.079   3.598   8.220 -0.7192 -1.0811 -0.2080
 1967TIP3    H230097   0.999   3.681   8.318 -0.1394  0.1533 -0.7461
 1968TIP3   OH230098   0.941   5.538   9.190  0.3881  0.8382 -0.0249
 1968TIP3    H130099   0.950   5.631   9.213  0.9279  0.3906  1.8096
 1968TIP3    H230100   0.996   5.493   9.254  0.7263 -0.7118 -1.3448
 1969TIP3   OH230101   7.524   0.721   7.711 -0.0915  0.1996  0.7739
 1969TIP3    H130102   7.479   0.645   7.750 -0.4714  0.2584  0.4517
 1969TIP3    H230103   7.614   0.715   7.744  0.0980 -0.8468  0.1248
 1970TIP3   OH230104   3.923   4.552   9.268  0.5935  0.0546 -0.1101
 1970TIP3    H130105   3.873   4.560   9.187 -0.6049 -1.3464  0.4482
 1970TIP3    H230106   3.994   4.492   9.247  0.4780 -0.0458 -0.2177
 1971TIP3   OH230107   0.416   7.339   7.238 -0.4637 -0.3189 -0.8730
 1971TIP3    H130108   0.502   7.307   7.265 -0.3854 -0.1447 -0.9168
 1971TIP3    H230109   0.418   7.335   7.143  0.2219  1.5537 -0.9757
 1972TIP3   OH230110   6.535   3.240   7.744  0.2627 -0.4242  0.0051
 1972TIP3    H130111   6.548   3.197   7.828 -1.5880 -2.8257 -0.8278
 1972TIP3    H230112   6.549   3.172   7.679 -1.6022  0.4798 -1.4599
 1973TIP3   OH230113   3.548   5.814   6.645 -0.1429  0.1263  0.2819
 1973TIP3    H130114   3.574   5.884   6.705 -2.1544  1.5516 -0.4235
 1973TIP3    H230115   3.507   5.859   6.572  0.8078 -1.6713 -1.4627
 1974TIP3   OH230116   6.632   3.129   7.998  0.1085 -0.0806  0.2354
 1974TIP3    H130117   6.568   3.165   8.059  1.4431 -0.2877  1.7939
 1974TIP3    H230118   6.717   3.158   8.031  0.9969 -1.8544 -0.3622
 1975TIP3   OH230119   2.728   2.987   6.452  0.7924  0.2412  0.1866
 1975TIP3    H130120   2.639   3.011   6.429  1.2913  0.0886 -2.1298
 1975TIP3    H230121   2.765   3.067   6.490  0.1061  0.7679 -0.2290
 1976TIP3   OH230122   6.498   3.049   8.393 -0.5952  0.1413  0.5063
 1976TIP3    H130123   6.455   3.093   8.319 -0.6627  0.7594  0.9056
 1976TIP3    H230124   6.544   2.975   8.353  1.0218  1.5849 -0.4623
 1977TIP3   OH230125   3.590   0.382   9.257  0.3480  0.8195 -0.5042
 1977TIP3    H130126   3.536   0.308   9.286  0.2759  1.1624  0.2731
 1977TIP3    H230127   3.528   0.452   9.239  0.5270  1.2817  0.5952
 1978TIP3   OH230128   7.503   0.354   7.502  0.0402 -0.3884  0.4157
 1978TIP3    H130129   7.581   0.349   7.557 -0.7432 -1.2621  1.5092
 1978TIP3    H230130   7.499   0.445   7.473  1.5433 -0.3661  0.1920
 1979TIP3   OH230131   4.102   1.360   8.598  0.1329  0.7251 -0.2522
 1979TIP3    H130132   4.053   1.354   8.680  1.8786 -0.8128  0.7647
 1979TIP3    H230133   4.182   1.408   8.621  0.0110  1.5357 -1.4209
 1980TIP3   OH230134   3.052   3.009   8.196 -0.0970  0.1936  0.4433
 1980TIP3    H130135   3.038   3.030   8.289  0.7889 -0.1435  0.6691
 1980TIP3    H230136   3.039   2.914   8.191 -2.7287  0.5218 -0.3089
 1981TIP3   OH230137   2.565   5.361   7.946 -0.1603  0.2844  0.0163
 1981TIP3    H130138   2.533   5.378   7.858 -0.4689  0.6435  0.1906
 1981TIP3    H230139   2.487   5.363   8.001 -0.0453 -0.5443  0.2146
 1982TIP3   OH230140   2.373   5.502   7.735 -0.1405 -0.7924  0.2150
 1982TIP3    H130141   2.374   5.552   7.653 -0.8412 -1.8081 -0.4306
 1982TIP3    H230142   2.368   5.411   7.708 -0.6144 -1.1377  1.3994
 1983TIP3   OH230143   3.309   5.540   8.915 -0.1543  0.0452  0.1290
 1983TIP3    H130144   3.215   5.528   8.929 -0.1641 -0.0037  0.0284
 1983TIP3    H230145   3.315   5.617   8.858 -0.2491 -1.0281 -1.4163
 1984TIP3   OH230146   4.032   6.837   8.022 -0.2632  0.0555 -0.4658
 1984TIP3    H130147   3.995   6.848   7.934 -0.0522  0.1604 -0.5426
 1984TIP3    H230148   4.058   6.745   8.026  2.0136  0.5833 -1.4249
 1985TIP3   OH230149   1.537   6.759   7.315 -0.3454  0.1903 -0.0786
 1985TIP3    H130150   1.481   6.773   7.391 -0.6471 -2.7328  0.3728
 1985TIP3    H230151   1.617   6.720   7.351 -0.8058 -1.9805 -1.2489
 1986TIP3   OH230152   4.306   7.245   7.285  0.4423 -1.0141 -0.6946
 1986TIP3    H130153   4.269   7.287   7.208  1.6585 -1.9670 -1.8289
 1986TIP3    H230154   4.268   7.293   7.359 -1.3409 -0.5757 -1.8356
 1987TIP3   OH230155   4.976   1.855   9.363 -0.0559  0.1477  0.4187
 1987TIP3    H130156   4.899   1.886   9.316  0.9440 -1.9700 -2.9620
 1987TIP3    H230157   4.941   1.790   9.425 -1.2721  1.9554  1.7179
 1988TIP3   OH230158   5.945   4.614   9.227 -0.1461 -0.2598  0.4039
 1988TIP3    H130159   5.985   4.594   9.311  0.2554  0.2745  0.3496
 1988TIP3    H230160   5.973   4.543   9.169 -2.2501 -1.8782  1.2368
 1989TIP3   OH230161   3.714   7.341   7.487  0.2592 -0.4754  0.4009
 1989TIP3    H130162   3.650   7.413   7.484 -1.5166 -2.0203 -0.9999
 1989TIP3    H230163   3.792   7.380   7.528 -1.2513  1.7277  1.3745
 1990TIP3   OH230164   1.996   2.709   7.396  0.2476  0.3094 -0.3686
 1990TIP3    H130165   1.925   2.677   7.451  2.7323 -0.5480  2.6062
 1990TIP3    H230166   2.000   2.803   7.415 -0.1135  0.3874 -0.6487
 1991TIP3   OH230167   5.843   6.363   7.415  0.6347  0.3140 -0.6498
 1991TIP3    H130168   5.934   6.380   7.390  0.8224  0.0283 -0.1651
 1991TIP3    H230169   5.826   6.275   7.382  1.9392 -1.4993  2.9893
 1992TIP3   OH230170   1.827   2.243   7.342  0.3337 -0.0800  0.1754
 1992TIP3    H130171   1.782   2.274   7.421  0.2722  0.8783 -0.2213
 1992TIP3    H230172   1.890   2.312   7.321  0.1912 -0.2045 -0.7384
 1993TIP3   OH230173   2.363   1.829   8.820  0.6054 -0.0765 -0.5715
 1993TIP3    H130174   2.308   1.752   8.832 -1.0230  1.1665  0.4164
 1993TIP3    H230175   2.452   1.798   8.837 -0.1009 -1.5484  0.7017
 1994TIP3   OH230176   5.703   3.279   8.143  0.0370  0.1038 -0.5095
 1994TIP3    H130177   5.695   3.339   8.217  1.5376  0.9539 -0.9941
 1994TIP3    H230178   5.797   3.272   8.128  0.0528 -3.3716  0.3048
 1995TIP3   OH230179   4.683   2.576   8.071  0.6927 -0.3076  0.1385
 1995TIP3    H130180   4.714   2.564   8.161  0.3465  1.9728  0.6151
 1995TIP3    H230181   4.763   2.582   8.019  0.9034 -2.7854  0.0373
 1996TIP3   OH230182   0.509   5.558   6.668 -0.5944  0.3080  0.2881
 1996TIP3    H130183   0.432   5.575   6.613 -0.6867 -2.2260 -0.4859
 1996TIP3    H230184   0.517   5.462   6.668  1.9661  0.4686  1.1892
 1997TIP3   OH230185   4.968   3.454   8.403 -0.2588 -0.5168  0.2112
 1997TIP3    H130186   4.918   3.530   8.376 -1.1525 -1.2781 -0.3071
 1997TIP3    H230187   4.922   3.420   8.480  0.5737 -0.0983  0.9104
 1998TIP3   OH230188   7.650   1.523   9.130 -0.3553  0.1074 -0.1601
 1998TIP3    H130189   7.667   1.590   9.064 -2.1574  0.3627 -0.3957
 1998TIP3    H230190   7.671   1.441   9.087 -0.7076  0.3315 -0.7614
 1999TIP3   OH230191   6.868   5.998   9.098  0.1977 -0.1872 -0.0465
 1999TIP3    H130192   6.806   6.015   9.027 -0.4771  0.2632  0.6246
 1999TIP3    H230193   6.907   5.914   9.076 -0.3366 -0.2733 -0.7182
 2000TIP3   OH230194   4.192   2.779   8.893  0.7583  0.2484  0.0441
 2000TIP3    H130195   4.222   2.763   8.983  0.3722  1.8038  0.4752
 2000TIP3    H230196   4.257   2.839   8.856 -0.9112  2.4700  0.4997
 2001TIP3   OH230197   3.957   5.168   8.402 -0.1468  0.4330 -0.5639
 2001TIP3    H130198   4.046   5.132   8.396  0.4704  1.7976  0.0197
 2001TIP3    H230199   3.953   5.234   8.334 -1.4366 -0.9635 -1.9369
 2002TIP3   OH230200   3.863   7.675   8.733 -0.1365  0.0438 -0.0840
 2002TIP3    H130201   3.882   7.744   8.796  0.6775  0.8890 -1.2107
 2002TIP3    H230202   3.948   7.633   8.717 -0.2141  0.2394 -1.0575
 2003TIP3   OH230203   2.805   5.768   9.070 -0.2835 -0.0965  0.0062
 2003TIP3    H130204   2.811   5.823   8.991 -1.3889  1.7030  1.1004
 2003TIP3    H230205   2.711   5.761   9.086 -0.0708 -0.6200  1.0504
 2004TIP3   OH230206   6.486   6.733   7.121 -0.2502 -0.2114  0.1211
 2004TIP3    H130207   6.391   6.737   7.133 -0.2697 -1.4812  0.5238
 2004TIP3    H230208   6.507   6.814   7.076 -1.6908 -0.4775 -1.1228
 2005TIP3   OH230209   1.928   5.718   9.354 -0.4376  0.0049  0.0175
 2005TIP3    H130210   1.907   5.657   9.424 -2.7258 -0.0982 -0.6812
 2005TIP3    H230211   1.905   5.804   9.389 -0.1525  0.1295 -0.0933
 2006TIP3   OH230212   6.848   0.649   9.197 -0.2834  0.3913 -0.4475
 2006TIP3    H130213   6.812   0.733   9.225 -2.5991 -0.3914 -0.8717
 2006TIP3    H230214   6.878   0.665   9.107 -2.3441  0.3900 -1.1901
 2007TIP3   OH230215   3.594   4.500   9.270 -0.2699 -0.0277  0.3436
 2007TIP3    H130216   3.630   4.515   9.357  0.9762  0.0631 -0.1700
 2007TIP3    H230217   3.654   4.545   9.211 -0.1925 -1.4388 -0.7004
 2008TIP3   OH230218   6.984   5.818   6.899  0.3522 -0.7673  0.1507
 2008TIP3    H130219   7.010   5.873   6.972 -0.0184 -1.7917  1.0855
 2008TIP3    H230220   6.890   5.803   6.912 -0.2354  0.7874 -1.7557
 2009TIP3   OH230221   7.142   0.149   7.482 -0.2164 -0.3142 -0.0676
 2009TIP3    H130222   7.083   0.073   7.487  1.3462 -1.5609  0.1016
 2009TIP3    H230223   7.131   0.192   7.567 -1.3527 -0.1438 -0.2824
 2010TIP3   OH230224   0.316   1.707   8.757 -0.2976 -0.6025  0.0141
 2010TIP3    H130225   0.366   1.789   8.768  1.7439 -1.2773 -2.9577
 2010TIP3    H230226   0.306   1.698   8.662 -1.4398 -3.2645  0.3148
 2011TIP3   OH230227   5.467   5.376   6.761 -0.0488 -0.4831  0.4517
 2011TIP3    H130228   5.404   5.313   6.724  1.3485 -1.6849  0.0161
 2011TIP3    H230229   5.474   5.351   6.853 -0.0185 -0.5035  0.4437
 2012TIP3   OH230230   1.755   5.061   7.736  0.0861  0.0734  0.0522
 2012TIP3    H130231   1.714   5.145   7.757  1.4107  1.5137 -2.6047
 2012TIP3    H230232   1.844   5.069   7.770  0.5233  0.1775 -1.0994
 2013TIP3   OH230233   4.989   1.416   7.873  0.3490 -0.0934  0.1588
 2013TIP3    H130234   5.014   1.483   7.809 -0.5131 -1.2253 -1.4358
 2013TIP3    H230235   4.917   1.456   7.923 -2.6202 -0.9007 -3.0921
 2014TIP3   OH230236   4.453   3.987   8.103 -0.2360 -0.3178 -0.2740
 2014TIP3    H130237   4.398   4.060   8.075  1.1841  0.7879 -0.3330
 2014TIP3    H230238   4.542   4.015   8.081  0.4923 -1.4259  1.1161
 2015TIP3   OH230239   7.337   1.296   8.723 -0.1520  0.4457 -0.4266
 2015TIP3    H130240   7.245   1.319   8.709 -0.1051  1.6454  0.9450
 2015TIP3    H230241   7.386   1.362   8.673 -0.0239 -0.0786 -1.0046
 2016TIP3   OH230242   6.246   3.903   7.670  0.6291 -0.0286  0.5408
 2016TIP3    H130243   6.248   3.808   7.682  1.8129 -0.2152 -0.8171
 2016TIP3    H230244   6.328   3.934   7.708  0.5883  0.3655  0.3141
 2017TIP3   OH230245   5.729   2.632   8.580 -0.6029  0.1941  0.3670
 2017TIP3    H130246   5.655   2.652   8.524 -0.6612  0.2425  0.4600
 2017TIP3    H230247   5.805   2.666   8.532 -0.7223  0.8296  0.6121
 2018TIP3   OH230248   2.033   3.246   7.658 -0.2345 -0.5552 -0.0675
 2018TIP3    H130249   2.021   3.300   7.736 -1.5749 -1.4937  0.4071
 2018TIP3    H230250   2.043   3.157   7.692 -1.7007 -1.1009 -0.9720
 2019TIP3   OH230251   3.153   2.513   9.259 -0.2283 -0.6242 -0.2372
 2019TIP3    H130252   3.204   2.433   9.248  0.3876 -0.0423 -1.8843
 2019TIP3    H230253   3.102   2.498   9.338  0.4361 -2.3372 -0.0939
 2020TIP3   OH230254   7.572   5.291   8.095  0.2029  0.1524 -0.6633
 2020TIP3    H130255   7.588   5.363   8.035  0.5304 -0.5156 -1.4058
 2020TIP3    H230256   7.502   5.321   8.153  0.3172  1.0402 -0.9840
 2021TIP3   OH230257   4.666   3.347   8.444 -0.4953 -0.2929  0.2739
 2021TIP3    H130258   4.587   3.373   8.397 -0.5546 -0.3273  0.3530
 2021TIP3    H230259   4.675   3.253   8.424 -0.5528 -0.3207  0.3760
 2022TIP3   OH230260   0.584   3.992   7.041 -0.9227 -0.3642  0.1404
 2022TIP3    H130261   0.568   4.037   6.958  0.4984  0.3612  0.2320
 2022TIP3    H230262   0.560   4.055   7.109  2.2753  0.8946  0.2875
 2023TIP3   OH230263   2.832   7.227   8.355 -0.8926  0.0368  0.0867
 2023TIP3    H130264   2.798   7.157   8.412  1.9264 -0.9805  0.7026
 2023TIP3    H230265   2.836   7.304   8.411 -1.1789 -0.0951  0.2918
 2024TIP3   OH230266   2.684   4.662   6.973  0.1046 -0.0689 -0.0093
 2024TIP3    H130267   2.747   4.685   7.042  0.0910  0.5387 -0.1941
 2024TIP3    H230268   2.654   4.574   6.997  2.0603 -0.9914 -0.6764
 2025TIP3   OH230269   5.092   4.644   8.311  0.7982  0.1943  0.4779
 2025TIP3    H130270   5.124   4.580   8.375  1.9642  0.3565  0.0776
 2025TIP3    H230271   5.029   4.595   8.258  1.4238 -0.5285  0.3959
 2026TIP3   OH230272   6.216   0.479   8.170 -0.0363  0.4199  0.1528
 2026TIP3    H130273   6.134   0.515   8.137  0.3346  0.5610 -0.6295
 2026TIP3    H230274   6.238   0.534   8.246 -0.2263  0.9140 -0.1467
 2027TIP3   OH230275   2.497   1.424   8.843 -0.2304  0.0038  0.0736
 2027TIP3    H130276   2.500   1.410   8.748  2.4801  2.9410 -0.4359
 2027TIP3    H230277   2.537   1.346   8.881 -2.8957 -2.0146 -0.9287
 2028TIP3   OH230278   0.055   5.860   7.829 -0.9781 -0.4405 -0.0741
 2028TIP3    H130279   0.042   5.768   7.811 -1.3532 -0.5123  0.5429
 2028TIP3    H230280   0.113   5.890   7.759 -0.7919 -1.1552 -0.2335
 2029TIP3   OH230281   0.818   5.026   8.431  0.2110  0.4404 -0.9318
 2029TIP3    H130282   0.853   5.113   8.411  0.3023  0.6509  0.1307
 2029TIP3    H230283   0.866   4.967   8.373 -0.9067  1.2440 -2.7785
 2030TIP3   OH230284   2.312   2.256   7.937  0.1347 -0.3035  0.1411
 2030TIP3    H130285   2.232   2.278   7.888 -1.0566 -3.5812  0.3430
 2030TIP3    H230286   2.383   2.273   7.876 -1.0471 -0.9538 -1.4960
 2031TIP3   OH230287   0.103   4.851   8.581 -0.5417  0.0941 -0.1662
 2031TIP3    H130288   0.160   4.809   8.518 -2.2236  1.2910 -2.6418
 2031TIP3    H230289   0.152   4.928   8.611 -0.3169  0.3887 -1.2635
 2032TIP3   OH230290   2.448   7.272   9.085  0.1422  0.1671  0.0401
 2032TIP3    H130291   2.364   7.232   9.107 -1.0911  1.8691 -1.3431
 2032TIP3    H230292   2.496   7.272   9.168  0.1694 -3.7909  0.2334
 2033TIP3   OH230293   1.038   4.864   8.884  0.2166  0.2442  0.0087
 2033TIP3    H130294   1.116   4.808   8.888  1.3358  1.7630  0.3110
 2033TIP3    H230295   1.005   4.866   8.974  0.6518  0.6959  0.1641
 2034TIP3   OH230296   6.606   0.715   8.389 -0.2387  0.6868  0.3645
 2034TIP3    H130297   6.529   0.736   8.335 -0.8877  2.1404  1.7585
 2034TIP3    H230298   6.659   0.795   8.386  1.1079 -0.1946 -0.3289
 2035TIP3   OH230299   6.811   1.221   8.504  0.3354  0.2595  0.8953
 2035TIP3    H130300   6.768   1.203   8.587 -2.4789 -1.4204 -0.7413
 2035TIP3    H230301   6.778   1.307   8.478  1.0008  0.6625  1.3638
 2036TIP3   OH230302   3.822   5.875   6.903  0.2136  0.4132  0.1333
 2036TIP3    H130303   3.889   5.888   6.835 -0.3532 -0.9137 -0.7145
 2036TIP3    H230304   3.752   5.936   6.878 -0.0858 -0.2191 -0.6321
 2037TIP3   OH230305   7.359   0.457   7.205 -0.5935  0.0857 -0.0883
 2037TIP3    H130306   7.314   0.521   7.260  1.1477  0.3938  1.0442
 2037TIP3    H230307   7.290   0.396   7.177 -1.6033  0.1233  2.1460
 2038TIP3   OH230308   3.494   2.074   9.005  0.1636  0.0189  0.1561
 2038TIP3    H130309   3.550   2.015   8.956 -1.9662 -1.5877 -0.5179
 2038TIP3    H230310   3.490   2.036   9.093  1.7119  1.2961  0.8173
 2039TIP3   OH230311   5.227   1.568   9.595  0.3121 -0.0292 -0.1961
 2039TIP3    H130312   5.152   1.534   9.545  0.2192  1.8085 -1.3947
 2039TIP3    H230313   5.190   1.638   9.649  0.8295 -0.4982  0.8020
 2040TIP3   OH230314   5.349   0.439   7.622  0.3882 -0.0390  0.1241
 2040TIP3    H130315   5.286   0.510   7.610  0.4012 -0.2614 -1.6560
 2040TIP3    H230316   5.298   0.367   7.659 -0.5873 -0.3686 -1.7249
 2041TIP3   OH230317   3.634   6.160   6.603  0.2718 -0.4330  0.0880
 2041TIP3    H130318   3.644   6.244   6.559  1.7954 -0.8233 -0.3771
 2041TIP3    H230319   3.602   6.101   6.535 -2.2590  0.0338  0.7565
 2042TIP3   OH230320   3.723   0.636   6.820 -0.3897  0.4487  0.3328
 2042TIP3    H130321   3.749   0.562   6.765 -1.4434 -0.1583  0.6178
 2042TIP3    H230322   3.805   0.679   6.843  0.0534  1.0969 -2.1964
 2043TIP3   OH230323   4.932   7.202   8.432 -0.0961 -0.2249  0.0541
 2043TIP3    H130324   4.885   7.147   8.369  1.2294 -2.0260  0.5478
 2043TIP3    H230325   4.923   7.291   8.398 -1.0969 -0.9125 -1.5905
 2044TIP3   OH230326   1.056   5.161   8.294  0.1665 -0.6057  0.2397
 2044TIP3    H130327   1.096   5.097   8.353 -0.2353 -1.5087 -0.4436
 2044TIP3    H230328   1.103   5.242   8.311  0.8112 -1.1248  0.9984
 2045TIP3   OH230329   6.547   1.665   8.272 -0.5798  0.0085  0.0433
 2045TIP3    H130330   6.533   1.756   8.246 -0.4711  0.0880  0.2628
 2045TIP3    H230331   6.492   1.615   8.211  0.0752  0.1515 -0.6861
 2046TIP3   OH230332   0.009   1.769   8.507  0.2164 -0.1052 -0.1474
 2046TIP3    H130333  -0.012   1.714   8.431  1.1494 -2.1089  0.9741
 2046TIP3    H230334   0.105   1.763   8.515  0.0983 -0.2250  1.4018
 2047TIP3   OH230335   7.560   6.766   9.063  0.1305 -0.0674  0.2133
 2047TIP3    H130336   7.610   6.686   9.084  0.6187 -0.4851 -2.2654
 2047TIP3    H230337   7.480   6.734   9.021  0.6727  0.7127 -1.5061
 2048TIP3   OH230338   2.826   1.722   8.306  0.0988 -0.4061 -0.3252
 2048TIP3    H130339   2.811   1.775   8.384 -0.1780 -1.1597  0.1466
 2048TIP3    H230340   2.919   1.736   8.285  0.1329 -0.0691  0.0394
 2049TIP3   OH230341   6.813   7.209   9.023  0.5125  0.0863 -0.0272
 2049TIP3    H130342   6.860   7.156   8.959 -1.7697 -2.2615  0.0712
 2049TIP3    H230343   6.799   7.152   9.098 -1.2496  1.0764  0.4842
 2050TIP3   OH230344   5.509   2.397   7.436 -0.0535  0.1713  0.2030
 2050TIP3    H130345   5.508   2.326   7.372  1.6529  0.5475 -0.2915
 2050TIP3    H230346   5.424   2.439   7.427  0.0063 -0.0220 -1.5658
 2051TIP3   OH230347   0.331   1.158   8.935 -0.2125 -0.0545  0.1779
 2051TIP3    H130348   0.307   1.213   9.010  0.0063  0.7303 -0.3176
 2051TIP3    H230349   0.266   1.087   8.936 -0.4275  0.1410  0.8929
 2052TIP3   OH230350   3.706   6.528   7.250  0.0963  0.3028  0.3228
 2052TIP3    H130351   3.779   6.497   7.196  2.0285  2.2908  1.6558
 2052TIP3    H230352   3.715   6.479   7.332 -1.3044 -0.8541 -0.1682
 2053TIP3   OH230353   1.283   4.333   8.954 -0.5074  0.3719  0.4118
 2053TIP3    H130354   1.219   4.314   8.884 -0.0866 -0.6145  0.2692
 2053TIP3    H230355   1.266   4.266   9.020  0.5559 -0.0828  0.2464
 2054TIP3   OH230356   6.963   3.077   9.105 -0.5363  0.4345 -0.4005
 2054TIP3    H130357   7.030   3.099   9.040  2.1758 -1.5287  1.4848
 2054TIP3    H230358   6.945   3.159   9.150  0.2085  1.1331 -1.3315
 2055TIP3   OH230359   0.281   1.498   9.047 -0.9204 -0.7359  0.0348
 2055TIP3    H130360   0.270   1.586   9.009  0.9082 -0.7018 -0.4862
 2055TIP3    H230361   0.339   1.453   8.986  0.3275 -1.4102  1.6636
 2056TIP3   OH230362   3.702   5.286   9.211 -0.1953 -0.1601  0.1533
 2056TIP3    H130363   3.725   5.211   9.266 -0.4586 -1.1858 -1.1073
 2056TIP3    H230364   3.607   5.282   9.203 -0.1141 -0.3381 -0.8149
 2057TIP3   OH230365   4.675   0.750   7.202  0.1674  0.5833 -0.3140
 2057TIP3    H130366   4.729   0.791   7.269 -0.9393 -0.1119  1.0683
 2057TIP3    H230367   4.586   0.778   7.223 -0.1614  0.6458 -1.7323
 2058TIP3   OH230368   6.438   5.793   6.603 -0.6066  0.0022 -0.1388
 2058TIP3    H130369   6.479   5.717   6.643  0.5896  0.6128 -0.1528
 2058TIP3    H230370   6.510   5.854   6.589 -1.5582  1.1906 -0.0113
 2059TIP3   OH230371   4.089   2.605   8.275  0.3609  0.3134 -0.1328
 2059TIP3    H130372   4.076   2.560   8.359  3.0002 -1.4790 -0.5497
 2059TIP3    H230373   4.118   2.693   8.299 -0.9999  0.5483  0.7686
 2060TIP3   OH230374   2.825   1.115   8.565 -0.5663  0.3613  0.3327
 2060TIP3    H130375   2.796   1.194   8.610  1.2974  0.1096  2.0950
 2060TIP3    H230376   2.920   1.120   8.565 -0.4332 -0.8385 -1.5193
 2061TIP3   OH230377   1.637   3.923   7.592  0.1623 -0.4917  0.2067
 2061TIP3    H130378   1.556   3.965   7.622 -0.9679 -1.1861 -1.6769
 2061TIP3    H230379   1.614   3.830   7.589  1.2156 -0.7550  0.1444
 2062TIP3   OH230380   7.250   4.251   9.131 -0.1121 -0.1890  0.5184
 2062TIP3    H130381   7.241   4.326   9.189 -0.2240  1.2674 -1.3068
 2062TIP3    H230382   7.164   4.242   9.088 -0.5366 -2.2130  1.6318
 2063TIP3   OH230383   0.922   7.372   8.006  0.0612 -0.1163 -0.1398
 2063TIP3    H130384   0.873   7.297   8.041 -1.3768  0.8446 -0.0227
 2063TIP3    H230385   0.929   7.354   7.913 -0.3943 -0.3510 -0.1338
 2064TIP3   OH230386   2.881   4.210   6.845  0.0768 -0.5136  0.1950
 2064TIP3    H130387   2.854   4.181   6.757 -1.2816  1.0986  0.0359
 2064TIP3    H230388   2.854   4.138   6.903 -1.5058 -0.4386 -0.4049
 2065TIP3   OH230389   0.967   5.720   7.907  0.2490 -0.5375 -0.7180
 2065TIP3    H130390   0.932   5.697   7.994  1.2582  1.2275  0.2036
 2065TIP3    H230391   1.038   5.658   7.894  1.8785  0.8368  1.0077
 2066TIP3   OH230392   2.545   5.320   7.622 -0.0751 -0.0731  0.5116
 2066TIP3    H130393   2.546   5.230   7.589 -0.3463 -1.1417  3.1581
 2066TIP3    H230394   2.633   5.333   7.658 -0.1175  0.6457  0.3586
 2067TIP3   OH230395   7.021   3.588   8.562  0.0408  0.1579  0.0809
 2067TIP3    H130396   6.991   3.498   8.577 -1.0417  0.2561 -1.3917
 2067TIP3    H230397   6.964   3.642   8.617  1.0456 -0.0620  1.3917
 2068TIP3   OH230398   1.512   0.729   7.994  0.6479 -0.0130 -0.2066
 2068TIP3    H130399   1.486   0.784   7.920  0.3394  0.0836 -0.0277
 2068TIP3    H230400   1.463   0.764   8.068  1.6525  0.4925  0.2428
 2069TIP3   OH230401   2.484   4.303   6.784 -0.2675 -0.2774 -0.6000
 2069TIP3    H130402   2.519   4.214   6.781  0.8335  0.0774  0.5702
 2069TIP3    H230403   2.548   4.356   6.737 -0.1072  0.1249  0.0562
 2070TIP3   OH230404   6.594   4.754   7.755  0.0440 -0.2128 -0.3244
 2070TIP3    H130405   6.551   4.829   7.712  0.5361  1.2043  1.5235
 2070TIP3    H230406   6.681   4.752   7.717 -0.0330  0.0532 -0.5212
 2071TIP3   OH230407   7.469   0.375   6.908 -0.1531 -0.2526  0.5069
 2071TIP3    H130408   7.396   0.328   6.868  0.3910 -0.6535 -0.0401
 2071TIP3    H230409   7.436   0.464   6.922 -0.3124 -0.0370 -1.0163
 2072TIP3   OH230410   0.170   2.142   9.423  0.6377  0.8253 -0.1400
 2072TIP3    H130411   0.152   2.138   9.517  0.1043 -0.5464 -0.2700
 2072TIP3    H230412   0.256   2.101   9.414  2.1823  3.8066  0.0491
 2073TIP3   OH230413   3.840   0.880   7.976 -0.4879  0.3498  0.4184
 2073TIP3    H130414   3.749   0.907   7.959 -0.0461  1.9231  0.3631
 2073TIP3    H230415   3.838   0.785   7.969 -1.9944  0.3930 -0.3034
 2074TIP3   OH230416   3.084   2.138   7.204 -0.2447 -0.1848  0.0650
 2074TIP3    H130417   3.054   2.206   7.143 -0.9989  0.3669  1.0335
 2074TIP3    H230418   3.066   2.173   7.291 -0.2506 -1.4517  0.6007
 2075TIP3   OH230419   0.072   6.178   7.585  0.4382 -0.4590 -0.2100
 2075TIP3    H130420  -0.020   6.183   7.610  0.5133 -1.9161  0.4447
 2075TIP3    H230421   0.114   6.249   7.634 -0.1175 -0.6628  0.5793
 2076TIP3   OH230422   6.017   1.869   6.813 -0.4754  0.0780 -0.1241
 2076TIP3    H130423   5.948   1.910   6.865 -0.2495  0.9669 -0.5082
 2076TIP3    H230424   5.995   1.892   6.722 -0.2497 -0.5232 -0.3377
 2077TIP3   OH230425   4.877   1.373   8.379  0.0652 -0.4570 -0.6336
 2077TIP3    H130426   4.925   1.453   8.355 -1.7602  1.0257  0.3882
 2077TIP3    H230427   4.946   1.307   8.391  2.2506  2.0808  3.0107
 2078TIP3   OH230428   1.255   3.973   9.011 -0.0373 -0.0758 -0.6586
 2078TIP3    H130429   1.310   3.980   9.089  1.5784  0.7274 -1.8119
 2078TIP3    H230430   1.167   3.993   9.042  0.4662 -0.3366  1.0572
 2079TIP3   OH230431   2.435   0.482   7.370 -0.1655  0.4120 -0.3942
 2079TIP3    H130432   2.396   0.563   7.338  0.2423  0.2942 -1.2187
 2079TIP3    H230433   2.382   0.413   7.331  2.0960  0.1594 -3.4495
 2080TIP3   OH230434   5.797   2.577   7.716  0.0989 -0.3182  0.5717
 2080TIP3    H130435   5.840   2.640   7.774 -0.6536 -0.8820  1.7960
 2080TIP3    H230436   5.712   2.560   7.759 -0.7634 -0.2723 -1.0431
 2081TIP3   OH230437   5.384   5.232   9.142 -0.1010  0.2680  0.4781
 2081TIP3    H130438   5.479   5.222   9.129  0.1977  0.8243  2.0127
 2081TIP3    H230439   5.365   5.183   9.221 -1.4132 -1.1495 -0.6505
 2082TIP3   OH230440   6.441   6.324   6.879 -0.5722 -0.2892  0.1371
 2082TIP3    H130441   6.404   6.368   6.956 -0.5060  0.7126 -0.3828
 2082TIP3    H230442   6.461   6.395   6.819  0.3788 -0.9791 -0.3803
 2083TIP3   OH230443   5.884   0.738   8.060 -0.3268  0.2765  0.5880
 2083TIP3    H130444   5.907   0.654   8.102  0.8514 -0.0967 -0.7302
 2083TIP3    H230445   5.810   0.771   8.112 -2.1223 -2.4975  0.0207
 2084TIP3   OH230446   1.385   0.910   7.791  0.0128  0.5427 -0.4009
 2084TIP3    H130447   1.306   0.864   7.821 -0.7161 -0.9919 -4.1096
 2084TIP3    H230448   1.356   1.000   7.776 -1.0537  0.0426 -1.5206
 2085TIP3   OH230449   3.354   3.105   8.047  0.2371 -0.2788  0.7001
 2085TIP3    H130450   3.328   3.023   8.088  2.0731  0.1191  2.8357
 2085TIP3    H230451   3.441   3.089   8.012  0.2344  0.4950  0.3030
 2086TIP3   OH230452   2.540   7.167   9.324 -0.3190  0.3404 -0.0623
 2086TIP3    H130453   2.581   7.092   9.282 -0.7268  0.0621  0.0288
 2086TIP3    H230454   2.600   7.192   9.393 -0.4146 -0.2201  0.2293
 2087TIP3   OH230455   3.578   1.948   7.926 -0.2258 -0.0872 -0.0678
 2087TIP3    H130456   3.642   1.878   7.940  1.1811  1.4255  1.3999
 2087TIP3    H230457   3.628   2.029   7.934 -2.1300  1.1481 -0.0063
 2088TIP3   OH230458   0.288   0.509   8.671 -0.1506 -0.3908 -0.2743
 2088TIP3    H130459   0.342   0.494   8.594 -0.6062  2.1091 -1.1853
 2088TIP3    H230460   0.201   0.478   8.646 -0.7921  2.2091 -1.6493
 2089TIP3   OH230461   0.122   6.573   9.092  0.0052  0.6919  0.4774
 2089TIP3    H130462   0.101   6.569   8.999  2.1034 -0.7692 -0.0199
 2089TIP3    H230463   0.175   6.652   9.101 -1.9201  2.0021  0.9034
 2090TIP3   OH230464   6.166   0.502   7.280 -0.3449  0.3360  0.0490
 2090TIP3    H130465   6.255   0.528   7.258 -0.1894 -1.0528 -1.1169
 2090TIP3    H230466   6.118   0.508   7.198 -1.6121  1.9470  0.8255
 2091TIP3   OH230467   5.323   6.856   7.368  0.0953  0.2790 -0.0820
 2091TIP3    H130468   5.289   6.769   7.390  0.5735 -0.0711 -0.6946
 2091TIP3    H230469   5.287   6.873   7.281  1.8526 -0.3140 -0.9726
 2092TIP3   OH230470   0.861   0.130   9.451 -0.0151  0.0645  0.1829
 2092TIP3    H130471   0.804   0.129   9.528  0.0299  1.9052  0.2933
 2092TIP3    H230472   0.817   0.073   9.388 -1.3660  0.4868  0.6965
 2093TIP3   OH230473   0.884   1.609   6.847  0.8554 -0.4989  0.5753
 2093TIP3    H130474   0.850   1.523   6.870 -0.7253 -0.3143 -0.8810
 2093TIP3    H230475   0.840   1.669   6.907  0.1624 -0.4795  0.0579
 2094TIP3   OH230476   2.388   6.347   8.587  0.7575 -0.1102 -0.3697
 2094TIP3    H130477   2.381   6.263   8.542 -3.2842  0.5205 -1.3079
 2094TIP3    H230478   2.351   6.330   8.674 -0.6523  0.7420 -0.7673
 2095TIP3   OH230479   5.244   1.467   7.595  0.3404 -0.1804 -0.0683
 2095TIP3    H130480   5.291   1.481   7.677  0.2357 -0.2059 -0.0025
 2095TIP3    H230481   5.151   1.470   7.620  0.2179  2.3169 -0.5625
 2096TIP3   OH230482   4.706   4.689   9.198 -0.1976 -0.6472 -0.4375
 2096TIP3    H130483   4.634   4.748   9.218 -0.4627 -1.3333  0.8097
 2096TIP3    H230484   4.668   4.601   9.206  0.9025 -1.0393  0.9350
 2097TIP3   OH230485   5.937   2.362   7.647 -0.3631  0.0596  0.2146
 2097TIP3    H130486   5.906   2.448   7.675 -1.8424 -0.8632  1.5957
 2097TIP3    H230487   5.867   2.326   7.593  1.0326  0.4157 -1.9631
 2098TIP3   OH230488   0.067   5.927   6.733  0.3733  0.1448 -0.6450
 2098TIP3    H130489  -0.015   5.880   6.750  0.2772  0.5642  0.1344
 2098TIP3    H230490   0.127   5.896   6.801 -0.4222  2.8567  1.5248
 2099TIP3   OH230491   3.969   2.849   9.147  0.4449 -0.1896  0.0438
 2099TIP3    H130492   4.000   2.930   9.108  1.0964 -0.3645  0.1802
 2099TIP3    H230493   3.874   2.853   9.140  0.4079  1.0119  0.8804
 2100TIP3   OH230494   4.096   3.617   8.456  0.1875 -0.1943 -0.0888
 2100TIP3    H130495   4.128   3.533   8.425  0.1451  0.4887 -2.1292
 2100TIP3    H230496   4.163   3.680   8.428 -0.3391  0.5932  0.3904
 2101TIP3   OH230497   5.117   3.581   7.096 -0.3869 -0.0345  0.4249
 2101TIP3    H130498   5.071   3.505   7.131 -2.3770  1.0577  0.3050
 2101TIP3    H230499   5.062   3.612   7.024  0.4186  1.4581  0.4044
 2102TIP3   OH230500   6.185   4.421   8.349 -0.2326  0.1476 -0.5661
 2102TIP3    H130501   6.160   4.350   8.409 -2.2139 -0.3307 -1.8482
 2102TIP3    H230502   6.133   4.496   8.379  0.0360  0.3801 -0.6853
 2103TIP3   OH230503   7.360   0.689   8.593 -0.0869  0.1366 -0.2789
 2103TIP3    H130504   7.328   0.747   8.663 -0.4738  0.1980 -0.5056
 2103TIP3    H230505   7.293   0.621   8.586  0.2972 -0.2645 -0.1101
 2104TIP3   OH230506   0.255   4.684   7.443 -0.3731 -0.2405  0.0876
 2104TIP3    H130507   0.289   4.620   7.505 -2.0107 -0.2724  0.9892
 2104TIP3    H230508   0.216   4.632   7.373 -3.1413 -0.3571  1.5914
 2105TIP3   OH230509   0.566   0.967   9.134 -0.0819  0.2771 -0.0488
 2105TIP3    H130510   0.593   1.057   9.153 -2.9917  1.4060 -0.6729
 2105TIP3    H230511   0.525   0.972   9.047 -0.8721 -1.5115  0.1710
 2106TIP3   OH230512   6.557   5.338   8.911 -0.4124 -0.1741  0.3103
 2106TIP3    H130513   6.592   5.259   8.953 -1.2251 -1.1459 -0.8074
 2106TIP3    H230514   6.463   5.322   8.903 -0.1893 -0.6249 -2.9552
 2107TIP3   OH230515   3.947   5.476   7.249  0.4144  0.1205  0.2191
 2107TIP3    H130516   3.887   5.531   7.199 -0.4685 -2.6061 -1.9878
 2107TIP3    H230517   4.025   5.470   7.194  1.7516  1.4916  1.8469
 2108TIP3   OH230518   7.384   4.669   8.559  0.4981  0.2913 -0.6749
 2108TIP3    H130519   7.339   4.660   8.476  0.6880  0.9159 -0.8537
 2108TIP3    H230520   7.349   4.750   8.597 -0.4700 -0.6102  0.4209
 2109TIP3   OH230521   0.406   0.674   6.785  0.1464 -0.5310  0.0179
 2109TIP3    H130522   0.419   0.655   6.878  1.6482  1.5334  0.2927
 2109TIP3    H230523   0.333   0.617   6.759 -0.0954 -1.3956  2.3570
 2110TIP3   OH230524   6.700   3.841   6.831 -0.2176 -0.2765  0.0808
 2110TIP3    H130525   6.780   3.833   6.882 -0.6345 -0.8659  0.6529
 2110TIP3    H230526   6.731   3.841   6.740  0.5691  1.3563  0.3177
 2111TIP3   OH230527   7.579   2.402   7.303  0.3400 -0.4099 -0.0568
 2111TIP3    H130528   7.588   2.317   7.345 -1.5188  0.8391  3.2648
 2111TIP3    H230529   7.502   2.393   7.247 -0.0205 -0.8581  0.4967
 2112TIP3   OH230530   2.176   6.168   9.076 -0.3753  0.4438  0.0058
 2112TIP3    H130531   2.209   6.113   9.146 -2.0404  1.0684  1.3605
 2112TIP3    H230532   2.116   6.112   9.027 -0.0387  0.3150 -0.2623
 2113TIP3   OH230533   2.792   2.758   9.128 -0.1987 -0.3693 -0.2350
 2113TIP3    H130534   2.881   2.743   9.099  0.2761  0.5024  0.7129
 2113TIP3    H230535   2.758   2.826   9.069  0.5047  0.8492  0.7233
 2114TIP3   OH230536   0.605   4.226   7.478  0.4426  0.1365 -0.2224
 2114TIP3    H130537   0.640   4.308   7.512 -0.0599  0.1662  0.2402
 2114TIP3    H230538   0.637   4.158   7.537 -0.6972  0.2253  0.5400
 2115TIP3   OH230539   3.995   2.439   8.079  0.2987  0.0974 -0.4125
 2115TIP3    H130540   4.052   2.489   8.138 -2.0500  2.6069 -0.0265
 2115TIP3    H230541   4.054   2.397   8.018  2.7108 -0.3683  2.0408
 2116TIP3   OH230542   1.275   0.822   6.853 -0.0025 -0.0177  0.0610
 2116TIP3    H130543   1.351   0.834   6.796  0.8659 -0.6335  1.0514
 2116TIP3    H230544   1.205   0.873   6.811  1.2275  1.4369 -0.3018
 2117TIP3   OH230545   3.395   4.521   7.359 -0.3846  0.4857  0.1182
 2117TIP3    H130546   3.391   4.607   7.315 -0.0345  0.1041 -0.6836
 2117TIP3    H230547   3.464   4.474   7.313 -0.0697  0.0274  1.0411
 2118TIP3   OH230548   1.598   4.803   7.762  0.8556 -0.2915 -0.3829
 2118TIP3    H130549   1.667   4.769   7.705  1.1457  0.6985 -0.6432
 2118TIP3    H230550   1.626   4.892   7.783  0.7007 -0.5829  1.2357
 2119TIP3   OH230551   0.737   5.816   7.741  0.2090 -0.1263  0.0265
 2119TIP3    H130552   0.685   5.820   7.821  0.1884  2.8254 -0.0273
 2119TIP3    H230553   0.823   5.786   7.770 -0.6113 -2.0145  0.6179
 2120TIP3   OH230554   1.595   7.637   7.192 -0.1624 -0.2134  0.3781
 2120TIP3    H130555   1.536   7.682   7.252  2.4151 -0.6323  3.4462
 2120TIP3    H230556   1.590   7.544   7.217  2.2594 -0.1753  1.2696
 2121TIP3   OH230557   2.779   2.809   7.361  0.3706  0.1995 -0.4754
 2121TIP3    H130558   2.698   2.852   7.334 -1.8768 -1.6456  2.6278
 2121TIP3    H230559   2.796   2.746   7.292 -1.9279 -0.5699 -0.4389
 2122TIP3   OH230560   6.548   6.906   9.425 -0.6558  0.1568  0.2974
 2122TIP3    H130561   6.460   6.941   9.439 -0.3812  0.3109  1.8303
 2122TIP3    H230562   6.601   6.982   9.402 -1.1610 -0.1329 -2.1156
 2123TIP3   OH230563   3.008   6.800   8.083 -0.5351  0.1448  0.4123
 2123TIP3    H130564   2.934   6.841   8.126 -1.3181  0.8304 -1.4627
 2123TIP3    H230565   2.976   6.714   8.056  0.7703 -1.4208  3.3753
 2124TIP3   OH230566   2.844   4.602   7.611 -0.4789  0.0021  0.2898
 2124TIP3    H130567   2.804   4.539   7.552 -0.0008  0.4045 -0.4863
 2124TIP3    H230568   2.787   4.604   7.688 -0.3514 -1.5562  0.4447
 2125TIP3   OH230569   1.572   5.252   9.764  0.1785  0.0024  0.2553
 2125TIP3    H130570   1.504   5.284   9.706 -0.6848  0.8937  1.6911
 2125TIP3    H230571   1.592   5.326   9.821  1.1405 -0.7607  0.9425
 2126TIP3   OH230572   7.221   4.852   7.015  0.3459 -0.0038 -0.3314
 2126TIP3    H130573   7.310   4.852   7.051  0.5321 -1.0060 -0.7616
 2126TIP3    H230574   7.218   4.775   6.958 -0.4506  0.6426 -1.1958
 2127TIP3   OH230575   3.670   5.499   8.706  0.0380  0.1349  0.5272
 2127TIP3    H130576   3.631   5.450   8.778  0.4000 -0.9115  0.0349
 2127TIP3    H230577   3.701   5.431   8.645 -0.9994  0.9921 -1.0138
 2128TIP3   OH230578   5.985   0.159   8.744  0.1574  0.5270  0.1960
 2128TIP3    H130579   5.900   0.166   8.786 -0.2377  0.6768 -0.6236
 2128TIP3    H230580   6.029   0.241   8.766 -0.4836  1.1005 -0.6311
 2129TIP3   OH230581   3.847   5.569   8.938  0.1167 -0.2961  0.2569
 2129TIP3    H130582   3.754   5.554   8.952 -0.1801 -0.6772 -1.8398
 2129TIP3    H230583   3.851   5.634   8.868  1.4487  0.4226  0.9487
 2130TIP3   OH230584   4.338   1.872   8.462  0.6166 -0.7642  0.4996
 2130TIP3    H130585   4.294   1.944   8.506 -0.8938  0.2615 -2.4235
 2130TIP3    H230586   4.344   1.803   8.528 -0.3630  1.0405  2.5975
 2131TIP3   OH230587   3.453   6.606   7.832  0.0305 -0.3183 -0.1442
 2131TIP3    H130588   3.493   6.520   7.838  0.8938 -0.1013 -1.9424
 2131TIP3    H230589   3.363   6.593   7.863 -0.3879 -2.2974 -1.9611
 2132TIP3   OH230590   1.200   6.771   8.759  0.2716 -0.6241 -0.0674
 2132TIP3    H130591   1.252   6.809   8.688  0.4408 -0.3486  0.1985
 2132TIP3    H230592   1.157   6.846   8.799 -1.8857 -1.0226 -1.4821
 2133TIP3   OH230593   4.611   0.912   9.037  0.4224  0.0471 -0.4014
 2133TIP3    H130594   4.602   0.977   8.967  0.8031 -0.4609 -0.9359
 2133TIP3    H230595   4.623   0.829   8.991  1.7475 -0.1544  0.2479
 2134TIP3   OH230596   1.357   4.663   7.788  0.2492 -0.5065  0.1550
 2134TIP3    H130597   1.432   4.718   7.765  0.1075 -0.8483 -1.2133
 2134TIP3    H230598   1.396   4.589   7.835  0.9305 -1.1281 -1.2960
 2135TIP3   OH230599   3.471   6.891   9.367 -0.2190 -0.4083 -0.4830
 2135TIP3    H130600   3.556   6.890   9.412 -0.3974 -0.5734 -0.1511
 2135TIP3    H230601   3.492   6.917   9.278 -0.0076  1.0880 -0.0160
 2136TIP3   OH230602   0.190   5.474   8.058  0.6129  0.2944 -0.0353
 2136TIP3    H130603   0.220   5.393   8.017  0.1643 -1.3819  2.6785
 2136TIP3    H230604   0.095   5.470   8.052  0.5879  2.2576 -2.6170
 2137TIP3   OH230605   4.359   7.661   7.209  0.2186 -0.6927  0.2498
 2137TIP3    H130606   4.433   7.643   7.151 -0.3970 -0.5860 -0.5957
 2137TIP3    H230607   4.335   7.576   7.245  1.8486 -0.4937  1.9299
 2138TIP3   OH230608   0.997   0.359   9.377  0.1657 -0.3533 -0.9062
 2138TIP3    H130609   0.972   0.267   9.389  0.5274 -0.5864 -1.8382
 2138TIP3    H230610   1.072   0.371   9.437  0.2838 -0.7401 -0.9693
 2139TIP3   OH230611   1.082   3.513   8.849  0.0190 -0.0930 -0.0463
 2139TIP3    H130612   1.037   3.597   8.855 -2.7917 -1.4871  0.5020
 2139TIP3    H230613   1.108   3.506   8.757 -0.1488  1.1461 -0.2042
 2140TIP3   OH230614   7.000   1.788   8.235 -0.2343 -0.5019 -0.4972
 2140TIP3    H130615   7.025   1.837   8.157 -0.8186  0.6828  0.0265
 2140TIP3    H230616   6.913   1.822   8.258 -0.7595 -1.9540 -0.2286
 2141TIP3   OH230617   1.758   0.378   8.324 -0.2492  0.0349 -0.2723
 2141TIP3    H130618   1.822   0.448   8.309  0.3732 -0.3611  0.4677
 2141TIP3    H230619   1.798   0.300   8.284  0.3023 -0.4757  1.2039
 2142TIP3   OH230620   0.157   3.872   6.539 -0.4457 -0.1629 -0.1992
 2142TIP3    H130621   0.191   3.918   6.462  0.6532  1.7324  1.3278
 2142TIP3    H230622   0.141   3.783   6.507  2.0817 -0.0850 -2.1117
 2143TIP3   OH230623   1.045   6.252   7.516 -0.2716  0.2380 -0.0880
 2143TIP3    H130624   1.117   6.313   7.497 -1.2845  1.3830 -0.3506
 2143TIP3    H230625   1.086   6.182   7.567  1.3162  0.1160 -1.4454
 2144TIP3   OH230626   0.769   6.039   7.459  0.2415  0.2867  0.1904
 2144TIP3    H130627   0.851   6.020   7.506 -0.1384 -0.1062  0.7095
 2144TIP3    H230628   0.744   6.126   7.488  0.0947  0.1108  0.5986
 2145TIP3   OH230629   1.251   2.828   7.479 -0.2432  0.4780  0.5311
 2145TIP3    H130630   1.219   2.738   7.483  1.5738 -0.3539 -1.4478
 2145TIP3    H230631   1.346   2.820   7.490  0.2478  1.8050 -1.9320
 2146TIP3   OH230632   0.340   4.954   8.322  0.0028 -0.3148  0.0388
 2146TIP3    H130633   0.403   4.971   8.393  1.0349  0.0604 -0.9428
 2146TIP3    H230634   0.317   4.862   8.331  0.8773 -0.5160  0.2713
 2147TIP3   OH230635   6.251   6.100   6.856  0.0430 -0.4760  0.0267
 2147TIP3    H130636   6.164   6.095   6.896  0.0716 -0.3117  0.1118
 2147TIP3    H230637   6.281   6.189   6.876 -0.2489 -0.1278 -0.9956
 2148TIP3   OH230638   5.190   1.776   8.918  0.2291 -0.1299 -0.7000
 2148TIP3    H130639   5.240   1.766   8.999  0.3360  0.7405 -0.6414
 2148TIP3    H230640   5.157   1.866   8.922 -0.4032 -0.3341 -1.2643
 2149TIP3   OH230641   2.628   6.436   8.216  0.1709 -0.1461 -0.4300
 2149TIP3    H130642   2.701   6.497   8.228 -1.8148  2.6405 -1.3623
 2149TIP3    H230643   2.555   6.478   8.262 -1.4803 -1.5038 -1.6920
 2150TIP3   OH230644   0.679   4.801   7.639 -0.2476 -0.3078 -0.2354
 2150TIP3    H130645   0.607   4.796   7.576  0.6880  1.0415 -1.5009
 2150TIP3    H230646   0.697   4.895   7.646  2.6664 -0.6832 -1.5184
 2151TIP3   OH230647   4.407   3.380   8.335 -0.8320  0.3422 -0.2476
 2151TIP3    H130648   4.313   3.364   8.348 -0.6785 -1.1271 -0.7812
 2151TIP3    H230649   4.423   3.354   8.244  0.1870  0.1718 -0.0303
 2152TIP3   OH230650   6.366   6.522   7.364  0.1602  0.0961 -0.0626
 2152TIP3    H130651   6.341   6.572   7.442  0.6701 -1.1968  0.9596
 2152TIP3    H230652   6.456   6.549   7.346  1.1697 -1.8030  1.6856
 2153TIP3   OH230653   3.491   3.607   8.743  0.1138  0.2912 -0.2840
 2153TIP3    H130654   3.428   3.619   8.814  0.2710  0.3346 -0.1521
 2153TIP3    H230655   3.449   3.647   8.667  0.1304  0.6354 -0.1167
 2154TIP3   OH230656   6.792   4.159   8.935  0.8508  0.1930  0.1401
 2154TIP3    H130657   6.866   4.108   8.970  0.6861  0.2122  0.5110
 2154TIP3    H230658   6.811   4.249   8.960  1.1120  0.3171 -0.4662
 2155TIP3   OH230659   1.199   5.855   7.378 -0.6542 -0.5107 -1.2065
 2155TIP3    H130660   1.288   5.831   7.350 -0.0718 -0.5601  0.5821
 2155TIP3    H230661   1.169   5.782   7.431 -0.2760  0.9894  1.2617
 2156TIP3   OH230662   0.808   6.595   7.388  0.1730  1.1220  0.3484
 2156TIP3    H130663   0.863   6.614   7.312  0.4591  1.5968  0.6716
 2156TIP3    H230664   0.718   6.603   7.356  0.2881  0.7635 -0.0762
 2157TIP3   OH230665   0.908   4.505   7.307 -0.5372 -0.4256 -0.4092
 2157TIP3    H130666   0.903   4.566   7.381  0.1092 -0.8299 -0.0226
 2157TIP3    H230667   0.901   4.418   7.346 -2.4861 -0.6130 -1.0575
 2158TIP3   OH230668   7.387   6.514   9.295  0.3980  0.1758  0.3834
 2158TIP3    H130669   7.303   6.475   9.316  0.3632 -1.3447 -2.1581
 2158TIP3    H230670   7.447   6.479   9.361 -0.5301 -0.4854  0.8941
 2159TIP3   OH230671   6.633   0.826   8.710  0.2976  0.0316  0.0848
 2159TIP3    H130672   6.707   0.873   8.749  1.6153 -0.9441 -1.1320
 2159TIP3    H230673   6.663   0.736   8.703 -0.6067 -0.1799 -1.4138
 2160TIP3   OH230674   2.186   0.401   8.070 -0.7573  0.5501  1.0780
 2160TIP3    H130675   2.160   0.406   8.161 -2.6098  1.1733  0.5517
 2160TIP3    H230676   2.105   0.416   8.020  0.2471  0.5070 -0.6655
 2161TIP3   OH230677   1.589   3.508   7.746 -0.2079  0.3645 -0.2081
 2161TIP3    H130678   1.530   3.489   7.673  0.0281 -0.3460 -0.2242
 2161TIP3    H230679   1.657   3.563   7.708 -0.0198 -0.1031 -0.5566
 2162TIP3   OH230680   1.554   4.314   8.874 -0.3581  0.4740  0.2226
 2162TIP3    H130681   1.479   4.303   8.932 -0.4191  0.1542  0.0863
 2162TIP3    H230682   1.520   4.364   8.800 -0.1682  1.2798  0.6762
 2163TIP3   OH230683   0.764   4.868   9.357 -0.4417  0.0414 -0.4443
 2163TIP3    H130684   0.680   4.823   9.366 -1.2201  1.2797 -1.1731
 2163TIP3    H230685   0.828   4.810   9.399 -1.6780 -0.8661  0.2290
 2164TIP3   OH230686   5.578   4.766   8.754  0.2172  0.4833 -0.1959
 2164TIP3    H130687   5.545   4.842   8.802 -1.2002 -0.7392  0.8479
 2164TIP3    H230688   5.499   4.719   8.727  1.0351 -1.5767  0.7638
 2165TIP3   OH230689   2.789   0.290   9.537 -0.1708  0.6292 -0.3596
 2165TIP3    H130690   2.711   0.250   9.575 -0.1727  1.5711  0.7046
 2165TIP3    H230691   2.862   0.234   9.565 -0.4900 -0.5011 -1.7310
 2166TIP3   OH230692   1.110   5.635   7.523  0.0966  0.1036  0.1746
 2166TIP3    H130693   1.130   5.557   7.472  0.4457  2.1666 -3.1439
 2166TIP3    H230694   1.162   5.626   7.603  1.8819 -1.9832 -1.1273
 2167TIP3   OH230695   5.616   6.595   7.749  0.1005 -0.2069 -0.3215
 2167TIP3    H130696   5.554   6.523   7.759  0.5995 -0.5434  0.4772
 2167TIP3    H230697   5.653   6.583   7.662  0.8528 -1.4805  0.1456
 2168TIP3   OH230698   3.974   1.186   7.531 -0.4199  0.1426 -0.0295
 2168TIP3    H130699   4.038   1.171   7.460 -1.0679  2.0657 -1.0936
 2168TIP3    H230700   3.993   1.118   7.595  0.2329 -1.6656 -2.0357
 2169TIP3   OH230701   5.415   7.534   8.039  0.2691 -0.1842  0.0711
 2169TIP3    H130702   5.467   7.614   8.036 -0.2785  0.3288  2.1194
 2169TIP3    H230703   5.425   7.495   7.953  0.7330  1.9837 -0.9260
 2170TIP3   OH230704   1.375   0.057   7.485  0.5016 -0.0674  0.3070
 2170TIP3    H130705   1.438   0.121   7.452  1.8076 -1.6779 -0.4740
 2170TIP3    H230706   1.429  -0.010   7.528 -0.2303 -3.0254 -2.8844
 2171TIP3   OH230707   6.343   0.115   6.635 -0.3016 -0.3984 -0.0720
 2171TIP3    H130708   6.317   0.168   6.559 -0.6383 -0.0488  0.2789
 2171TIP3    H230709   6.391   0.041   6.598 -0.9307 -0.5217 -0.6643
 2172TIP3   OH230710   6.147   0.983   9.122  0.0175 -0.6481  0.3184
 2172TIP3    H130711   6.207   0.945   9.186 -0.1280 -0.2047  0.7208
 2172TIP3    H230712   6.187   0.961   9.037  2.3445  2.0821  0.5580
 2173TIP3   OH230713   4.609   2.333   9.023 -0.3222 -0.4679  0.5944
 2173TIP3    H130714   4.574   2.327   9.112  0.2913  0.0548  0.8828
 2173TIP3    H230715   4.560   2.406   8.984  0.1054 -0.0318  0.8497
 2174TIP3   OH230716   3.364   2.674   9.112  0.3772 -0.0466 -0.7073
 2174TIP3    H130717   3.306   2.644   9.182 -0.7352  1.0871 -1.0990
 2174TIP3    H230718   3.451   2.642   9.137  0.2280  1.3152  1.8032
 2175TIP3   OH230719   1.239   0.859   9.390  0.2961  0.2049 -0.1833
 2175TIP3    H130720   1.147   0.845   9.368 -0.1855  2.2239  0.4134
 2175TIP3    H230721   1.238   0.926   9.458  2.2616  0.8435 -0.7243
 2176TIP3   OH230722   6.389   5.696   7.000 -0.1873 -0.3153  0.7411
 2176TIP3    H130723   6.404   5.764   6.934 -0.4457 -1.1294 -0.1876
 2176TIP3    H230724   6.471   5.647   7.002 -0.8352 -1.5146 -0.4636
 2177TIP3   OH230725   2.516   6.087   7.883 -0.0723  0.2437  0.4370
 2177TIP3    H130726   2.473   6.119   7.962 -1.5239  0.7274 -0.5048
 2177TIP3    H230727   2.454   6.105   7.813  1.7597  1.1521 -1.0455
 2178TIP3   OH230728   5.676   6.569   8.026 -0.1258 -0.1196 -0.2648
 2178TIP3    H130729   5.625   6.594   7.950 -0.1784 -0.9446 -0.5056
 2178TIP3    H230730   5.763   6.549   7.991 -0.8294 -3.0467 -0.5236
 2179TIP3   OH230731   5.723   3.188   8.565 -0.1174  0.0648  0.2856
 2179TIP3    H130732   5.779   3.186   8.642 -1.0798 -0.8813  0.9968
 2179TIP3    H230733   5.690   3.098   8.557 -0.4219  0.2596 -0.9379
 2180TIP3   OH230734   0.725   3.424   7.728  0.0780 -0.2952  0.7068
 2180TIP3    H130735   0.803   3.435   7.782  1.1358 -1.3394 -0.5327
 2180TIP3    H230736   0.678   3.352   7.770  1.1786 -1.4841 -0.0024
 2181TIP3   OH230737   1.531   7.651   8.286 -0.6179  0.0846 -0.3169
 2181TIP3    H130738   1.601   7.635   8.349 -1.8766  0.5287  1.2772
 2181TIP3    H230739   1.480   7.570   8.287 -1.8519  0.8363  0.8978
 2182TIP3   OH230740   5.936   4.557   8.177 -0.2990  0.5727  0.2087
 2182TIP3    H130741   5.915   4.478   8.228 -1.7738  0.8016 -0.0020
 2182TIP3    H230742   5.909   4.536   8.088  0.0437  1.0395 -0.0089
 2183TIP3   OH230743   5.310   5.104   8.362  0.2118  0.5283  0.5138
 2183TIP3    H130744   5.267   5.021   8.383 -0.9282  1.4671  2.0307
 2183TIP3    H230745   5.402   5.079   8.347 -0.2117 -1.0736  0.3662
 2184TIP3   OH230746   4.324   3.022   8.837  0.5164  0.3321 -0.1956
 2184TIP3    H130747   4.270   3.044   8.761 -0.6558 -2.0320 -0.1447
 2184TIP3    H230748   4.320   3.100   8.893  0.6289  1.7600 -2.0890
 2185TIP3   OH230749   2.269   4.060   9.147 -0.2360  0.1021 -0.0679
 2185TIP3    H130750   2.217   4.125   9.195 -2.5397 -1.7283  0.0710
 2185TIP3    H230751   2.354   4.060   9.191  0.0917  3.3834 -0.4503
 2186TIP3   OH230752   6.083   6.668   7.379 -0.0184  0.3506  0.0237
 2186TIP3    H130753   5.995   6.665   7.343 -0.2084 -2.8635  0.4401
 2186TIP3    H230754   6.081   6.604   7.451  1.7604  2.6888  2.3341
 2187TIP3   OH230755   0.676   0.428   7.985 -0.0768  0.2119 -0.0346
 2187TIP3    H130756   0.724   0.345   7.980 -0.3738  0.0991 -2.1028
 2187TIP3    H230757   0.742   0.492   8.014  0.7920 -0.3253 -0.7703
 2188TIP3   OH230758   0.731   1.708   8.211 -0.1680  0.4125  0.3506
 2188TIP3    H130759   0.700   1.798   8.199  0.5366  0.6909  0.5070
 2188TIP3    H230760   0.825   1.714   8.194  0.2322  0.0943  2.2604
 2189TIP3   OH230761   7.337   3.421   7.430  0.1276 -1.1159 -0.0389
 2189TIP3    H130762   7.287   3.499   7.455  3.5875  1.6936 -0.9240
 2189TIP3    H230763   7.386   3.398   7.509  0.6725 -1.0362 -0.3482
 2190TIP3   OH230764   1.773   0.899   8.620 -0.0191 -0.2337 -0.8604
 2190TIP3    H130765   1.742   0.830   8.561 -1.8338 -1.3392  1.1842
 2190TIP3    H230766   1.796   0.852   8.701  1.5081  1.2882 -0.3531
 2191TIP3   OH230767   0.541   4.388   6.939 -0.2125 -0.2702 -0.4660
 2191TIP3    H130768   0.452   4.411   6.911 -0.4583 -1.1184 -0.3922
 2191TIP3    H230769   0.546   4.419   7.030 -1.6572 -3.2374  0.7826
 2192TIP3   OH230770   7.352   5.016   8.305  0.7493 -0.0186 -0.2584
 2192TIP3    H130771   7.344   5.111   8.301 -1.6755 -0.1393 -0.1435
 2192TIP3    H230772   7.431   5.000   8.356  2.5454  1.8724 -2.2671
 2193TIP3   OH230773   6.462   1.818   8.986  0.5208 -0.0611  0.0841
 2193TIP3    H130774   6.463   1.727   8.957  0.6433  0.0462 -0.2513
 2193TIP3    H230775   6.540   1.857   8.947  0.4116  0.2138  0.1382
 2194TIP3   OH230776   7.646   5.279   9.120 -0.2617  0.1055 -0.3153
 2194TIP3    H130777   7.563   5.301   9.163 -0.3074  0.5070 -0.6069
 2194TIP3    H230778   7.704   5.352   9.140 -0.0419 -0.0726 -0.2930
 2195TIP3   OH230779   5.013   2.684   8.216 -0.0600  0.3335 -0.2394
 2195TIP3    H130780   5.099   2.654   8.246  0.8311  2.5894 -0.3047
 2195TIP3    H230781   5.018   2.780   8.223 -2.7329  0.5147  0.1544
 2196TIP3   OH230782   2.496   3.622   7.825 -0.3553 -0.1590  0.0070
 2196TIP3    H130783   2.496   3.717   7.820  0.4592 -0.1360  0.1986
 2196TIP3    H230784   2.584   3.600   7.857 -0.8262 -0.9305  0.8088
 2197TIP3   OH230785   6.168   1.506   7.412  0.6831 -0.4574 -0.0609
 2197TIP3    H130786   6.197   1.491   7.322  1.6279  0.4871  0.0740
 2197TIP3    H230787   6.159   1.601   7.419 -0.0748 -0.5655  0.6454
 2198TIP3   OH230788   2.613   1.324   7.098  0.8929  0.4295  0.2303
 2198TIP3    H130789   2.545   1.297   7.159  1.8118 -1.0525  0.6571
 2198TIP3    H230790   2.672   1.378   7.151  1.8857 -1.1528  0.8103
 2199TIP3   OH230791   2.001   2.341   7.997 -1.0777  0.2318  0.3300
 2199TIP3    H130792   2.011   2.420   8.051 -0.3606  0.2978  0.1111
 2199TIP3    H230793   2.037   2.270   8.051  0.2320  0.3983 -0.2929
 2200TIP3   OH230794   5.078   1.982   6.583 -0.0204 -0.1772 -0.1885
 2200TIP3    H130795   5.005   2.044   6.583 -1.3273 -1.5344 -2.3937
 2200TIP3    H230796   5.035   1.896   6.588  1.5787 -0.9595  0.5250
 2201TIP3   OH230797   5.219   0.017   8.184 -0.1203 -0.0702 -0.1487
 2201TIP3    H130798   5.224  -0.061   8.239  2.5665 -0.8209 -1.2866
 2201TIP3    H230799   5.294   0.010   8.125 -1.4265  1.9309 -2.2594
 2202TIP3   OH230800   1.445   7.604   6.934  0.6008  0.5416 -0.2527
 2202TIP3    H130801   1.387   7.643   6.999  1.6979 -0.4841  1.3987
 2202TIP3    H230802   1.385   7.569   6.867 -0.5282  1.9677 -0.0470
 2203TIP3   OH230803   5.697   7.409   8.207 -0.4035  0.2454 -0.0271
 2203TIP3    H130804   5.603   7.394   8.212 -0.3237 -0.0167  0.9232
 2203TIP3    H230805   5.714   7.431   8.115 -1.3228 -0.1412 -0.2926
 2204TIP3   OH230806   5.735   7.488   8.950 -0.1312  0.2627  0.3655
 2204TIP3    H130807   5.808   7.531   8.905  0.0934 -1.3513 -0.8993
 2204TIP3    H230808   5.774   7.409   8.988 -1.1705 -0.5701 -0.2499
 2205TIP3   OH230809   0.021   4.665   8.772  0.0460 -0.1678  0.4393
 2205TIP3    H130810  -0.003   4.719   8.847 -0.5883 -0.0870  0.1784
 2205TIP3    H230811   0.052   4.727   8.707  2.0651 -0.3407  1.1551
 2206TIP3   OH230812   1.433   4.062   7.974  0.0772 -0.0207 -0.2997
 2206TIP3    H130813   1.372   4.120   8.018 -1.6055 -2.0221  0.1854
 2206TIP3    H230814   1.455   3.996   8.040 -0.9084 -1.9378 -1.7571
 2207TIP3   OH230815   3.217   6.126   6.592 -0.3485  0.1360  0.4718
 2207TIP3    H130816   3.197   6.213   6.627 -0.6708 -0.1924  1.1248
 2207TIP3    H230817   3.201   6.067   6.665  2.3800 -0.2486  0.8374
 2208TIP3   OH230818   4.124   6.655   9.077 -0.6311  0.1530  0.0107
 2208TIP3    H130819   4.116   6.751   9.072 -1.9651  0.0383 -0.7242
 2208TIP3    H230820   4.131   6.627   8.985  0.9509 -0.3946  0.2729
 2209TIP3   OH230821   0.435   1.997   9.490 -0.7082  0.1278 -0.2500
 2209TIP3    H130822   0.529   2.005   9.510 -0.7050  1.5234 -0.7064
 2209TIP3    H230823   0.422   1.903   9.476  0.3362 -0.2648  1.1213
 2210TIP3   OH230824   5.678   6.415   8.264  0.6764  0.3584 -0.2660
 2210TIP3    H130825   5.597   6.403   8.314  0.2665  1.5456 -0.6119
 2210TIP3    H230826   5.651   6.461   8.185  1.7076  0.9376 -0.3031
 2211TIP3   OH230827   4.298   2.070   6.977 -0.4357  0.0314  0.1220
 2211TIP3    H130828   4.372   2.020   6.944 -0.2800  1.3798 -1.7177
 2211TIP3    H230829   4.227   2.053   6.915 -1.2402 -0.1244  1.0642
 2212TIP3   OH230830   5.331   0.819   9.364  0.8960 -0.0240  0.4441
 2212TIP3    H130831   5.389   0.833   9.438  0.1065 -0.0773  1.0866
 2212TIP3    H230832   5.351   0.890   9.303  0.7309  0.7149  1.2341
 2213TIP3   OH230833   0.393   1.394   6.611 -0.9014 -0.2811 -0.3372
 2213TIP3    H130834   0.467   1.398   6.672 -0.4875 -2.8223 -0.5403
 2213TIP3    H230835   0.415   1.455   6.541 -0.0304  0.5698  0.6508
 2214TIP3   OH230836   4.303   1.690   8.646  0.2316 -0.3389 -0.5270
 2214TIP3    H130837   4.311   1.596   8.633 -0.3883 -0.4015 -0.4781
 2214TIP3    H230838   4.233   1.699   8.711 -1.2365  0.2441 -2.1390
 2215TIP3   OH230839   3.051   4.455   8.957 -0.6399 -0.1785 -0.0286
 2215TIP3    H130840   3.118   4.388   8.974 -1.0062 -0.4813  0.2209
 2215TIP3    H230841   3.084   4.533   9.002  0.9194  0.5005 -2.1546
 2216TIP3   OH230842   5.148   1.878   6.836 -0.0665 -0.0666  0.4098
 2216TIP3    H130843   5.060   1.906   6.858 -0.1020 -0.5972  0.9769
 2216TIP3    H230844   5.157   1.897   6.742  0.0236  2.0790  0.8152
 2217TIP3   OH230845   7.560   1.421   9.630  0.3586 -0.0836 -0.5557
 2217TIP3    H130846   7.540   1.328   9.641  1.3369 -0.2025  0.3285
 2217TIP3    H230847   7.647   1.423   9.591  0.1556  0.4597 -0.9937
 2218TIP3   OH230848   2.283   5.261   7.674 -0.0993  0.1173  0.0151
 2218TIP3    H130849   2.253   5.197   7.738 -1.4370 -2.3655 -2.8062
 2218TIP3    H230850   2.359   5.220   7.633  0.3583  1.3492 -0.4118
 2219TIP3   OH230851   7.368   1.941   7.457 -0.3034 -0.8432 -0.3938
 2219TIP3    H130852   7.284   1.946   7.412 -0.3917  1.6963 -0.0894
 2219TIP3    H230853   7.390   1.848   7.456 -2.2876 -1.3708 -1.9703
 2220TIP3   OH230854   6.840   0.075   8.324  0.5233 -0.3815  0.2084
 2220TIP3    H130855   6.773   0.143   8.328 -0.3775 -1.0531 -1.9802
 2220TIP3    H230856   6.918   0.120   8.292  0.7458  0.1249  1.4160
 2221TIP3   OH230857   1.491   3.363   7.936 -0.0178 -0.6536  0.2727
 2221TIP3    H130858   1.540   3.429   7.887 -0.3278  0.3913  1.3029
 2221TIP3    H230859   1.535   3.280   7.917  0.3803 -0.1575 -1.0634
 2222TIP3   OH230860   3.804   5.724   8.699  0.4820  0.7205 -0.2607
 2222TIP3    H130861   3.770   5.774   8.625 -0.6605 -0.7114 -0.7595
 2222TIP3    H230862   3.750   5.645   8.701  2.1093 -0.4308  0.5781
 2223TIP3   OH230863   3.070   1.133   8.486  0.0462  0.7406 -0.1639
 2223TIP3    H130864   3.140   1.192   8.512  1.5564 -0.4699 -1.3413
 2223TIP3    H230865   3.063   1.144   8.391  0.4648 -1.0379 -0.4362
 2224TIP3   OH230866   4.356   7.675   8.051  0.9033  0.0272 -0.4623
 2224TIP3    H130867   4.267   7.701   8.032  0.9259  0.1768 -0.3649
 2224TIP3    H230868   4.372   7.599   7.995  1.0379  0.5799 -1.1718
 2225TIP3   OH230869   1.918   2.383   6.425 -0.2965 -0.3013 -0.0176
 2225TIP3    H130870   1.983   2.323   6.389  0.2635  0.5753 -0.5185
 2225TIP3    H230871   1.847   2.327   6.454  0.8928 -1.3307  1.0009
 2226TIP3   OH230872   0.562   0.066   8.476  0.7671  0.0126 -0.3911
 2226TIP3    H130873   0.641   0.038   8.521  0.6546 -3.1918 -1.9063
 2226TIP3    H230874   0.587   0.073   8.384 -0.4645 -0.0257 -0.7527
 2227TIP3   OH230875   6.822   5.531   8.498  0.3224 -0.3442 -0.4819
 2227TIP3    H130876   6.812   5.437   8.510  0.8249 -0.3537 -0.1269
 2227TIP3    H230877   6.733   5.562   8.480 -0.2544 -0.5494  1.7474
 2228TIP3   OH230878   2.544   4.186   8.153  0.3666 -0.9817  0.3619
 2228TIP3    H130879   2.615   4.212   8.095  1.0882 -0.1954  1.5580
 2228TIP3    H230880   2.464   4.199   8.101  0.9125  0.6657 -0.1219
 2229TIP3   OH230881   0.450   0.852   9.674 -0.0088  0.2912 -0.2959
 2229TIP3    H130882   0.467   0.933   9.723 -1.2776  0.9168 -0.8311
 2229TIP3    H230883   0.362   0.865   9.637 -0.4985 -1.5872  0.1026
 2230TIP3   OH230884   7.296   1.250   7.089 -0.2601 -0.1772 -0.0917
 2230TIP3    H130885   7.311   1.200   7.009  0.1865 -0.5403  0.2117
 2230TIP3    H230886   7.337   1.197   7.158 -0.5885  0.1592  0.3656
 2231TIP3   OH230887   1.718   7.158   9.498  0.3098  0.3163  0.0357
 2231TIP3    H130888   1.649   7.222   9.481  0.7966  0.6425 -0.7889
 2231TIP3    H230889   1.798   7.200   9.467  0.6825 -0.5704 -0.2378
 2232TIP3   OH230890   5.716   7.414   8.630  0.1117 -0.1685  0.4896
 2232TIP3    H130891   5.784   7.440   8.692  1.0869  0.7240 -0.8936
 2232TIP3    H230892   5.731   7.321   8.617 -0.8987 -0.6750  2.4794
 2233TIP3   OH230893   1.580   6.535   8.024 -0.2332  0.1156 -0.2807
 2233TIP3    H130894   1.648   6.523   8.090  0.0107 -0.8245 -0.6830
 2233TIP3    H230895   1.571   6.630   8.014  1.9261  0.2662 -1.1635
 2234TIP3   OH230896   4.342   1.022   8.998  0.4996 -0.0937 -0.4425
 2234TIP3    H130897   4.427   0.994   9.033  0.0936 -0.2641  0.4217
 2234TIP3    H230898   4.326   0.963   8.924  0.3412 -1.1923  0.4445
 2235TIP3   OH230899   7.434   4.882   7.661 -0.1565 -0.0935  0.1171
 2235TIP3    H130900   7.397   4.846   7.581 -1.3728 -0.3650  0.7826
 2235TIP3    H230901   7.380   4.958   7.681  1.6732  1.4772 -0.6436
 2236TIP3   OH230902   4.503   5.099   8.738 -0.1417 -0.1316 -0.1189
 2236TIP3    H130903   4.409   5.116   8.745 -0.2064 -0.7641  0.6814
 2236TIP3    H230904   4.519   5.096   8.644 -0.5947  1.6888 -0.2982
 2237TIP3   OH230905   1.753   2.596   7.441 -0.5796 -0.3165  0.5220
 2237TIP3    H130906   1.688   2.527   7.431 -0.8373  0.0062 -0.0457
 2237TIP3    H230907   1.713   2.658   7.502 -1.1439  0.2786 -0.4354
 2238TIP3   OH230908   6.198   1.159   8.179 -0.1207  0.2777  0.3080
 2238TIP3    H130909   6.144   1.081   8.187 -0.7755  0.8613  1.9810
 2238TIP3    H230910   6.281   1.128   8.143 -1.1917 -0.7866 -1.3834
 2239TIP3   OH230911   2.161   4.587   8.728 -0.1622  0.6193 -0.3691
 2239TIP3    H130912   2.145   4.680   8.711 -0.8796  0.3508 -1.2251
 2239TIP3    H230913   2.232   4.563   8.669 -0.9130  0.3073 -1.1751
 2240TIP3   OH230914   2.966   0.341   8.481  0.8060  0.1766 -0.1981
 2240TIP3    H130915   3.004   0.413   8.430 -2.2619  1.8058 -0.4220
 2240TIP3    H230916   2.968   0.372   8.571 -2.2248  1.5757 -0.4792
 2241TIP3   OH230917   3.647   5.047   7.335  0.1718 -0.7059 -0.4026
 2241TIP3    H130918   3.601   4.987   7.393 -2.1089 -0.3729 -1.7181
 2241TIP3    H230919   3.612   5.134   7.357  0.1177 -0.4423 -1.4441
 2242TIP3   OH230920   2.023   6.621   9.564 -0.0507 -0.5120  0.1204
 2242TIP3    H130921   1.988   6.682   9.630 -0.8713 -1.7789  0.8857
 2242TIP3    H230922   2.115   6.611   9.589  0.0226  0.1879  0.1566
 2243TIP3   OH230923   3.578   6.146   8.029 -0.0284  0.0988 -0.2325
 2243TIP3    H130924   3.515   6.138   8.100 -0.6198 -0.3174 -0.7974
 2243TIP3    H230925   3.586   6.240   8.015  1.3478  0.2856  1.4711
 2244TIP3   OH230926   7.109   6.084   8.207  0.2455  0.1430 -0.0726
 2244TIP3    H130927   7.090   6.062   8.116  0.4799  0.3731 -0.1785
 2244TIP3    H230928   7.042   6.037   8.257  0.0610  0.0844 -0.3678
 2245TIP3   OH230929   2.835   3.886   8.273 -0.2393  0.0465  0.3041
 2245TIP3    H130930   2.887   3.929   8.206 -1.8643  2.3727  0.4114
 2245TIP3    H230931   2.858   3.794   8.266  1.9978  0.6484 -1.2648
 2246TIP3   OH230932   4.495   4.122   9.263  0.4905 -0.1903 -0.2350
 2246TIP3    H130933   4.569   4.159   9.214  1.2147 -0.5503  0.5662
 2246TIP3    H230934   4.438   4.197   9.281  0.4026  0.0120 -1.2702
 2247TIP3   OH230935   3.579   2.354   8.961  0.0418 -0.5714 -0.6072
 2247TIP3    H130936   3.545   2.274   9.001 -1.0471  0.0971 -0.1479
 2247TIP3    H230937   3.587   2.416   9.033  1.7589 -0.5225 -0.7972
 2248TIP3   OH230938   1.434   6.923   9.913 -0.1308  0.4533  0.0667
 2248TIP3    H130939   1.430   7.017   9.930  1.7095  0.6565 -0.5040
 2248TIP3    H230940   1.469   6.916   9.825  0.0109 -0.7802  0.2123
 2249TIP3   OH230941   3.670   6.097   7.206 -0.4837  0.5121 -0.2155
 2249TIP3    H130942   3.599   6.141   7.253 -0.5922 -0.0890  0.1884
 2249TIP3    H230943   3.637   6.009   7.189 -0.3559  0.6519 -1.2287
 2250TIP3   OH230944   7.422   7.281   8.545 -0.1095  0.0593 -0.1714
 2250TIP3    H130945   7.469   7.362   8.566 -2.3671  1.3407  0.2792
 2250TIP3    H230946   7.459   7.252   8.461  0.5620  1.7143 -0.4730
 2251TIP3   OH230947   0.717   2.900   7.472 -0.7717 -0.2957 -0.0204
 2251TIP3    H130948   0.667   2.894   7.553 -0.1821  1.8118  0.5671
 2251TIP3    H230949   0.726   2.994   7.456  2.6138 -0.5484 -0.3062
 2252TIP3   OH230950   7.188   2.209   6.912  0.1538 -0.3040 -0.7195
 2252TIP3    H130951   7.266   2.255   6.881 -0.5238  1.0696 -0.4572
 2252TIP3    H230952   7.130   2.207   6.836 -0.7713  1.4328 -0.0937
 2253TIP3   OH230953   5.134   4.760   8.975 -0.0114  0.5601  0.2792
 2253TIP3    H130954   5.152   4.842   8.930 -1.0759  0.2598 -0.7555
 2253TIP3    H230955   5.099   4.702   8.907  2.1732 -1.3030  0.6314
 2254TIP3   OH230956   6.696   5.546   7.861  0.8332  0.4128  0.1993
 2254TIP3    H130957   6.605   5.541   7.833 -0.2987  2.3084  3.0462
 2254TIP3    H230958   6.738   5.602   7.796 -0.7307  1.6509  0.1880
 2255TIP3   OH230959   4.698   0.145   8.551 -0.0533  0.2170 -0.0186
 2255TIP3    H130960   4.782   0.121   8.513  0.0160  0.4012  0.0185
 2255TIP3    H230961   4.646   0.065   8.547  0.3299 -0.0682  0.5263
 2256TIP3   OH230962   2.655   4.780   7.480 -0.4790  0.0227 -0.4100
 2256TIP3    H130963   2.584   4.765   7.542 -0.1444  0.9722  0.2105
 2256TIP3    H230964   2.731   4.736   7.519 -0.5234 -0.2803 -0.6638
 2257TIP3   OH230965   2.519   3.248   9.043  0.5054 -0.5252 -0.0857
 2257TIP3    H130966   2.604   3.291   9.056  0.4034 -0.6377  1.0086
 2257TIP3    H230967   2.478   3.298   8.972 -0.3498  2.4127  2.2750
 2258TIP3   OH230968   1.503   3.429   9.102 -0.5841  0.3150  0.6688
 2258TIP3    H130969   1.430   3.367   9.110  1.3468 -2.2843 -0.2842
 2258TIP3    H230970   1.558   3.412   9.179  0.2665  0.4252  0.1011
 2259TIP3   OH230971   6.966   6.269   7.752  0.3817 -0.2955 -0.5122
 2259TIP3    H130972   6.977   6.176   7.769  0.4381 -0.6268 -2.2370
 2259TIP3    H230973   6.985   6.280   7.659 -0.6456  1.2726 -0.5871
 2260TIP3   OH230974   1.084   1.810   9.534  0.4703  0.2487  0.3418
 2260TIP3    H130975   1.126   1.729   9.505  1.1820  0.6018  0.3708
 2260TIP3    H230976   1.099   1.872   9.463 -2.5806 -0.4074 -1.0353
 2261TIP3   OH230977   4.838   6.258   8.713  0.2672 -0.5253 -0.3950
 2261TIP3    H130978   4.857   6.339   8.664 -0.4080  0.6113  1.1363
 2261TIP3    H230979   4.918   6.206   8.705  1.4230  1.0913  0.0782
 2262TIP3   OH230980   7.531   6.618   6.689  0.0937  0.1900  0.1167
 2262TIP3    H130981   7.619   6.639   6.658  0.4455  0.1349  1.0629
 2262TIP3    H230982   7.474   6.681   6.644  0.7010  0.7203  0.0819
 2263TIP3   OH230983   5.292   7.550   9.064  0.2849  0.4432  0.0291
 2263TIP3    H130984   5.224   7.485   9.082 -0.1832  1.0416  0.4911
 2263TIP3    H230985   5.347   7.510   8.997 -1.0255  0.2790 -0.9929
 2264TIP3   OH230986   6.896   2.046   7.993 -0.0291 -0.5102 -0.4934
 2264TIP3    H130987   6.845   2.015   7.918 -0.3865 -0.7550 -0.1538
 2264TIP3    H230988   6.835   2.041   8.066 -0.4665  1.9978 -0.5833
 2265TIP3   OH230989   4.918   0.707   8.317  0.2809  0.5516 -0.1737
 2265TIP3    H130990   4.991   0.767   8.332  1.4341 -1.0173  0.9088
 2265TIP3    H230991   4.960   0.624   8.294 -1.1889 -0.2775  0.0241
 2266TIP3   OH230992   0.573   6.863   7.190 -0.0261  0.1535  0.0456
 2266TIP3    H130993   0.535   6.910   7.115 -1.2793  0.2812  0.7269
 2266TIP3    H230994   0.666   6.884   7.187 -0.1154  0.4764 -1.2474
 2267TIP3   OH230995   1.942   0.149   7.438 -0.1995 -0.1059 -0.0900
 2267TIP3    H130996   2.021   0.191   7.403 -0.0050  0.2589  0.7651
 2267TIP3    H230997   1.919   0.082   7.372  0.2783  0.4096 -0.7933
 2268TIP3   OH230998   5.956   5.344   8.538 -0.4201 -0.6946  0.1389
 2268TIP3    H130999   6.046   5.353   8.506  0.5641 -0.2908  2.7894
 2268TIP3    H231000   5.940   5.250   8.538  0.3581 -0.8270  0.5684
 2269TIP3   OH231001   5.345   7.190   6.988  0.7703 -0.3677 -0.6885
 2269TIP3    H131002   5.291   7.269   6.987  0.0956 -0.7279  1.5539
 2269TIP3    H231003   5.415   7.211   7.049 -1.2926 -2.5410  2.7320
 2270TIP3   OH231004   4.219   2.272   8.485  0.1586 -0.5749  0.4897
 2270TIP3    H131005   4.222   2.237   8.396  0.9473  1.5826 -0.4015
 2270TIP3    H231006   4.151   2.340   8.482 -0.8330 -1.4361  1.9560
 2271TIP3   OH231007   5.264   5.449   7.618  0.0127  0.3924  0.3067
 2271TIP3    H131008   5.240   5.509   7.689  1.3723 -1.8212  2.8054
 2271TIP3    H231009   5.198   5.380   7.621  2.2138 -1.7930  2.2199
 2272TIP3   OH231010   5.104   5.927   7.796 -0.4327  0.1398 -0.6756
 2272TIP3    H131011   5.136   5.871   7.725  1.4548  1.1143 -0.6686
 2272TIP3    H231012   5.072   5.865   7.862  2.0700 -1.0519 -0.4355
 2273TIP3   OH231013   4.563   3.559   7.811  0.0096 -0.0708 -0.2840
 2273TIP3    H131014   4.596   3.470   7.823  0.8301  0.3004  0.3912
 2273TIP3    H231015   4.575   3.600   7.897 -1.5245  0.3255 -0.2380
 2274TIP3   OH231016   4.508   4.432   9.183  0.1100 -0.4270  0.2312
 2274TIP3    H131017   4.454   4.494   9.232  0.9142  2.1482 -1.8984
 2274TIP3    H231018   4.450   4.397   9.115 -0.1293 -1.4537  0.9449
 2275TIP3   OH231019   1.626   2.096   7.230 -0.6953 -0.3285 -0.0006
 2275TIP3    H131020   1.586   2.064   7.311  1.4936 -0.3275  1.1347
 2275TIP3    H231021   1.696   2.153   7.258 -0.5857  0.5898 -1.9489
 2276TIP3   OH231022   2.004   6.685   9.183  0.3455 -0.2417 -0.0574
 2276TIP3    H131023   2.006   6.594   9.210 -0.9695 -0.4293 -0.4891
 2276TIP3    H231024   1.947   6.686   9.106  0.9911  0.8237 -0.5533
 2277TIP3   OH231025   0.528   2.596   9.272  0.0473 -0.0793  0.1708
 2277TIP3    H131026   0.504   2.636   9.189 -1.3374 -0.7636  0.2168
 2277TIP3    H231027   0.540   2.503   9.252  2.1816  0.1268  0.2754
 2278TIP3   OH231028   6.371   3.019   8.627 -0.3857 -0.3176 -0.1749
 2278TIP3    H131029   6.282   3.035   8.594  0.3322 -0.5142 -2.3427
 2278TIP3    H231030   6.428   3.036   8.552  1.2829 -2.0492  0.6268
 2279TIP3   OH231031   5.413   1.544   8.863 -0.8544  0.1412 -0.0011
 2279TIP3    H131032   5.387   1.452   8.871 -0.9206  0.0889 -0.7413
 2279TIP3    H231033   5.372   1.587   8.937 -0.2037 -0.5565  0.7862
 2280TIP3   OH231034   1.989   3.901   8.138 -0.1119 -0.4835  0.4667
 2280TIP3    H131035   2.017   3.986   8.173 -2.0273  0.3443  0.1313
 2280TIP3    H231036   2.070   3.854   8.122  1.0124  1.2515  0.7352
 2281TIP3   OH231037   6.060   0.349   7.492  0.1488 -0.4039  0.4902
 2281TIP3    H131038   6.050   0.436   7.530 -1.3229  0.1300 -0.9908
 2281TIP3    H231039   6.112   0.364   7.413 -0.3431 -0.8197  0.0855
 2282TIP3   OH231040   4.142   4.411   9.160  0.3224 -0.4711 -0.0851
 2282TIP3    H131041   4.172   4.339   9.215 -2.4626 -0.4370  1.6788
 2282TIP3    H231042   4.098   4.367   9.086  1.3312 -0.5331 -0.6595
 2283TIP3   OH231043   0.075   7.431   7.442 -0.2524  0.1030 -0.0755
 2283TIP3    H131044   0.106   7.346   7.473  1.7928  0.3674 -1.2377
 2283TIP3    H231045   0.144   7.492   7.465 -1.1109  1.2319 -0.4053
 2284TIP3   OH231046   2.086   4.478   9.303 -0.2549  0.0568  0.2241
 2284TIP3    H131047   2.172   4.454   9.267  0.1253  1.8034 -0.1242
 2284TIP3    H231048   2.103   4.487   9.397 -0.1767 -0.0663  0.2234
 2285TIP3   OH231049   6.648   6.544   7.380 -0.0614  0.5764  0.2360
 2285TIP3    H131050   6.677   6.462   7.339 -1.3430 -0.2845  0.9975
 2285TIP3    H231051   6.719   6.568   7.439  1.3648  1.2922 -1.6478
 2286TIP3   OH231052   6.958   6.767   7.066 -0.0178  0.3787 -0.2559
 2286TIP3    H131053   7.026   6.748   7.002  1.1053 -1.5878  1.4148
 2286TIP3    H231054   6.945   6.685   7.114 -2.1882  1.2338  0.7813
 2287TIP3   OH231055   1.193   4.038   7.471 -0.2294 -0.0281  0.2284
 2287TIP3    H131056   1.128   4.048   7.401 -0.1138 -1.5684 -0.1345
 2287TIP3    H231057   1.150   3.981   7.535  0.2903 -0.0039  0.6026
 2288TIP3   OH231058   0.878   7.476   7.546 -0.2243  0.1603 -0.6926
 2288TIP3    H131059   0.873   7.460   7.452 -2.3821  3.2461 -1.2293
 2288TIP3    H231060   0.964   7.516   7.560 -0.0999  0.1452 -1.4099
 2289TIP3   OH231061   0.137   2.770   8.228 -0.1436  0.0208 -0.0389
 2289TIP3    H131062   0.126   2.743   8.137 -0.4424 -0.3753  0.1121
 2289TIP3    H231063   0.094   2.855   8.233 -0.5489 -0.1723 -0.1607
 2290TIP3   OH231064   6.406   1.172   7.889 -0.0884  0.0243  0.4247
 2290TIP3    H131065   6.460   1.240   7.848  0.4190 -1.0048 -0.6824
 2290TIP3    H231066   6.444   1.161   7.976  2.1114 -1.2535 -0.6105
 2291TIP3   OH231067   4.836   2.606   7.251 -0.0426 -0.1430  0.6304
 2291TIP3    H131068   4.773   2.677   7.241  0.6298  0.1331 -2.5047
 2291TIP3    H231069   4.787   2.535   7.291 -1.9033  0.6205 -0.2082
 2292TIP3   OH231070   1.645   5.653   9.043 -0.3935 -0.7452  0.8973
 2292TIP3    H131071   1.570   5.680   9.096 -0.8639 -2.1373  1.0053
 2292TIP3    H231072   1.617   5.665   8.953 -0.1705  0.1774  0.9489
 2293TIP3   OH231073   7.288   5.901   9.218 -0.7187  0.0025 -0.3245
 2293TIP3    H131074   7.266   5.927   9.129 -0.9519  0.4157 -0.1505
 2293TIP3    H231075   7.220   5.838   9.242 -1.1050  0.4767 -0.1654
 2294TIP3   OH231076   6.733   6.820   8.229 -0.5536  0.0601 -0.2135
 2294TIP3    H131077   6.640   6.799   8.240 -0.2446 -1.9867 -1.0285
 2294TIP3    H231078   6.742   6.842   8.136 -0.2351  0.3985 -0.1067
 2295TIP3   OH231079   6.052   1.920   7.158  0.2134  0.5249  0.4111
 2295TIP3    H131080   6.136   1.879   7.176 -0.3122 -0.9529 -0.2897
 2295TIP3    H231081   6.073   1.995   7.101  1.0944  0.5021  0.7008
 2296TIP3   OH231082   5.783   0.781   9.045  0.6246 -1.0687 -0.2692
 2296TIP3    H131083   5.870   0.782   9.087  1.4540  1.1118 -1.8649
 2296TIP3    H231084   5.725   0.822   9.109  0.9759 -1.5549  0.3794
 2297TIP3   OH231085   1.260   4.299   7.714 -0.2333 -0.0317  0.2787
 2297TIP3    H131086   1.200   4.269   7.782 -0.1954 -1.3700 -0.2433
 2297TIP3    H231087   1.288   4.386   7.743 -1.2894  0.0062  1.2563
 2298TIP3   OH231088   4.752   0.995   8.032  0.0409 -0.1138 -0.2047
 2298TIP3    H131089   4.752   0.957   7.944 -2.2103 -0.1555 -0.2465
 2298TIP3    H231090   4.750   0.920   8.091  1.4071 -0.0832 -0.0821
 2299TIP3   OH231091   1.954   5.961   7.990  0.9476 -0.2335 -0.4834
 2299TIP3    H131092   1.992   5.958   7.903  0.9922 -1.0281 -0.4467
 2299TIP3    H231093   2.022   5.927   8.048  0.6298 -0.4997 -0.2543
 2300TIP3   OH231094   3.300   1.351   9.132 -0.0874  0.1161  0.0624
 2300TIP3    H131095   3.235   1.296   9.175 -2.0183 -0.0915 -2.8785
 2300TIP3    H231096   3.370   1.291   9.107 -0.9341 -0.5484 -0.7742
 2301TIP3   OH231097   4.155   6.304   7.855  0.8226 -0.4965 -0.3354
 2301TIP3    H131098   4.220   6.373   7.843 -0.6446  1.5202  2.3044
 2301TIP3    H231099   4.193   6.247   7.923  0.8859 -0.7691 -0.5970
 2302TIP3   OH231100   5.138   0.609   7.617  0.2634  0.9645 -0.2371
 2302TIP3    H131101   5.168   0.637   7.703  0.1208  0.0183  0.1374
 2302TIP3    H231102   5.044   0.593   7.629  0.4137 -0.0490 -0.3141
 2303TIP3   OH231103   2.930   6.497   9.130 -0.8012 -0.2524  0.2680
 2303TIP3    H131104   3.004   6.555   9.112  0.3691 -2.1038 -1.3874
 2303TIP3    H231105   2.856   6.538   9.086  0.2678 -0.5470 -1.9522
 2304TIP3   OH231106   1.224   0.519   7.386 -0.1950  0.0927 -0.1610
 2304TIP3    H131107   1.205   0.484   7.473  1.3365 -1.2809 -0.3401
 2304TIP3    H231108   1.148   0.493   7.333 -0.2103 -0.8492  0.3003
 2305TIP3   OH231109   7.162   0.663   8.888  0.2112  0.8020 -0.1638
 2305TIP3    H131110   7.117   0.627   8.811  0.1635  0.6754 -0.0773
 2305TIP3    H231111   7.218   0.592   8.918  0.0437  0.7652  0.0666
 2306TIP3   OH231112   1.799   2.783   7.771 -0.2913 -0.2695  0.7981
 2306TIP3    H131113   1.860   2.848   7.805 -1.9737  1.2417  1.0863
 2306TIP3    H231114   1.768   2.736   7.848  0.0292 -0.6225  0.7165
 2307TIP3   OH231115   4.453   0.886   7.302  0.1217 -0.0579  0.2385
 2307TIP3    H131116   4.408   0.957   7.347 -1.0346 -0.3874 -0.3811
 2307TIP3    H231117   4.410   0.880   7.217  1.0677 -0.6559 -0.2143
 2308TIP3   OH231118   1.355   2.235   7.602 -0.2304 -0.3400 -0.2878
 2308TIP3    H131119   1.379   2.173   7.671  0.1121 -0.5321 -0.5738
 2308TIP3    H231120   1.260   2.230   7.597 -0.2241 -0.6388 -0.1218
 2309TIP3   OH231121   3.147   5.188   7.245 -0.2841 -0.4113 -0.2505
 2309TIP3    H131122   3.142   5.101   7.207 -1.3718  0.5724 -2.5687
 2309TIP3    H231123   3.058   5.223   7.237  0.0405  0.7883  0.9626
 2310TIP3   OH231124   5.686   1.733   9.077 -0.0761 -0.3288  0.2999
 2310TIP3    H131125   5.636   1.670   9.130  2.1725 -2.0595  0.4855
 2310TIP3    H231126   5.688   1.812   9.131 -0.4130 -1.0796  1.4573
 2311TIP3   OH231127   6.047   0.489   7.022 -0.1253 -0.1988  0.1368
 2311TIP3    H131128   6.016   0.519   6.937 -0.0373 -0.8970 -0.1497
 2311TIP3    H231129   6.068   0.396   7.009  1.6762  0.1309  0.4213
 2312TIP3   OH231130   4.083   2.747   9.541 -0.0029 -0.7326 -0.3539
 2312TIP3    H131131   4.064   2.808   9.470 -0.2727  0.8558  0.9987
 2312TIP3    H231132   4.021   2.675   9.530 -0.8213  0.0601 -1.0490
 2313TIP3   OH231133   0.072   4.169   8.869  0.2639  0.7008 -0.3044
 2313TIP3    H131134   0.019   4.228   8.921 -0.1925 -0.6509  0.8212
 2313TIP3    H231135   0.158   4.169   8.911  0.4792  1.0997 -0.7339
 2314TIP3   OH231136   2.759   0.904   7.983  0.2752  0.3551  0.3171
 2314TIP3    H131137   2.729   0.813   7.981  0.9582  0.0855  1.5118
 2314TIP3    H231138   2.772   0.924   8.076  1.0702  1.3534  0.0158
 2315TIP3   OH231139   2.817   2.580   8.612 -0.7006  0.2606  0.7692
 2315TIP3    H131140   2.741   2.523   8.626  0.2647 -1.7822 -1.4689
 2315TIP3    H231141   2.784   2.652   8.558 -0.8941 -1.4096 -1.5095
 2316TIP3   OH231142   7.420   4.022   8.943 -0.3550 -0.5134  0.1529
 2316TIP3    H131143   7.461   4.099   8.983 -3.1784  1.5299 -0.6042
 2316TIP3    H231144   7.494   3.972   8.907  1.6419  1.4961  1.1973
 2317TIP3   OH231145   4.544   2.870   9.425  0.1916 -0.6436  0.2973
 2317TIP3    H131146   4.617   2.915   9.381 -0.2968 -0.8158 -0.7123
 2317TIP3    H231147   4.501   2.938   9.477  1.3145 -0.6280  1.2573
 2318TIP3   OH231148   4.091   5.144   9.020  0.6679 -0.2665  0.1710
 2318TIP3    H131149   4.024   5.212   9.030 -0.1715 -1.2193  1.4380
 2318TIP3    H231150   4.172   5.186   9.048  0.0118  0.0184  1.7528
 2319TIP3   OH231151   5.184   1.337   9.139  0.1160 -0.1051  0.6827
 2319TIP3    H131152   5.111   1.395   9.114  0.2714  0.0737  0.6375
 2319TIP3    H231153   5.229   1.319   9.056  0.0698 -0.2894  0.6978
 2320TIP3   OH231154   3.428   3.205   7.767  0.1208  0.0329  0.1899
 2320TIP3    H131155   3.393   3.257   7.840 -0.3965 -0.1535  0.0739
 2320TIP3    H231156   3.512   3.173   7.800 -0.7372 -1.2222  1.2574
 2321TIP3   OH231157   5.384   3.759   6.969 -0.1723  0.5257 -0.4332
 2321TIP3    H131158   5.353   3.844   6.940 -0.7413  0.0397 -1.3020
 2321TIP3    H231159   5.343   3.697   6.909  1.7857 -0.2139 -1.0697
 2322TIP3   OH231160   3.323   4.298   8.833  0.5121 -0.1823 -0.5975
 2322TIP3    H131161   3.379   4.263   8.764 -0.6057 -0.9089 -1.1630
 2322TIP3    H231162   3.381   4.306   8.909  1.1036 -2.2439 -0.7583
 2323TIP3   OH231163   0.439   7.544   7.801 -0.1045 -0.4148  0.7895
 2323TIP3    H131164   0.488   7.491   7.738  0.7961  0.0130  1.1196
 2323TIP3    H231165   0.397   7.479   7.859  0.1100 -0.7821  0.5387
 2324TIP3   OH231166   0.900   1.785   8.484  0.0459  0.6409 -0.3307
 2324TIP3    H131167   0.813   1.748   8.470  0.3433  0.3950 -1.6101
 2324TIP3    H231168   0.948   1.764   8.404  0.6889  2.4818 -0.4648
 2325TIP3   OH231169   6.540   5.866   9.116 -0.4292  0.4607 -0.6563
 2325TIP3    H131170   6.615   5.882   9.059 -0.2059  0.5999 -0.3244
 2325TIP3    H231171   6.486   5.945   9.106 -0.0774  0.7682 -0.1925
 2326TIP3   OH231172   1.679   3.408   9.294  0.0559  0.2054 -0.2692
 2326TIP3    H131173   1.648   3.472   9.358  3.9913 -0.0752  2.2865
 2326TIP3    H231174   1.768   3.437   9.271  0.4634 -2.1740 -2.1615
 2327TIP3   OH231175   2.404   1.602   8.165 -0.4686 -0.1205 -0.4467
 2327TIP3    H131176   2.490   1.643   8.164 -0.8497  0.7566  0.5256
 2327TIP3    H231177   2.371   1.612   8.076 -0.9215  2.5650 -0.0712
 2328TIP3   OH231178   1.914   5.281   7.999  0.2181 -0.2854 -0.0218
 2328TIP3    H131179   1.956   5.265   8.084 -0.0515  0.0967  0.1877
 2328TIP3    H231180   1.967   5.349   7.958  0.1628 -0.2404 -0.0191
 2329TIP3   OH231181   2.456   0.587   7.868  0.2295  0.5491  0.5067
 2329TIP3    H131182   2.419   0.498   7.875  0.3431  0.5179  0.7100
 2329TIP3    H231183   2.392   0.643   7.912  0.1637  0.5659  0.3893
 2330TIP3   OH231184   6.413   5.230   8.299 -0.0693  0.2665  0.0290
 2330TIP3    H131185   6.436   5.305   8.245 -3.0378  1.6935  0.5592
 2330TIP3    H231186   6.497   5.196   8.329  1.5309  1.2487 -2.9454
 2331TIP3   OH231187   1.812   0.262   9.475  0.0431  0.3627  0.1811
 2331TIP3    H131188   1.779   0.176   9.500 -0.2867  1.1456  2.7842
 2331TIP3    H231189   1.749   0.294   9.410 -0.4420 -0.9210  0.0018
 2332TIP3   OH231190   5.078   5.341   8.479  0.2061 -0.2052  0.3099
 2332TIP3    H131191   5.157   5.287   8.475 -1.2754 -2.7502  2.1662
 2332TIP3    H231192   5.056   5.359   8.387  3.0497  0.8992 -0.2472
 2333TIP3   OH231193   0.211   6.244   8.935  0.4279 -0.4580 -0.2872
 2333TIP3    H131194   0.290   6.290   8.966  0.7840 -0.1547 -1.5907
 2333TIP3    H231195   0.150   6.250   9.008  0.0091  3.1458 -0.7714
 2334TIP3   OH231196   5.373   1.769   9.451  0.2585  0.2841 -0.1407
 2334TIP3    H131197   5.332   1.687   9.479 -0.8960  0.5022 -1.0939
 2334TIP3    H231198   5.305   1.835   9.466  1.2708  1.1359  0.8728
 2335TIP3   OH231199   4.688   7.084   7.991  0.7181  0.5009  0.5479
 2335TIP3    H131200   4.611   7.081   8.048  0.3394  0.6975  0.0531
 2335TIP3    H231201   4.664   7.033   7.915  0.9697  0.8044  0.2604
 2336TIP3   OH231202   0.910   0.579   8.007  0.1227 -0.1675  0.2603
 2336TIP3    H131203   0.916   0.669   8.041 -1.1658  0.0074  0.0690
 2336TIP3    H231204   0.976   0.531   8.056 -0.2049  0.5576  1.4606
 2337TIP3   OH231205   4.206   1.110   7.356  0.3190 -0.3938 -0.1175
 2337TIP3    H131206   4.210   1.114   7.260 -1.5067 -0.0864 -0.2167
 2337TIP3    H231207   4.268   1.178   7.385 -0.7870  1.1228 -1.1498
 2338TIP3   OH231208   0.088   0.667   7.816 -0.4812  0.4771  0.4163
 2338TIP3    H131209   0.081   0.739   7.879  1.2306 -0.0457  1.2682
 2338TIP3    H231210   0.170   0.622   7.839 -0.4199 -0.4754 -1.4221
 2339TIP3   OH231211   0.396   6.310   7.552  0.0348  0.2583 -0.1361
 2339TIP3    H131212   0.383   6.216   7.539 -0.8250  0.5702 -1.7771
 2339TIP3    H231213   0.338   6.332   7.625  2.4647 -0.9629  2.3499
 2340TIP3   OH231214   5.763   6.748   8.908  0.6442  0.6241 -0.3432
 2340TIP3    H131215   5.747   6.779   8.997 -0.5333 -0.9912  0.0565
 2340TIP3    H231216   5.691   6.784   8.856 -0.2840 -0.7033 -0.0334
 2341TIP3   OH231217   1.629   2.344   9.408 -0.3803 -0.5732 -0.4528
 2341TIP3    H131218   1.668   2.430   9.391  0.3879 -0.6532  0.7757
 2341TIP3    H231219   1.695   2.282   9.376 -0.7918 -0.7154 -1.0380
 2342TIP3   OH231220   4.535   7.451   7.304 -0.5011  0.1778  0.0636
 2342TIP3    H131221   4.490   7.442   7.388  0.9436  1.5586  1.0622
 2342TIP3    H231222   4.591   7.528   7.315  1.0102 -0.5996 -1.5769
 2343TIP3   OH231223   0.311   1.696   7.198 -0.2676  0.2366 -0.8281
 2343TIP3    H131224   0.276   1.754   7.266  1.9967 -0.3572  0.9683
 2343TIP3    H231225   0.295   1.743   7.116 -2.9028  1.0922  0.0499
 2344TIP3   OH231226   2.311   5.241   9.406  0.1712 -0.0107  0.1089
 2344TIP3    H131227   2.365   5.311   9.441  1.1631 -0.0360 -1.3132
 2344TIP3    H231228   2.274   5.198   9.483  1.3331  0.6714  1.0689
 2345TIP3   OH231229   5.197   5.870   8.275 -0.2991 -0.4345 -0.6156
 2345TIP3    H131230   5.218   5.787   8.233 -1.1162 -0.3683 -1.1911
 2345TIP3    H231231   5.243   5.867   8.359 -1.2986 -2.0120 -0.0696
 2346TIP3   OH231232   4.894   1.972   7.301  0.3024 -0.0555 -0.0961
 2346TIP3    H131233   4.828   1.937   7.242 -0.7641  0.0714  0.9701
 2346TIP3    H231234   4.860   2.058   7.327  0.6125 -0.2091  0.8862
 2347TIP3   OH231235   7.077   1.650   9.084  0.2328  0.5070 -0.4707
 2347TIP3    H131236   7.133   1.641   9.007 -0.7439  0.2581 -1.1661
 2347TIP3    H231237   7.118   1.721   9.135  2.9087 -1.6269  0.6211
 2348TIP3   OH231238   1.296   3.609   9.242  0.1054 -0.2630  0.2577
 2348TIP3    H131239   1.254   3.683   9.199 -0.7876 -1.0120 -0.2166
 2348TIP3    H231240   1.367   3.584   9.183 -1.7211 -1.9109 -1.4176
 2349TIP3   OH231241   0.771   7.351   8.603  1.2040 -0.5584  0.1225
 2349TIP3    H131242   0.759   7.375   8.695  0.0885 -1.1009  0.1329
 2349TIP3    H231243   0.839   7.410   8.572 -1.6146  3.0417  0.0508
 2350TIP3   OH231244   5.252   5.261   6.987  0.3832  0.2992  0.6293
 2350TIP3    H131245   5.272   5.247   6.894 -0.3763 -1.6741  0.7099
 2350TIP3    H231246   5.338   5.273   7.027  1.1137 -2.5490  0.1565
 2351TIP3   OH231247   1.970   7.485   8.587 -0.3724  0.2717  0.2527
 2351TIP3    H131248   2.066   7.489   8.591 -0.2856 -0.7193 -0.4244
 2351TIP3    H231249   1.941   7.532   8.665  0.7205 -1.3182  1.7141
 2352TIP3   OH231250   6.328   5.000   8.410 -0.5467 -0.2213  0.0286
 2352TIP3    H131251   6.378   4.961   8.338 -1.5296  1.2199 -1.5194
 2352TIP3    H231252   6.338   5.095   8.397 -0.8041  0.0802  1.7940
 2353TIP3   OH231253   3.339   0.966   8.093  0.3599 -0.2809  0.2784
 2353TIP3    H131254   3.364   0.924   8.175  1.5693 -1.2135 -0.5376
 2353TIP3    H231255   3.245   0.948   8.085  0.4905 -1.2722  0.8241
 2354TIP3   OH231256   2.895   7.494   9.778  0.0611  0.1519 -0.4380
 2354TIP3    H131257   2.858   7.474   9.865  1.0315 -1.5085 -0.3678
 2354TIP3    H231258   2.819   7.498   9.721 -0.5523  0.7311  0.3894
 2355TIP3   OH231259   7.474   1.068   7.520  0.0513 -0.1032  0.3317
 2355TIP3    H131260   7.455   0.975   7.529 -1.7789  0.2549  0.6558
 2355TIP3    H231261   7.458   1.088   7.428  2.1870 -0.4078 -0.1696
 2356TIP3   OH231262   1.716   6.180   7.628  0.2430 -0.3182 -0.2194
 2356TIP3    H131263   1.739   6.241   7.699 -1.7439 -0.0200  0.2075
 2356TIP3    H231264   1.792   6.183   7.569  1.1096  0.9176  0.8946
 2357TIP3   OH231265   3.549   0.574   7.030 -0.6034  0.2649  0.5216
 2357TIP3    H131266   3.466   0.581   6.981  0.9779 -0.4365 -2.4955
 2357TIP3    H231267   3.613   0.618   6.974  1.2237  0.2063  2.4639
 2358TIP3   OH231268   6.614   5.661   6.766 -0.2254  0.1104  0.0911
 2358TIP3    H131269   6.625   5.566   6.766  0.3479  0.1658  0.6321
 2358TIP3    H231270   6.680   5.692   6.829  0.2034  0.9310 -0.7406
 2359TIP3   OH231271   2.603   6.880   9.090 -0.1320 -0.1039  0.0903
 2359TIP3    H131272   2.595   6.784   9.090 -1.4712 -0.0248  1.1758
 2359TIP3    H231273   2.527   6.910   9.040  0.1857  0.4178 -0.0884
 2360TIP3   OH231274   1.975   7.200   8.618  0.2381 -0.3532  0.0038
 2360TIP3    H131275   1.973   7.294   8.600  0.5101 -0.4552 -0.5612
 2360TIP3    H231276   1.924   7.190   8.699 -0.7270  0.1446 -0.5308
 2361TIP3   OH231277   3.714   6.581   9.370  0.9240 -0.6021 -0.6752
 2361TIP3    H131278   3.728   6.669   9.405 -0.5904  0.3084 -2.1927
 2361TIP3    H231279   3.801   6.553   9.341  1.1466  1.3452 -2.1639
 2362TIP3   OH231280   7.647   3.843   8.821  0.0278 -0.0499 -0.2702
 2362TIP3    H131281   7.691   3.763   8.792 -0.4306 -1.3046  2.1181
 2362TIP3    H231282   7.717   3.907   8.831  0.9162 -1.0994  0.6130
 2363TIP3   OH231283   4.321   3.922   8.652  0.0482 -0.2565 -0.4542
 2363TIP3    H131284   4.323   4.005   8.603 -1.0566  1.4672  2.1948
 2363TIP3    H231285   4.249   3.873   8.612 -0.2304  0.6819 -1.1577
 2364TIP3   OH231286   2.367   3.730   7.046 -0.4931  0.4071  0.0676
 2364TIP3    H131287   2.305   3.768   6.983 -0.7434 -1.3911 -0.8405
 2364TIP3    H231288   2.451   3.733   7.001 -0.3550  0.6880  0.3462
 2365TIP3   OH231289   1.665   4.173   7.850  0.3456 -0.0363 -0.2964
 2365TIP3    H131290   1.743   4.143   7.898  0.2190 -0.8758 -0.5952
 2365TIP3    H231291   1.595   4.115   7.881  0.1249 -0.1513 -1.0042
 2366TIP3   OH231292   6.820   1.432   6.669  0.0909 -0.0882  0.6329
 2366TIP3    H131293   6.800   1.339   6.656 -1.6600  0.1376  1.4763
 2366TIP3    H231294   6.913   1.439   6.649  0.0279 -1.8189 -0.4989
 2367TIP3   OH231295   3.286   0.963   6.904  0.0037 -0.2725  0.2204
 2367TIP3    H131296   3.200   1.005   6.902 -0.1548 -0.3481  2.3354
 2367TIP3    H231297   3.343   1.021   6.855 -1.3392 -0.4878 -1.6809
 2368TIP3   OH231298   5.503   4.855   7.378 -0.5635  0.2370  0.5207
 2368TIP3    H131299   5.554   4.815   7.449 -0.0510  0.8000  0.4823
 2368TIP3    H231300   5.450   4.784   7.344  1.1962 -0.7395 -0.3285
 2369TIP3   OH231301   7.322   1.691   7.976  0.4488  0.1018 -0.6763
 2369TIP3    H131302   7.273   1.773   7.977  2.3669  1.2969  0.7115
 2369TIP3    H231303   7.264   1.628   8.017 -0.0101  1.4457  0.8403
 2370TIP3   OH231304   1.774   6.561   8.210  0.3584  0.0152  0.2876
 2370TIP3    H131305   1.768   6.576   8.304  1.6053 -0.6008  0.4833
 2370TIP3    H231306   1.830   6.632   8.178  1.5393 -0.8889  0.3233
 2371TIP3   OH231307   0.668   5.129   7.906  0.4270 -0.2653  0.2423
 2371TIP3    H131308   0.693   5.192   7.974 -0.4935 -1.4281  1.7163
 2371TIP3    H231309   0.583   5.096   7.934  0.2962 -1.2265 -1.1906
 2372TIP3   OH231310   4.116   7.357   8.824 -0.2539  0.8983 -0.4079
 2372TIP3    H131311   4.120   7.289   8.757 -0.7608  0.0525  0.4008
 2372TIP3    H231312   4.178   7.329   8.891 -1.2098  0.6573  0.4186
 2373TIP3   OH231313   7.412   4.328   8.009 -0.2485 -0.1761 -0.3971
 2373TIP3    H131314   7.445   4.404   8.057  0.2119  0.7370 -2.0402
 2373TIP3    H231315   7.321   4.319   8.036 -0.8222  2.0391 -1.3670
 2374TIP3   OH231316   1.357   4.418   6.943 -0.6872 -0.2551  0.0581
 2374TIP3    H131317   1.424   4.375   6.997 -0.5316  1.2113  1.1096
 2374TIP3    H231318   1.274   4.386   6.979 -0.5754  0.2510  0.7829
 2375TIP3   OH231319   1.714   5.478   7.967 -0.0911  0.0464 -0.1430
 2375TIP3    H131320   1.741   5.542   7.902  0.2494 -0.4432 -0.4897
 2375TIP3    H231321   1.778   5.407   7.960 -0.9914 -0.7680 -0.4273
 2376TIP3   OH231322   2.056   1.709   6.991 -0.2608  0.4523  0.6605
 2376TIP3    H131323   2.018   1.764   6.922  0.1150  1.5327  1.2917
 2376TIP3    H231324   2.098   1.637   6.944 -1.1299  0.4588 -0.1659
 2377TIP3   OH231325   4.464   7.179   7.793  0.2329 -0.7759 -0.5244
 2377TIP3    H131326   4.468   7.092   7.832  1.4537 -0.6939 -0.4239
 2377TIP3    H231327   4.381   7.180   7.745  0.4585 -2.1997 -0.9981
 2378TIP3   OH231328   1.880   1.544   8.825 -0.1126  0.2079  0.0928
 2378TIP3    H131329   1.901   1.466   8.877 -1.4541  0.3665  0.9469
 2378TIP3    H231330   1.915   1.617   8.876 -0.6842  0.3027  0.3584
 2379TIP3   OH231331   6.161   5.302   9.129 -0.3562  0.3737  0.0495
 2379TIP3    H131332   6.165   5.207   9.121  0.7518  0.3898  0.2085
 2379TIP3    H231333   6.241   5.326   9.177  0.2751  1.5217 -1.4741
 2380TIP3   OH231334   3.231   2.010   9.091  0.1788  0.0544  0.2603
 2380TIP3    H131335   3.237   2.049   9.178  2.2631  0.1459  0.1258
 2380TIP3    H231336   3.302   2.051   9.041 -0.8951 -0.0795 -1.4647
 2381TIP3   OH231337   1.517   2.615   9.168 -0.1188  0.3645 -0.2674
 2381TIP3    H131338   1.440   2.636   9.220 -0.2607 -0.2218 -0.2406
 2381TIP3    H231339   1.500   2.528   9.132  1.0390 -0.3027  0.7081
 2382TIP3   OH231340   3.829   1.359   7.403 -0.2761  0.0461  0.1087
 2382TIP3    H131341   3.876   1.391   7.326  1.9605  2.1139  2.1587
 2382TIP3    H231342   3.890   1.298   7.445 -0.5575  0.5941  1.3468
 2383TIP3   OH231343   3.414   7.187   8.833 -0.0806  0.2480  0.1223
 2383TIP3    H131344   3.500   7.158   8.864 -0.5597  0.6678  1.9277
 2383TIP3    H231345   3.411   7.158   8.742  2.3202  0.9706 -0.2700
 2384TIP3   OH231346   0.937   4.437   7.631  0.4962 -0.8912 -0.3559
 2384TIP3    H131347   0.962   4.530   7.631 -2.2845 -0.0370 -1.3933
 2384TIP3    H231348   1.008   4.393   7.584  1.1671  0.9702 -1.1780
 2385TIP3   OH231349   0.579   3.132   8.775  0.1601  0.0594 -0.1411
 2385TIP3    H131350   0.484   3.117   8.772 -0.3484  1.9692  2.5889
 2385TIP3    H231351   0.610   3.074   8.845  0.7441  0.4773 -0.0463
 2386TIP3   OH231352   1.185   3.592   8.072  0.3399  0.4209  0.3052
 2386TIP3    H131353   1.261   3.617   8.019 -1.6545  1.7437 -2.1795
 2386TIP3    H231354   1.201   3.501   8.097  2.9363  0.8245  0.3312
 2387TIP3   OH231355   0.407   6.054   7.463 -0.0907  0.0184  0.6507
 2387TIP3    H131356   0.421   5.989   7.531  1.1767  1.9602  2.3825
 2387TIP3    H231357   0.481   6.044   7.404 -0.0535 -0.2811  0.7489
 2388TIP3   OH231358   4.194   7.394   6.782 -0.0316  0.0150  0.0491
 2388TIP3    H131359   4.128   7.462   6.797 -0.2338  0.0931 -1.0957
 2388TIP3    H231360   4.147   7.326   6.734  0.5609 -0.2270 -0.1972
 2389TIP3   OH231361   5.775   0.251   7.383 -0.6351 -0.0382  0.5176
 2389TIP3    H131362   5.741   0.212   7.303  0.1719 -1.3443  0.7910
 2389TIP3    H231363   5.844   0.192   7.412 -1.0938  0.2385  2.3278
 2390TIP3   OH231364   7.116   4.073   7.572  0.3365  0.1277 -0.7376
 2390TIP3    H131365   7.117   3.993   7.626  1.3189 -0.7465 -1.9940
 2390TIP3    H231366   7.043   4.060   7.511  0.8067 -0.0462 -1.2685
 2391TIP3   OH231367   4.485   0.266   8.425 -0.5505 -0.2385 -0.6837
 2391TIP3    H131368   4.429   0.192   8.449 -0.2061 -0.9875 -2.1127
 2391TIP3    H231369   4.568   0.247   8.470 -0.5704 -0.5529 -0.7719
 2392TIP3   OH231370   4.814   0.842   6.748 -0.2595  0.7342 -0.0274
 2392TIP3    H131371   4.777   0.776   6.689 -0.4411  0.6182  0.2185
 2392TIP3    H231372   4.764   0.922   6.729  0.6105  1.0789 -1.0365
 2393TIP3   OH231373   4.105   7.512   7.285 -0.3119 -0.2762  0.2524
 2393TIP3    H131374   4.158   7.463   7.221 -0.3819  0.2839 -0.2506
 2393TIP3    H231375   4.016   7.479   7.273 -0.5326  0.5845 -0.7440
 2394TIP3   OH231376   1.229   5.876   8.099 -0.1757 -0.0898  0.3954
 2394TIP3    H131377   1.259   5.790   8.130  0.4222  0.1421  0.4627
 2394TIP3    H231378   1.308   5.928   8.092 -0.6288  0.7245  1.1738
 2395TIP3   OH231379   7.655   6.764   9.433 -0.1153  0.1154  0.2564
 2395TIP3    H131380   7.564   6.736   9.419 -0.0021 -1.0855  1.7360
 2395TIP3    H231381   7.691   6.700   9.494  1.4371  1.1585  0.4823
 2396TIP3   OH231382   2.350   0.373   8.885 -0.6405 -0.0569  0.4050
 2396TIP3    H131383   2.412   0.313   8.927  0.1259 -0.5004 -1.2854
 2396TIP3    H231384   2.309   0.321   8.816  0.2306  1.3778 -1.2739
 2397TIP3   OH231385   6.123   6.346   8.013  0.2672 -0.0695  0.6095
 2397TIP3    H131386   6.198   6.391   7.975  0.8582 -0.4037  1.3519
 2397TIP3    H231387   6.149   6.254   8.015 -1.0197 -0.5261 -1.1295
 2398TIP3   OH231388   0.273   4.585   8.718 -0.1615  0.6180 -0.1028
 2398TIP3    H131389   0.283   4.489   8.714  1.9491  0.7732  0.0869
 2398TIP3    H231390   0.188   4.599   8.759 -0.7299 -1.1766 -0.5764
 2399TIP3   OH231391   0.308   0.628   7.481  0.0567  0.3627  0.1803
 2399TIP3    H131392   0.276   0.688   7.549  0.2998  0.8528 -0.1332
 2399TIP3    H231393   0.320   0.544   7.527  1.1854  0.9348  0.9882
 2400TIP3   OH231394   3.017   4.459   6.804  0.7677  0.2701 -0.2027
 2400TIP3    H131395   2.984   4.370   6.789  0.4304  0.1212  1.3135
 2400TIP3    H231396   3.052   4.486   6.719  0.7156 -1.2426 -0.7318
 2401TIP3   OH231397   3.584   7.187   7.675 -0.1768 -0.1667  0.6455
 2401TIP3    H131398   3.614   7.226   7.756 -0.1054 -1.2326  1.1523
 2401TIP3    H231399   3.617   7.245   7.606 -0.4602  0.8867  1.3768
 2402TIP3   OH231400   1.953   0.866   7.347 -0.5438 -0.2527  0.2374
 2402TIP3    H131401   2.018   0.844   7.414 -1.6242  0.1173  1.4319
 2402TIP3    H231402   1.986   0.824   7.267  1.9661  1.1774  0.4234
 2403TIP3   OH231403   6.521   6.092   8.119  0.2217  0.4278 -0.0183
 2403TIP3    H131404   6.449   6.141   8.159 -0.4765 -0.5863  0.0080
 2403TIP3    H231405   6.529   6.127   8.031 -1.4176 -0.5439 -0.5928
 2404TIP3   OH231406   1.153   3.747   6.486 -0.3580  0.5365  0.1511
 2404TIP3    H131407   1.225   3.728   6.547 -0.5392 -0.9597 -0.0670
 2404TIP3    H231408   1.186   3.718   6.401 -0.6979  1.1721 -0.2031
 2405TIP3   OH231409   1.288   6.321   7.438 -0.2816  0.6548 -0.0944
 2405TIP3    H131410   1.317   6.291   7.352  0.2161  1.4673 -0.2175
 2405TIP3    H231411   1.343   6.273   7.500 -1.3704 -0.7619 -0.1475
 2406TIP3   OH231412   6.345   4.780   8.189  0.1231 -0.3122 -0.1185
 2406TIP3    H131413   6.408   4.712   8.164  0.8676 -0.0389  0.9456
 2406TIP3    H231414   6.279   4.778   8.119  0.8082 -1.2452 -0.7721
 2407TIP3   OH231415   5.031   1.632   7.709  0.7900 -0.1682 -0.0881
 2407TIP3    H131416   4.974   1.652   7.635 -0.0421 -1.6228  0.1160
 2407TIP3    H231417   5.043   1.715   7.754 -0.4603  0.3258 -0.6436
 2408TIP3   OH231418   3.839   7.349   8.856  0.0720  0.0533 -0.3032
 2408TIP3    H131419   3.928   7.333   8.827  0.2117  0.9289 -0.4035
 2408TIP3    H231420   3.792   7.375   8.776  0.4649  2.5104  0.1976
 2409TIP3   OH231421   4.673   0.442   9.037  0.0946 -0.1584 -0.1223
 2409TIP3    H131422   4.759   0.484   9.038 -0.5295  1.2895 -1.7630
 2409TIP3    H231423   4.693   0.348   9.041  1.6814  0.1624  0.5504
 2410TIP3   OH231424   6.699   6.839   7.307 -0.3034  0.7322  0.4949
 2410TIP3    H131425   6.626   6.892   7.338 -0.4096  0.7506  0.2149
 2410TIP3    H231426   6.660   6.778   7.244 -0.0773  0.7625  0.3231
 2411TIP3   OH231427   1.652   1.371   6.759  0.0893  0.4497  0.0935
 2411TIP3    H131428   1.719   1.382   6.692  0.1771  0.7527  0.2246
 2411TIP3    H231429   1.687   1.418   6.835  0.1197 -0.1281  0.4382
 2412TIP3   OH231430   0.673   6.687   9.372 -0.2049 -0.1038 -0.7505
 2412TIP3    H131431   0.637   6.773   9.393  0.1794 -0.2480  0.6459
 2412TIP3    H231432   0.716   6.699   9.287 -0.6627  0.9208 -0.8542
 2413TIP3   OH231433   1.956   3.010   7.811 -0.1224  0.4633  0.0101
 2413TIP3    H131434   1.901   3.075   7.854  3.4685  3.8299  0.0863
 2413TIP3    H231435   1.994   2.959   7.883 -1.7723 -0.8045  0.0392
 2414TIP3   OH231436   3.643   5.485   7.494 -0.2126 -0.5971  0.4177
 2414TIP3    H131437   3.574   5.521   7.437 -0.3934 -0.0826  0.9527
 2414TIP3    H231438   3.622   5.519   7.581 -0.4778 -2.1337  0.9720
 2415TIP3   OH231439   3.110   7.061   8.590  0.6352  0.0192  0.3642
 2415TIP3    H131440   3.087   6.976   8.629  1.0715 -0.2172  0.1170
 2415TIP3    H231441   3.206   7.059   8.583  0.5540 -0.0104 -0.8703
 2416TIP3   OH231442   2.708   5.686   7.668  0.3878  0.4651  0.1639
 2416TIP3    H131443   2.747   5.611   7.713 -0.3701  0.2742  0.5103
 2416TIP3    H231444   2.782   5.728   7.624  1.3773  1.2782  2.4471
 2417TIP3   OH231445   3.347   3.640   7.800 -0.0741 -0.0142  0.3282
 2417TIP3    H131446   3.401   3.658   7.722 -1.7956 -0.6994 -1.0776
 2417TIP3    H231447   3.327   3.727   7.835 -0.7099  0.4204 -1.0346
 2418TIP3   OH231448   4.406   0.510   8.295 -0.1520 -0.2899  0.4295
 2418TIP3    H131449   4.465   0.448   8.337  0.1413 -0.0262  0.4101
 2418TIP3    H231450   4.442   0.522   8.207  0.7455  1.1524  0.9568
 2419TIP3   OH231451   4.681   5.794   7.993 -1.0635  0.1333  0.2754
 2419TIP3    H131452   4.759   5.849   7.981  0.6117 -1.5040  2.6505
 2419TIP3    H231453   4.641   5.790   7.906  0.2814  2.7340 -0.5946
 2420TIP3   OH231454   0.800   4.841   6.678  0.5367  0.0732  0.5929
 2420TIP3    H131455   0.780   4.836   6.585  2.0129 -0.8961  0.3005
 2420TIP3    H231456   0.832   4.931   6.691  0.5675  0.1326  0.1118
 2421TIP3   OH231457   3.412   7.182   6.709 -0.3802  0.2892 -0.0078
 2421TIP3    H131458   3.360   7.180   6.628 -0.4334  0.6607  0.0177
 2421TIP3    H231459   3.500   7.208   6.680 -0.3801  0.3454  0.0438
 2422TIP3   OH231460   3.671   6.441   7.541 -0.0968  0.2861 -0.3280
 2422TIP3    H131461   3.695   6.348   7.544 -0.4511  0.1156 -1.8870
 2422TIP3    H231462   3.726   6.482   7.608  1.5123 -0.7266 -0.9669
 2423TIP3   OH231463   1.322   1.247   8.716 -0.0063 -0.3359  0.4834
 2423TIP3    H131464   1.412   1.266   8.742  0.2578 -0.9898  0.0806
 2423TIP3    H231465   1.299   1.318   8.657  0.8285 -0.9983 -0.6956
 2424TIP3   OH231466   0.008   0.689   6.485 -0.0723 -0.0774 -0.2761
 2424TIP3    H131467  -0.081   0.720   6.473 -0.2469 -0.4535 -0.0002
 2424TIP3    H231468   0.058   0.767   6.510 -0.3161  0.1410 -0.4688
 2425TIP3   OH231469   0.502   6.985   7.834  0.3854 -0.0465 -0.0478
 2425TIP3    H131470   0.559   6.918   7.870  0.1416  0.9223  2.3267
 2425TIP3    H231471   0.505   7.057   7.897 -4.0286 -0.2078  0.7196
 2426TIP3   OH231472   7.506   6.322   7.614 -0.3205 -0.3686 -0.9056
 2426TIP3    H131473   7.497   6.417   7.613 -4.2059 -0.4255  2.6969
 2426TIP3    H231474   7.443   6.291   7.548  0.7664 -0.5465 -1.9032
 2427TIP3   OH231475   3.510   6.515   8.385 -0.8985  0.4890  0.3099
 2427TIP3    H131476   3.420   6.485   8.380 -0.8684  0.4556 -0.0961
 2427TIP3    H231477   3.558   6.441   8.422 -0.9405  0.2863 -0.0332
 2428TIP3   OH231478   6.424   2.633   8.503 -0.2616  0.3551  0.9212
 2428TIP3    H131479   6.369   2.692   8.450 -0.8969  0.0486  1.2230
 2428TIP3    H231480   6.507   2.679   8.511  0.1857  0.0119 -1.1177
 2429TIP3   OH231481   2.881   4.848   8.877  0.3368  0.0980 -0.0257
 2429TIP3    H131482   2.860   4.830   8.968  0.2721  1.0182  0.1442
 2429TIP3    H231483   2.976   4.859   8.876  0.4576 -0.8494 -0.2424
 2430TIP3   OH231484   3.457   5.282   8.603  0.1696  0.2658  0.0346
 2430TIP3    H131485   3.396   5.209   8.612 -0.1139 -0.2894 -4.2311
 2430TIP3    H231486   3.542   5.245   8.624 -0.1958 -0.7457 -0.2290
 2431TIP3   OH231487   3.985   7.224   9.408 -0.5312  0.2343 -0.0577
 2431TIP3    H131488   3.932   7.268   9.342 -1.5078 -0.6355  0.1302
 2431TIP3    H231489   3.955   7.261   9.492  1.5477  2.2525 -0.0879
 2432TIP3   OH231490   7.677   1.479   7.594 -0.6980 -0.0431  0.3526
 2432TIP3    H131491   7.648   1.530   7.670 -0.4185 -1.0763  1.1800
 2432TIP3    H231492   7.732   1.410   7.631  0.4044  0.1227 -0.9140
 2433TIP3   OH231493   4.219   2.035   8.645  0.3733 -0.0351 -0.4129
 2433TIP3    H131494   4.273   2.057   8.721  0.1639  0.3396 -0.3728
 2433TIP3    H231495   4.215   2.115   8.593  2.5384 -0.9074 -2.0890
 2434TIP3   OH231496   6.870   1.792   7.350 -0.2886  0.0334  0.3807
 2434TIP3    H131497   6.804   1.860   7.335 -0.4463 -0.3477 -0.7724
 2434TIP3    H231498   6.820   1.711   7.353 -0.1692 -0.0277  2.3124
 2435TIP3   OH231499   4.839   0.516   8.035 -0.4958  0.5828 -0.5203
 2435TIP3    H131500   4.877   0.529   7.948  2.6075  0.0725  0.6277
 2435TIP3    H231501   4.906   0.548   8.095 -0.3701 -3.4404  1.8142
 2436TIP3   OH231502   3.634   2.605   7.281  0.1621  0.0122 -0.0245
 2436TIP3    H131503   3.715   2.583   7.327 -0.7383 -1.5548  0.9116
 2436TIP3    H231504   3.651   2.582   7.190  1.8310  2.7657 -0.5550
 2437TIP3   OH231505   3.659   7.264   6.609 -0.7670  0.0599  0.1148
 2437TIP3    H131506   3.721   7.230   6.544  0.1208  0.8154  0.5494
 2437TIP3    H231507   3.693   7.351   6.632 -0.8864 -0.3119  1.8191
 2438TIP3   OH231508   5.460   1.902   7.351  0.7499  0.2078 -0.4099
 2438TIP3    H131509   5.432   1.974   7.408  1.5498  0.1876  0.0238
 2438TIP3    H231510   5.394   1.899   7.282 -0.4663 -0.0227  0.7247
 2439TIP3   OH231511   5.994   6.600   8.966 -0.7189 -0.2104  0.1963
 2439TIP3    H131512   5.941   6.662   8.916  1.0296  1.1298 -0.1079
 2439TIP3    H231513   5.931   6.537   9.001 -2.3083  0.4113 -1.3843
 2440TIP3   OH231514   4.194   0.014   9.047 -0.0973  0.1830 -0.6891
 2440TIP3    H131515   4.228  -0.051   9.108 -0.7278  0.2514 -0.2406
 2440TIP3    H231516   4.232   0.097   9.077 -1.1737  0.3686  0.2577
 2441TIP3   OH231517   3.178   5.455   8.044  0.2600 -0.1889  0.2173
 2441TIP3    H131518   3.152   5.408   8.123 -0.1102  1.1098  0.8947
 2441TIP3    H231519   3.176   5.548   8.069  1.8277  0.1729 -0.8122
 2442TIP3   OH231520   4.731   6.247   7.112 -0.5322  0.4804 -0.7417
 2442TIP3    H131521   4.813   6.197   7.110 -0.0230  1.1893  0.7015
 2442TIP3    H231522   4.679   6.211   7.040  0.6782 -0.6123 -1.1126
 2443TIP3   OH231523   1.175   2.632   9.082 -0.2439  0.3763  0.1925
 2443TIP3    H131524   1.231   2.626   9.159 -0.1560  0.3633  0.1288
 2443TIP3    H231525   1.103   2.689   9.108 -0.3063  0.2296  0.3389
 2444TIP3   OH231526   2.140   0.771   9.186 -0.3975 -0.1817  0.0059
 2444TIP3    H131527   2.141   0.824   9.266 -1.7082 -0.6290  0.3339
 2444TIP3    H231528   2.068   0.806   9.134  0.4940  0.1581 -1.0444
 2445TIP3   OH231529   7.046   3.001   7.859  0.1248  0.5026  0.1870
 2445TIP3    H131530   7.117   2.985   7.796  1.9309  1.0556  1.9860
 2445TIP3    H231531   7.035   3.096   7.860  2.7522  0.9454  3.2730
 2446TIP3   OH231532   3.231   3.073   9.075 -0.5896  0.0057  0.0910
 2446TIP3    H131533   3.226   3.032   8.989  0.8235 -1.6149  0.7317
 2446TIP3    H231534   3.312   3.124   9.073 -0.8462  0.4297  0.2768
 2447TIP3   OH231535   2.033   2.394   9.204 -0.4174  0.1816  0.0693
 2447TIP3    H131536   2.115   2.350   9.182 -0.5988 -2.1146  3.2275
 2447TIP3    H231537   2.061   2.477   9.243  0.4008 -0.1539  0.2418
 2448TIP3   OH231538   7.240   7.623   6.779  0.2521 -0.0576 -0.4724
 2448TIP3    H131539   7.255   7.567   6.703  0.8837 -2.0134  1.0202
 2448TIP3    H231540   7.263   7.711   6.748  1.8003 -0.9750 -2.1554
 2449TIP3   OH231541   1.134   3.185   8.466 -0.3893  0.0835 -0.1712
 2449TIP3    H131542   1.075   3.133   8.411 -1.1939  0.8226 -0.0468
 2449TIP3    H231543   1.079   3.258   8.497  0.5895  0.7839 -0.0272
 2450TIP3   OH231544   3.632   1.677   8.982 -0.6043  0.3734  0.2646
 2450TIP3    H131545   3.606   1.761   8.943  2.9450  0.6961 -1.8996
 2450TIP3    H231546   3.610   1.686   9.075 -0.9518  3.4670 -0.0057
 2451TIP3   OH231547   0.851   5.196   9.047 -0.5872 -0.0857  0.9418
 2451TIP3    H131548   0.910   5.173   8.975 -1.2722  0.7298  0.1108
 2451TIP3    H231549   0.909   5.203   9.123  0.0980 -1.3153  0.5666
 2452TIP3   OH231550   5.902   1.652   7.920 -0.2774 -0.2478 -0.0252
 2452TIP3    H131551   5.944   1.598   7.988  0.6661 -0.5454 -0.8116
 2452TIP3    H231552   5.911   1.742   7.951  0.2490 -0.3724  0.1969
 2453TIP3   OH231553   3.176   6.873   7.853  0.3885 -0.5220  0.2793
 2453TIP3    H131554   3.114   6.943   7.832 -0.7682 -2.4348 -3.8731
 2453TIP3    H231555   3.131   6.821   7.919 -0.7473  0.2351  0.1460
 2454TIP3   OH231556   6.389   2.046   8.691  0.2604 -0.5868 -0.3351
 2454TIP3    H131557   6.467   2.067   8.744  0.4193 -0.9686 -0.4135
 2454TIP3    H231558   6.327   2.009   8.754 -0.3516  0.8858 -0.0329
 2455TIP3   OH231559   6.724   6.378   7.675  0.4932 -0.1696 -0.4838
 2455TIP3    H131560   6.794   6.343   7.730  0.0767 -1.4239 -0.7328
 2455TIP3    H231561   6.768   6.406   7.595  0.9616  0.7669  0.0876
 2456TIP3   OH231562   0.668   6.678   8.326 -0.7644 -0.3041 -0.0581
 2456TIP3    H131563   0.706   6.591   8.343  0.0002 -0.0064 -0.2051
 2456TIP3    H231564   0.605   6.691   8.397 -0.6525 -0.8431  0.1444
 2457TIP3   OH231565   2.053   2.420   7.332  0.4176 -0.1709  0.3936
 2457TIP3    H131566   2.136   2.418   7.379 -0.2196  1.0877  1.6873
 2457TIP3    H231567   2.029   2.513   7.330 -0.7237 -0.4570 -0.3744
 2458TIP3   OH231568   3.393   0.292   8.623 -0.2767  0.2065  0.1506
 2458TIP3    H131569   3.394   0.308   8.717 -0.1305 -0.4683  0.2740
 2458TIP3    H231570   3.383   0.378   8.583  0.4340  0.5806  0.7621
 2459TIP3   OH231571   0.693   7.455   8.857  0.1875 -0.2695  0.3617
 2459TIP3    H131572   0.604   7.439   8.887 -0.3254  0.0407 -0.9185
 2459TIP3    H231573   0.749   7.432   8.931 -0.7028 -4.1078  0.0503
 2460TIP3   OH231574   1.959   3.356   8.911 -0.2052  0.1218 -0.4835
 2460TIP3    H131575   2.029   3.292   8.901 -0.7579 -0.9831  1.9139
 2460TIP3    H231576   1.888   3.308   8.954 -1.4310  1.8530 -0.4434
 2461TIP3   OH231577   3.109   5.690   8.179  0.4661  0.1666  0.1960
 2461TIP3    H131578   3.038   5.733   8.132 -1.2211 -2.9115 -0.3859
 2461TIP3    H231579   3.091   5.708   8.272  1.0798  2.3527 -0.0546
 2462TIP3   OH231580   4.781   6.915   8.753  0.2240  0.1685  0.0080
 2462TIP3    H131581   4.689   6.935   8.772  0.5578  1.9647 -0.0851
 2462TIP3    H231582   4.777   6.850   8.683 -0.9640 -1.8797  1.8478
 2463TIP3   OH231583   5.344   6.688   6.877 -0.2683  0.0098 -0.0895
 2463TIP3    H131584   5.282   6.760   6.891  0.4231  0.5014  0.5392
 2463TIP3    H231585   5.404   6.721   6.810  0.3845  0.2502  0.5985
 2464TIP3   OH231586   1.389   1.563   9.338  1.3148 -0.0267  0.8212
 2464TIP3    H131587   1.307   1.552   9.385  0.1611 -1.6166 -1.3767
 2464TIP3    H231588   1.373   1.635   9.277  0.6092 -1.8748 -1.3028
 2465TIP3   OH231589   2.488   6.719   9.469  0.2063  0.6476  0.0336
 2465TIP3    H131590   2.454   6.809   9.469  0.2765  0.6739 -0.0609
 2465TIP3    H231591   2.478   6.690   9.378 -2.1064 -0.2961  0.5015
 2466TIP3   OH231592   5.653   6.682   9.184 -0.3045 -0.5706  0.0111
 2466TIP3    H131593   5.679   6.595   9.213 -1.1250 -0.7728  0.1675
 2466TIP3    H231594   5.705   6.742   9.238  0.8165 -0.9427 -0.6086
 2467TIP3   OH231595   6.066   5.096   8.289  0.2679 -0.4421  0.1670
 2467TIP3    H131596   6.138   5.049   8.330 -1.0597 -2.1899  0.6012
 2467TIP3    H231597   6.058   5.057   8.202 -0.4815 -0.6329  0.3136
 2468TIP3   OH231598   4.597   6.469   8.616  0.6414 -0.2421  0.1048
 2468TIP3    H131599   4.559   6.515   8.692  0.3741  0.6249 -0.5361
 2468TIP3    H231600   4.533   6.401   8.595  0.9108 -0.7609  0.8983
 2469TIP3   OH231601   6.337   3.297   7.942  0.2707  0.1982 -0.0036
 2469TIP3    H131602   6.379   3.300   7.856  0.3596 -0.7115 -0.0010
 2469TIP3    H231603   6.244   3.314   7.923  0.1979 -0.5652 -0.3540
 2470TIP3   OH231604   6.353   1.908   7.191 -0.1397  0.4389  0.3045
 2470TIP3    H131605   6.322   1.954   7.113 -1.4813  3.1338  2.2749
 2470TIP3    H231606   6.413   1.970   7.233 -1.1825  0.0225  2.5454
 2471TIP3   OH231607   3.349   2.334   9.257  0.5516 -0.9656 -0.1657
 2471TIP3    H131608   3.327   2.257   9.310  0.6855 -0.2711  0.9172
 2471TIP3    H231609   3.322   2.310   9.168 -2.6204 -0.9883  0.6940
 2472TIP3   OH231610   6.407   5.723   7.810  0.2101  0.3629  0.6209
 2472TIP3    H131611   6.454   5.769   7.879 -0.2304  1.0149  0.4979
 2472TIP3    H231612   6.381   5.640   7.849 -0.9273  1.1466  1.5805
 2473TIP3   OH231613   2.837   3.254   8.285  0.1902  0.5516 -0.0919
 2473TIP3    H131614   2.889   3.233   8.362 -0.7511 -2.1577 -0.0867
 2473TIP3    H231615   2.776   3.322   8.314 -0.5141 -0.7950  1.7583
 2474TIP3   OH231616   5.572   3.877   8.797 -0.2699  0.1963  0.0965
 2474TIP3    H131617   5.660   3.911   8.785  0.3653 -0.7673  1.6028
 2474TIP3    H231618   5.563   3.868   8.892 -2.0478  0.3848 -0.0190
 2475TIP3   OH231619   3.235   7.406   8.206  0.6922  0.8083 -0.2689
 2475TIP3    H131620   3.230   7.478   8.143  1.1989  1.0057 -0.0805
 2475TIP3    H231621   3.312   7.425   8.259 -0.6289  1.5056  1.4840
 2476TIP3   OH231622   0.044   7.284   7.844  0.0878  0.2530 -0.0023
 2476TIP3    H131623   0.063   7.213   7.783  0.5573  0.3541  0.0250
 2476TIP3    H231624  -0.038   7.257   7.887 -0.2937  0.2241 -0.7319
 2477TIP3   OH231625   2.606   2.099   8.372 -0.6158  0.2696 -0.0658
 2477TIP3    H131626   2.551   2.162   8.325 -0.6705  1.3507  1.3605
 2477TIP3    H231627   2.606   2.131   8.462  0.8587 -0.7583  0.3325
 2478TIP3   OH231628   1.745   7.579   9.005 -0.0157  0.5586 -0.2891
 2478TIP3    H131629   1.678   7.591   8.938  0.8033 -0.2547 -1.2961
 2478TIP3    H231630   1.789   7.664   9.011  0.3822  0.4392 -1.3357
 2479TIP3   OH231631   1.400   4.016   7.684 -0.0960 -0.3509  0.1671
 2479TIP3    H131632   1.398   4.035   7.777  0.3635  0.7546 -0.0305
 2479TIP3    H231633   1.321   3.964   7.668  0.2717 -1.2996  1.3068
 2480TIP3   OH231634   5.640   2.908   8.552  0.2674 -0.4340  0.1113
 2480TIP3    H131635   5.696   2.840   8.589  0.4659 -1.1261 -1.4129
 2480TIP3    H231636   5.587   2.863   8.486 -0.1189  0.7552 -0.4195
 2481TIP3   OH231637   4.115   7.263   8.302  0.0287 -0.2732 -0.3905
 2481TIP3    H131638   4.094   7.176   8.271  1.5853 -0.6390 -0.5313
 2481TIP3    H231639   4.055   7.321   8.255 -1.2641 -1.2833 -0.0210
 2482TIP3   OH231640   0.888   3.796   8.389  0.9127  0.8677  0.0222
 2482TIP3    H131641   0.939   3.846   8.453 -0.7296  0.9546  1.3090
 2482TIP3    H231642   0.805   3.778   8.432  0.3219 -0.4052 -1.5385
 2483TIP3   OH231643   1.022   5.489   8.176 -0.5498  0.1460 -0.6029
 2483TIP3    H131644   0.979   5.404   8.171  0.2136 -0.2216 -1.1650
 2483TIP3    H231645   0.958   5.551   8.142 -2.1318  0.2296  2.1757
 2484TIP3   OH231646   7.335   0.829   7.924 -0.9325  0.4538  0.2078
 2484TIP3    H131647   7.410   0.807   7.868 -0.4375 -0.3701  1.1468
 2484TIP3    H231648   7.284   0.891   7.873  0.3590  0.9856 -0.4908
 2485TIP3   OH231649   2.448   2.341   6.893  0.7752  0.1702  0.2991
 2485TIP3    H131650   2.416   2.430   6.909 -1.4107 -0.6255  0.6636
 2485TIP3    H231651   2.543   2.348   6.904  0.4487  1.9398  2.9023
 2486TIP3   OH231652   7.180   4.783   9.091 -0.8667 -0.6867 -0.2273
 2486TIP3    H131653   7.161   4.877   9.100 -2.0093 -0.9129 -0.1250
 2486TIP3    H231654   7.276   4.779   9.087 -0.5952  0.2354  2.6604
 2487TIP3   OH231655   5.487   4.268   8.351  0.1080  0.1962  0.5776
 2487TIP3    H131656   5.503   4.361   8.334  1.3104 -0.2962 -1.1869
 2487TIP3    H231657   5.448   4.267   8.439  1.0945  2.2607  1.1073
 2488TIP3   OH231658   2.361   0.253   7.209 -0.3950  0.0852  0.0759
 2488TIP3    H131659   2.352   0.183   7.144  0.2687 -1.1836  1.2972
 2488TIP3    H231660   2.288   0.239   7.270 -0.3867  0.6068  0.2168
 2489TIP3   OH231661   3.307   0.809   8.539  0.3231 -0.1651 -0.6576
 2489TIP3    H131662   3.211   0.804   8.539  0.3121  0.0075  0.4260
 2489TIP3    H231663   3.326   0.898   8.509  0.1143  0.1482  0.1144
 2490TIP3   OH231664   5.884   3.430   8.881  0.5588  0.4190  0.2228
 2490TIP3    H131665   5.852   3.386   8.960 -1.9710 -0.3085 -1.1067
 2490TIP3    H231666   5.812   3.486   8.854  1.3959  0.6853 -1.5832
 2491TIP3   OH231667   4.989   1.082   7.260 -0.2037  0.5544 -0.6480
 2491TIP3    H131668   4.972   1.153   7.323 -1.6099  0.9014 -1.3854
 2491TIP3    H231669   5.026   1.127   7.183  0.0021  0.3316 -0.6805
 2492TIP3   OH231670   6.351   0.441   9.258 -0.0465  0.0205 -0.3270
 2492TIP3    H131671   6.434   0.412   9.296 -0.0247  0.5822  0.0635
 2492TIP3    H231672   6.336   0.381   9.185  1.5083  0.8765 -1.4231
 2493TIP3   OH231673   1.682   5.994   7.302  0.0939 -0.7198  0.3746
 2493TIP3    H131674   1.610   6.033   7.254 -0.4114 -1.9886  0.0558
 2493TIP3    H231675   1.641   5.928   7.358  0.5404  1.3129  3.3221
 2494TIP3   OH231676   4.642   1.876   8.364 -0.3173  0.5345 -0.1664
 2494TIP3    H131677   4.601   1.867   8.278  1.0473 -0.7694 -0.7247
 2494TIP3    H231678   4.618   1.796   8.411 -0.9661  1.1894  0.6523
 2495TIP3   OH231679   4.944   7.404   8.836  0.8476 -0.2320 -0.2027
 2495TIP3    H131680   5.037   7.398   8.813  0.5845 -2.4735 -0.9097
 2495TIP3    H231681   4.910   7.316   8.821 -1.3826  0.5068  0.1792
 2496TIP3   OH231682   3.213   1.360   8.486  0.3643 -0.1393 -0.3906
 2496TIP3    H131683   3.222   1.455   8.497 -0.4668 -0.0108 -0.7666
 2496TIP3    H231684   3.165   1.350   8.403  0.9526 -0.9049 -0.6484
 2497TIP3   OH231685   3.739   2.180   8.004  0.3150  0.9912 -0.1544
 2497TIP3    H131686   3.762   2.260   7.958 -0.1608  2.5910  2.1982
 2497TIP3    H231687   3.808   2.168   8.068 -1.4858  1.7747  2.0898
 2498TIP3   OH231688   3.674   2.552   8.318  0.2773 -0.2700 -0.1124
 2498TIP3    H131689   3.583   2.550   8.291  0.2659 -2.4723 -0.1483
 2498TIP3    H231690   3.723   2.528   8.239  0.7028 -1.0013  0.3544
 2499TIP3   OH231691   4.586   3.362   8.739  0.2961  0.1678 -0.1643
 2499TIP3    H131692   4.491   3.360   8.734  0.2679 -0.5690  0.4571
 2499TIP3    H231693   4.615   3.337   8.651 -0.0817  0.4033 -0.3568
 2500TIP3   OH231694   5.900   0.997   9.263  0.0499  0.0118 -0.2642
 2500TIP3    H131695   5.869   0.915   9.302 -0.1041  0.6421  0.9965
 2500TIP3    H231696   5.977   0.972   9.212 -0.1343 -0.9470 -0.0891
 2501TIP3   OH231697   3.722   3.601   7.352 -0.0180  0.3289 -0.1917
 2501TIP3    H131698   3.802   3.622   7.305 -0.3372  0.0653 -0.8676
 2501TIP3    H231699   3.700   3.512   7.323  0.0272 -0.0156  0.8048
 2502TIP3   OH231700   4.080   0.082   8.504  0.1550  0.2728  0.3985
 2502TIP3    H131701   4.037   0.003   8.539  0.0596  0.3589  0.4760
 2502TIP3    H231702   4.121   0.123   8.580 -0.4536  0.7144  0.4996
 2503TIP3   OH231703   5.217   5.135   7.986  0.0507  0.4274 -0.0861
 2503TIP3    H131704   5.273   5.060   8.002 -0.6574  0.1437  1.1588
 2503TIP3    H231705   5.163   5.109   7.911  1.7980  0.8594 -1.5597
 2504TIP3   OH231706   1.251   4.665   8.935 -0.5617  0.3069  0.4295
 2504TIP3    H131707   1.220   4.578   8.910 -0.3402  0.1164  0.8069
 2504TIP3    H231708   1.340   4.651   8.965 -0.1116  0.8472 -0.6136
 2505TIP3   OH231709   4.306   7.004   9.435  0.4606  0.7520  0.3021
 2505TIP3    H131710   4.397   6.994   9.461  0.1483  0.0636  1.1829
 2505TIP3    H231711   4.298   7.097   9.410  1.5158  0.6922 -0.3352
 2506TIP3   OH231712   2.813   4.108   7.921 -0.3192 -0.2239  0.1488
 2506TIP3    H131713   2.847   4.039   7.864  3.3733  1.3599  0.1401
 2506TIP3    H231714   2.751   4.156   7.867  1.1321 -0.3345 -1.7028
 2507TIP3   OH231715   3.148   7.595   8.029  0.4532 -0.1379  0.1080
 2507TIP3    H131716   3.064   7.555   8.006  0.8214 -0.4618 -0.7208
 2507TIP3    H231717   3.198   7.595   7.947  0.2979  2.4862 -0.0545
 2508TIP3   OH231718   5.956   0.728   9.269 -0.0657  0.0488  0.4059
 2508TIP3    H131719   6.028   0.700   9.213 -1.5441 -0.9144 -1.1434
 2508TIP3    H231720   5.934   0.651   9.322  0.7455  0.6850  1.7050
 2509TIP3   OH231721   3.662   2.118   8.325 -0.1032  0.3970  0.7727
 2509TIP3    H131722   3.746   2.152   8.294 -0.1783  1.5238  1.7638
 2509TIP3    H231723   3.596   2.160   8.270 -0.0208 -1.0389 -0.4965
 2510TIP3   OH231724   4.492   1.660   6.686 -0.0861 -0.2824  0.0332
 2510TIP3    H131725   4.551   1.616   6.624 -2.2147 -0.9266 -1.6850
 2510TIP3    H231726   4.445   1.588   6.729 -2.9875  0.0861 -2.1681
 2511TIP3   OH231727   4.927   5.024   8.083 -0.0173  0.0223  0.3116
 2511TIP3    H131728   5.014   5.043   8.118 -0.1047 -0.4473  0.7945
 2511TIP3    H231729   4.941   5.014   7.988 -0.1667  3.8254 -0.2766
 2512TIP3   OH231730   2.071   6.223   8.604  0.6407 -0.6077  0.2467
 2512TIP3    H131731   1.983   6.187   8.597  0.0670  0.3416  2.0930
 2512TIP3    H231732   2.112   6.200   8.520 -1.4058 -0.8829 -0.7613
 2513TIP3   OH231733   6.336   5.456   8.628  0.2073 -0.1995 -0.2204
 2513TIP3    H131734   6.260   5.474   8.684 -0.4870 -2.1723 -0.4523
 2513TIP3    H231735   6.389   5.394   8.679  0.5739 -0.4948 -0.9467
 2514TIP3   OH231736   7.510   2.721   9.336 -0.2167 -0.1454  0.1834
 2514TIP3    H131737   7.526   2.626   9.339  2.4406  0.0582 -2.4561
 2514TIP3    H231738   7.584   2.756   9.286  0.3141  3.7210  3.1784
 2515TIP3   OH231739   2.186   3.996   8.495 -0.6989 -0.3964  0.7574
 2515TIP3    H131740   2.246   4.052   8.545 -3.2132  2.9270  0.3931
 2515TIP3    H231741   2.242   3.957   8.427  1.4752  0.5526  1.8830
 2516TIP3   OH231742   1.007   6.954   8.859 -0.2080  0.1907  0.3414
 2516TIP3    H131743   1.053   7.000   8.929 -0.1140  0.5008  0.0789
 2516TIP3    H231744   0.915   6.953   8.888 -0.1922  0.4441  0.4070
 2517TIP3   OH231745   7.247   7.517   7.543 -0.0468  0.2702  0.2952
 2517TIP3    H131746   7.335   7.554   7.539 -0.2167  0.7896  1.1856
 2517TIP3    H231747   7.208   7.555   7.622 -1.0883  0.0837 -0.1149
 2518TIP3   OH231748   0.516   4.659   9.363 -0.2778 -0.0993 -0.0940
 2518TIP3    H131749   0.457   4.684   9.434  0.7304  0.6121  0.5246
 2518TIP3    H231750   0.459   4.644   9.288 -1.4814 -1.8686  1.0957
 2519TIP3   OH231751   7.063   4.619   8.873 -0.3706  0.7330  0.0363
 2519TIP3    H131752   7.064   4.687   8.941 -0.2460  1.5548 -0.7692
 2519TIP3    H231753   7.085   4.665   8.792 -1.5462 -0.0251 -0.7554
 2520TIP3   OH231754   4.338   6.559   6.732  0.3798 -0.1535  0.2918
 2520TIP3    H131755   4.414   6.571   6.788  1.4293  0.2319 -1.1654
 2520TIP3    H231756   4.305   6.472   6.754  0.0438  0.4154  2.2960
 2521TIP3   OH231757   1.698   4.535   8.976 -0.1612 -0.5270  0.0458
 2521TIP3    H131758   1.661   4.451   8.949  0.1257 -0.5099 -0.4191
 2521TIP3    H231759   1.711   4.526   9.070 -1.9865 -0.2741  0.3592
 2522TIP3   OH231760   2.038   6.501   7.467 -0.0203  0.4896  0.5234
 2522TIP3    H131761   2.041   6.593   7.442  1.2852  0.8741  1.9369
 2522TIP3    H231762   2.125   6.467   7.447 -0.1441 -0.1415  1.0186
 2523TIP3   OH231763   2.619   2.695   7.866  0.3229  0.1740  0.3144
 2523TIP3    H131764   2.666   2.623   7.909 -0.5028 -1.2539 -1.0538
 2523TIP3    H231765   2.664   2.705   7.782 -1.1371 -0.4995 -0.5713
 2524TIP3   OH231766   1.783   6.990   9.202  0.0934 -0.7465  0.2573
 2524TIP3    H131767   1.752   7.045   9.273  2.5028  0.2007  0.6622
 2524TIP3    H231768   1.873   7.017   9.187  0.7140 -3.1401 -0.9809
 2525TIP3   OH231769   0.556   6.468   8.171 -0.5516 -0.6049  0.4136
 2525TIP3    H131770   0.601   6.443   8.251  1.4366 -1.8052 -0.9726
 2525TIP3    H231771   0.577   6.560   8.158  2.8642 -1.4140 -0.8680
 2526TIP3   OH231772   0.374   0.288   7.079 -0.5518  0.0908  0.0953
 2526TIP3    H131773   0.453   0.260   7.035 -0.8260  1.5359 -1.4424
 2526TIP3    H231774   0.370   0.383   7.063 -3.2288 -0.1076 -1.0692
 2527TIP3   OH231775   0.787   6.436   8.349 -0.6534  0.0804 -0.1576
 2527TIP3    H131776   0.830   6.386   8.279 -0.0302  0.4034 -0.0128
 2527TIP3    H231777   0.859   6.483   8.392 -0.8918 -0.8424  1.3126
 2528TIP3   OH231778   1.160   4.647   7.989  0.2090 -0.2820 -0.7237
 2528TIP3    H131779   1.231   4.594   8.027  0.3832 -0.2833 -1.0539
 2528TIP3    H231780   1.198   4.685   7.910  0.7574  2.0069  0.5535
 2529TIP3   OH231781   1.474   6.300   8.688  0.4101  0.2637  0.4011
 2529TIP3    H131782   1.505   6.331   8.773 -2.1093  1.2671  1.0389
 2529TIP3    H231783   1.498   6.208   8.686  0.2809  0.1492  2.3341
 2530TIP3   OH231784   7.028   2.948   7.519 -0.3480  0.5107  0.9498
 2530TIP3    H131785   6.992   3.036   7.530  0.9458  1.1203  0.4849
 2530TIP3    H231786   6.961   2.901   7.469 -0.8269  1.3881  0.7429
 2531TIP3   OH231787   4.341   6.005   8.300 -0.4317  0.2075  0.0016
 2531TIP3    H131788   4.414   5.949   8.273  0.1367  1.0063 -0.1356
 2531TIP3    H231789   4.308   5.964   8.381 -0.0058 -0.3039 -0.0815
 2532TIP3   OH231790   7.026   0.003   8.898  0.2015 -0.4602  0.0428
 2532TIP3    H131791   7.070   0.027   8.979  1.2192 -0.2224 -0.5602
 2532TIP3    H231792   6.956  -0.056   8.925 -0.6871  1.0949  1.2811
 2533TIP3   OH231793   0.482   2.210   7.487 -0.5503  0.7139  0.5357
 2533TIP3    H131794   0.424   2.136   7.468  0.7227 -0.0348 -0.7349
 2533TIP3    H231795   0.467   2.271   7.415 -0.9117  1.2532  1.0683
 2534TIP3   OH231796   0.235   0.787   8.637 -0.0754 -0.5940  0.4540
 2534TIP3    H131797   0.146   0.753   8.628  0.0753 -0.6274 -1.1397
 2534TIP3    H231798   0.287   0.712   8.666 -0.2798 -0.9987 -0.2057
 2535TIP3   OH231799   5.262   6.947   8.210  0.2267 -0.1071  0.0260
 2535TIP3    H131800   5.341   6.892   8.207 -0.4564 -1.2147  1.4358
 2535TIP3    H231801   5.227   6.942   8.121  0.9532 -0.8034 -0.2356
 2536TIP3   OH231802   2.481   7.294   7.985  0.3066 -0.3131  0.1823
 2536TIP3    H131803   2.507   7.383   8.008  0.8528 -0.4754  0.1976
 2536TIP3    H231804   2.445   7.302   7.897 -1.6311  0.2832  0.9609
 2537TIP3   OH231805   2.552   6.563   6.730 -0.0557  0.3475 -0.5097
 2537TIP3    H131806   2.466   6.538   6.699 -0.6751  1.9633 -0.1878
 2537TIP3    H231807   2.610   6.495   6.698 -1.3903 -0.5601 -1.0613
 2538TIP3   OH231808   1.592   6.639   8.421  0.0341  0.0855 -0.0533
 2538TIP3    H131809   1.530   6.566   8.422  1.4976 -1.2219 -0.6226
 2538TIP3    H231810   1.537   6.717   8.418 -1.5820 -0.9896  0.1984
 2539TIP3   OH231811   1.555   2.813   8.594 -0.6984  0.1952 -0.2242
 2539TIP3    H131812   1.488   2.832   8.660 -1.6738 -1.0321 -0.8092
 2539TIP3    H231813   1.590   2.898   8.569 -0.9774  0.7478  1.1775
 2540TIP3   OH231814   0.314   5.579   7.657  0.2183  1.0495 -0.0938
 2540TIP3    H131815   0.251   5.585   7.585 -2.0698  0.8864  1.7950
 2540TIP3    H231816   0.270   5.619   7.731  1.6506 -0.6607  1.7869
 2541TIP3   OH231817   4.498   6.623   7.594  0.5213  0.1084  0.6533
 2541TIP3    H131818   4.484   6.716   7.578 -0.5372 -0.0854  0.4215
 2541TIP3    H231819   4.592   6.610   7.578  0.1750  0.5652 -2.1203
 2542TIP3   OH231820   0.758   2.264   7.587  0.3858  0.1027  0.4697
 2542TIP3    H131821   0.780   2.357   7.589 -0.7399  0.4199 -0.5923
 2542TIP3    H231822   0.681   2.258   7.530  0.2913 -1.4536  0.6957
 2543TIP3   OH231823   1.520   2.924   7.063 -0.0669  0.1526  0.1563
 2543TIP3    H131824   1.612   2.933   7.037 -0.0941  0.6241  0.2182
 2543TIP3    H231825   1.523   2.872   7.143  0.0303 -1.1671 -0.6701
 2544TIP3   OH231826   3.072   6.496   8.831 -0.2015  0.2218  0.3249
 2544TIP3    H131827   3.028   6.548   8.764  1.1612  1.5062  0.3734
 2544TIP3    H231828   3.139   6.447   8.783  0.2290  0.5054  0.6390
 2545TIP3   OH231829   0.171   7.297   8.208 -0.2935 -0.1906 -0.2579
 2545TIP3    H131830   0.235   7.314   8.138 -1.0146  1.6020 -0.5303
 2545TIP3    H231831   0.107   7.367   8.199 -1.5862 -1.1888  0.8580
 2546TIP3   OH231832   3.251   0.801   7.127  0.4109  0.7692 -0.6120
 2546TIP3    H131833   3.337   0.771   7.155  0.9866  0.9183 -2.1272
 2546TIP3    H231834   3.269   0.874   7.068 -0.7849  1.2061 -0.4620
 2547TIP3   OH231835   5.180   6.923   7.632  0.1995 -0.4790  0.4615
 2547TIP3    H131836   5.203   6.834   7.658 -2.6111 -1.8098 -1.0971
 2547TIP3    H231837   5.215   6.932   7.543 -0.5483 -0.5046  0.1579
 2548TIP3   OH231838   0.717   0.921   9.908 -0.1946 -0.1189 -0.5885
 2548TIP3    H131839   0.690   0.838   9.868 -1.2315  0.7415 -1.7506
 2548TIP3    H231840   0.635   0.969   9.919  0.5802  1.6180 -1.9845
 2549TIP3   OH231841   0.975   3.237   8.862 -0.3449  0.2092 -0.3252
 2549TIP3    H131842   0.975   3.183   8.783 -1.4668  0.6701 -0.6597
 2549TIP3    H231843   0.968   3.327   8.830 -1.4611  0.3612  0.3152
 2550TIP3   OH231844   7.118   7.655   7.771  0.6479 -0.1051  0.3723
 2550TIP3    H131845   7.039   7.706   7.757 -0.3832 -1.0950  2.2134
 2550TIP3    H231846   7.184   7.718   7.799  0.4495  0.6776 -0.8645
 2551TIP3   OH231847   4.243   4.805   8.738  0.2053  0.3434 -0.6493
 2551TIP3    H131848   4.184   4.814   8.812  1.5072 -1.7015  0.7453
 2551TIP3    H231849   4.307   4.875   8.750  1.6031 -1.1831  1.4347
 2552TIP3   OH231850   2.858   1.815   7.972 -0.0036  0.2855  0.0458
 2552TIP3    H131851   2.854   1.894   8.025 -1.6753 -1.0791  2.1148
 2552TIP3    H231852   2.935   1.768   8.004 -0.2157  0.0976  0.2751
 2553TIP3   OH231853   0.195   1.112   8.441  0.0796 -0.0487 -0.3698
 2553TIP3    H131854   0.226   1.171   8.510  0.3657 -0.0560 -0.4882
 2553TIP3    H231855   0.137   1.050   8.486  0.6131 -0.3277 -0.0494
 2554TIP3   OH231856   0.738   3.424   7.126 -0.2056  0.4582 -0.1975
 2554TIP3    H131857   0.733   3.495   7.063  0.1844  1.2357  0.6274
 2554TIP3    H231858   0.648   3.408   7.153 -0.2254  1.1142  0.1296
 2555TIP3   OH231859   1.614   1.590   7.920  0.2549 -0.3740 -1.3075
 2555TIP3    H131860   1.700   1.625   7.944 -0.3010 -0.4554  0.9712
 2555TIP3    H231861   1.580   1.652   7.856  1.5594  0.2452 -1.4216
 2556TIP3   OH231862   7.471   1.931   7.731  0.3977  0.3569 -0.1090
 2556TIP3    H131863   7.412   1.979   7.789  1.1799  0.2400  0.8063
 2556TIP3    H231864   7.430   1.937   7.645 -2.2052 -1.6914  0.8480
 2557TIP3   OH231865   1.916   3.549   9.151  0.2614 -0.0782  0.3389
 2557TIP3    H131866   1.990   3.489   9.151 -0.0837 -0.6244 -2.1768
 2557TIP3    H231867   1.923   3.596   9.068 -1.8460  0.2585  0.2814
 2558TIP3   OH231868   2.079   1.502   8.413 -0.7395  0.2762  0.0064
 2558TIP3    H131869   2.136   1.450   8.357 -2.0507 -1.1637 -0.0432
 2558TIP3    H231870   2.020   1.548   8.352 -0.9164  0.2167  0.1308
 2559TIP3   OH231871   2.126   3.646   7.205 -0.0321 -0.1055 -0.0416
 2559TIP3    H131872   2.132   3.553   7.229 -0.4136 -0.7774 -2.2932
 2559TIP3    H231873   2.211   3.665   7.164  0.1784  0.6485  0.7321
 2560TIP3   OH231874   2.968   3.951   9.060  0.3042  0.0022  0.2307
 2560TIP3    H131875   3.047   3.975   9.108  0.6231 -1.2845  0.4036
 2560TIP3    H231876   2.933   4.034   9.027  1.7889  0.5861  0.0541
 2561TIP3   OH231877   6.108   0.406   8.719  0.0022  0.1890 -0.0272
 2561TIP3    H131878   6.050   0.483   8.723 -1.2766 -0.7498  0.2742
 2561TIP3    H231879   6.141   0.406   8.629 -0.7656  0.5599 -0.3259
 2562TIP3   OH231880   4.967   0.103   7.835 -0.2769 -0.2410  0.0212
 2562TIP3    H131881   5.018   0.027   7.808 -0.1884 -0.2957  0.3337
 2562TIP3    H231882   4.877   0.082   7.810  0.0914  0.6605 -2.2519
 2563TIP3   OH231883   1.659   5.153   9.432 -0.3346  0.0594  0.3089
 2563TIP3    H131884   1.650   5.108   9.516  0.5671  0.4014  0.6059
 2563TIP3    H231885   1.609   5.100   9.370 -1.8447  0.3418  1.2431
 2564TIP3   OH231886   5.860   4.301   8.282 -0.5381  0.1044 -0.2940
 2564TIP3    H131887   5.849   4.295   8.377  0.7052 -0.2132 -0.1493
 2564TIP3    H231888   5.896   4.215   8.257  2.7171  1.3812 -0.4844
 2565TIP3   OH231889   3.096   7.275   7.339 -0.0836 -0.5584  0.2942
 2565TIP3    H131890   3.008   7.307   7.318 -0.0930  0.8701  2.2164
 2565TIP3    H231891   3.100   7.276   7.435  2.0242 -0.5360  0.2625
 2566TIP3   OH231892   2.022   1.704   8.997 -0.5168  0.6906  0.0851
 2566TIP3    H131893   2.022   1.791   9.036 -0.3064 -0.3711  2.6632
 2566TIP3    H231894   2.019   1.644   9.071  0.4180 -1.5427 -1.5416
 2567TIP3   OH231895   1.577   3.207   7.522 -0.1662  0.3462  0.1212
 2567TIP3    H131896   1.651   3.266   7.507  0.3620 -0.2722  0.2588
 2567TIP3    H231897   1.570   3.156   7.441 -2.0623  2.0950 -0.9401
 2568TIP3   OH231898   5.425   6.392   8.398  0.7190  0.0720  0.3376
 2568TIP3    H131899   5.422   6.360   8.488 -0.8145  0.1032  0.3129
 2568TIP3    H231900   5.351   6.350   8.355  1.2622  0.2911 -0.8408
 2569TIP3   OH231901   3.992   7.487   8.530  0.3634 -0.0888 -0.6745
 2569TIP3    H131902   3.906   7.513   8.496 -0.0882 -0.9787 -0.2493
 2569TIP3    H231903   3.992   7.392   8.525  1.1977 -0.1151 -0.3463
 2570TIP3   OH231904   3.240   5.567   7.559 -0.1465  0.3580  0.7411
 2570TIP3    H131905   3.290   5.557   7.478 -1.3191 -0.8073  0.1275
 2570TIP3    H231906   3.287   5.512   7.622  0.5260  0.9280  0.7481
 2571TIP3   OH231907   4.618   2.125   9.629 -0.1224 -0.1627 -0.4610
 2571TIP3    H131908   4.530   2.163   9.622 -0.5601 -1.1346 -0.3691
 2571TIP3    H231909   4.660   2.174   9.699 -0.5344  0.4201 -0.6162
 2572TIP3   OH231910   4.387   0.823   8.811  0.3476 -0.0273 -0.0988
 2572TIP3    H131911   4.449   0.767   8.858  1.5208  0.2098 -1.3067
 2572TIP3    H231912   4.442   0.884   8.762 -0.8860  1.1036 -0.1222
 2573TIP3   OH231913   7.415   5.558   8.963  0.7692  0.2127 -0.3192
 2573TIP3    H131914   7.469   5.636   8.949  0.0460  0.8046  0.1121
 2573TIP3    H231915   7.470   5.499   9.014  0.9150  0.9207  0.3540
 2574TIP3   OH231916   5.050   0.455   9.399 -0.1232  0.0014  0.1353
 2574TIP3    H131917   5.032   0.484   9.309  1.0219 -1.4952 -0.6377
 2574TIP3    H231918   5.001   0.373   9.407 -0.2549  0.1547  0.8915
 2575TIP3   OH231919   4.981   4.688   6.602 -0.5340 -0.1178 -0.0961
 2575TIP3    H131920   4.914   4.748   6.633 -0.7856  0.1003 -1.0402
 2575TIP3    H231921   4.940   4.601   6.605 -1.1831  0.1044 -1.4668
 2576TIP3   OH231922   5.514   2.503   8.128 -0.2725  0.0294  0.5710
 2576TIP3    H131923   5.422   2.529   8.130 -0.9857 -2.0599 -0.7317
 2576TIP3    H231924   5.563   2.585   8.127 -2.2399  1.3004 -1.5714
 2577TIP3   OH231925   4.927   7.329   7.559 -0.6218  0.0746  0.1573
 2577TIP3    H131926   4.840   7.325   7.600 -0.8909 -2.1744 -0.4903
 2577TIP3    H231927   4.987   7.299   7.628 -0.6260 -0.2191  0.0380
 2578TIP3   OH231928   1.026   3.426   8.517 -0.3022  0.3797 -0.1239
 2578TIP3    H131929   0.948   3.460   8.561  1.6856  3.1643  1.5359
 2578TIP3    H231930   1.031   3.475   8.435 -1.1878 -1.0797 -1.0899
 2579TIP3   OH231931   3.935   2.226   9.452 -0.0959  0.0873  0.6652
 2579TIP3    H131932   3.990   2.230   9.530 -1.1280 -3.0302  1.7229
 2579TIP3    H231933   3.993   2.191   9.384  0.2600  0.7437  0.6295
 2580TIP3   OH231934   1.015   6.910   8.423  0.5638  0.0898  0.6697
 2580TIP3    H131935   0.928   6.886   8.391  0.9761 -0.3329 -0.1523
 2580TIP3    H231936   1.030   6.998   8.387  1.4722 -0.8036 -1.2917
 2581TIP3   OH231937   7.059   7.362   7.747  0.7324 -0.0069 -0.6739
 2581TIP3    H131938   7.073   7.455   7.762  0.1225  0.0236 -0.2869
 2581TIP3    H231939   7.140   7.320   7.775  0.8223  0.3613 -0.3885
 2582TIP3   OH231940   0.970   4.616   9.097  0.4600  0.0257  0.0339
 2582TIP3    H131941   0.878   4.635   9.077  0.9367  0.9448 -1.4244
 2582TIP3    H231942   1.005   4.700   9.128  1.1511  0.0738 -0.8359
 2583TIP3   OH231943   4.437   1.440   7.994  0.6344  0.4105 -0.3440
 2583TIP3    H131944   4.497   1.514   8.004  1.1937 -0.0327 -0.3889
 2583TIP3    H231945   4.494   1.365   7.978  0.1497 -0.2457  0.8789
 2584TIP3   OH231946   4.529   2.413   7.848  0.0801 -0.0703 -0.3573
 2584TIP3    H131947   4.524   2.471   7.772 -2.6519  0.3242  0.0389
 2584TIP3    H231948   4.598   2.452   7.903 -0.7164  2.0135 -0.7448
 2585TIP3   OH231949   2.391   3.916   7.502 -0.2564 -0.0088 -0.0650
 2585TIP3    H131950   2.350   4.001   7.485  0.2848  0.2526 -0.0839
 2585TIP3    H231951   2.476   3.921   7.458 -1.0371 -1.3142 -1.8403
 2586TIP3   OH231952   4.783   4.009   8.167  0.4167 -0.1138 -0.0506
 2586TIP3    H131953   4.842   4.048   8.231 -2.0650 -0.2719  2.5528
 2586TIP3    H231954   4.779   3.916   8.191 -2.6514  0.3020  1.5694
 2587TIP3   OH231955   1.993   3.627   8.894  0.1297 -0.1001 -0.9140
 2587TIP3    H131956   2.040   3.645   8.813  1.4070 -0.1783 -0.2273
 2587TIP3    H231957   1.996   3.532   8.904  2.0141  0.0258  0.3246
 2588TIP3   OH231958   2.376   0.709   7.206 -0.0405 -0.6042 -0.3823
 2588TIP3    H131959   2.449   0.741   7.152 -0.9303  1.5485 -0.3933
 2588TIP3    H231960   2.369   0.773   7.276 -0.7853 -1.7892  0.6580
 2589TIP3   OH231961   0.897   3.566   7.566  0.1567  0.4545  0.8229
 2589TIP3    H131962   0.820   3.537   7.616  0.2753  1.2087  1.4608
 2589TIP3    H231963   0.875   3.654   7.537  0.8426  0.7307  1.1334
 2590TIP3   OH231964   2.576   5.471   9.697 -0.1301 -0.3667 -0.7979
 2590TIP3    H131965   2.650   5.411   9.689 -1.6052 -2.3783 -0.0859
 2590TIP3    H231966   2.531   5.465   9.613 -0.3488 -0.3390 -0.6840
 2591TIP3   OH231967   0.635   1.237   7.509 -0.0374  0.5046 -0.5108
 2591TIP3    H131968   0.719   1.231   7.554  0.5908  0.8105 -1.5847
 2591TIP3    H231969   0.586   1.304   7.557  1.1611  1.8576 -1.0700
 2592TIP3   OH231970   5.056   2.564   7.634 -0.1027  0.4006  0.0882
 2592TIP3    H131971   4.965   2.560   7.666  0.7669  1.5956  2.9856
 2592TIP3    H231972   5.078   2.657   7.636  0.8058  0.2752 -1.9364
 2593TIP3   OH231973   1.208   2.423   7.304  0.8735  0.1964 -0.7640
 2593TIP3    H131974   1.113   2.407   7.306  1.0101 -0.6728  1.3565
 2593TIP3    H231975   1.238   2.376   7.226 -0.6494  2.2371 -2.7204
 2594TIP3   OH231976   6.663   6.895   7.956  0.0717 -0.4011  0.2633
 2594TIP3    H131977   6.615   6.828   8.004 -1.0186  0.7617  0.8468
 2594TIP3    H231978   6.686   6.853   7.873 -2.0778 -0.9831 -0.0907
 2595TIP3   OH231979   0.279   3.109   7.919 -0.3995  0.1812  0.0591
 2595TIP3    H131980   0.267   3.192   7.964  0.8146  0.7315 -0.5917
 2595TIP3    H231981   0.342   3.061   7.972  0.9716  0.7986 -0.9434
 2596TIP3   OH231982   3.679   7.563   9.362 -0.7762  0.1638 -0.0459
 2596TIP3    H131983   3.589   7.532   9.364 -0.5091 -0.6669 -0.4083
 2596TIP3    H231984   3.673   7.653   9.328 -1.4479  0.0677 -0.1949
 2597TIP3   OH231985   0.603   6.113   7.713 -0.0653  0.2008  0.1247
 2597TIP3    H131986   0.602   6.190   7.656  1.3774  0.1069 -0.0728
 2597TIP3    H231987   0.668   6.054   7.673  0.4870 -0.1549  1.4828
 2598TIP3   OH231988   0.557   3.334   6.861  0.3935 -0.2508  0.2196
 2598TIP3    H131989   0.567   3.388   6.782  0.7020  0.9439  1.0505
 2598TIP3    H231990   0.642   3.291   6.871  1.8356  2.6735  2.0484
 2599TIP3   OH231991   5.207   1.213   7.467  0.3074 -0.0749 -0.1785
 2599TIP3    H131992   5.258   1.294   7.475 -0.5344  0.5538 -0.9599
 2599TIP3    H231993   5.257   1.160   7.404  0.4470  0.1608 -0.2663
 2600TIP3   OH231994   0.501   6.271   8.737  0.0756 -0.1293  0.0406
 2600TIP3    H131995   0.513   6.349   8.683 -0.1736 -0.6644 -0.8082
 2600TIP3    H231996   0.484   6.304   8.825  0.9541  0.7539 -0.1058
 2601TIP3   OH231997   4.253   2.421   9.048  0.2965  0.6516 -0.5485
 2601TIP3    H131998   4.302   2.495   9.084 -0.8090  1.2290 -0.1738
 2601TIP3    H231999   4.170   2.421   9.097 -0.0388 -0.3469 -1.0943
 2602TIP3   OH232000   1.334   2.420   9.473 -0.2635  0.6000  0.3248
 2602TIP3    H132001   1.426   2.393   9.466 -0.5612 -0.2596 -0.5030
 2602TIP3    H232002   1.289   2.343   9.507 -0.8993  0.5315 -0.6320
 2603TIP3   OH232003   5.309   3.953   7.447  0.5659  0.1428 -0.4677
 2603TIP3    H132004   5.287   3.901   7.370 -0.8670 -0.7634  0.5121
 2603TIP3    H232005   5.233   4.009   7.461  1.3423  1.2153 -0.4281
 2604TIP3   OH232006   3.425   2.758   7.393  0.6686  0.2328  0.0603
 2604TIP3    H132007   3.403   2.814   7.319 -2.1130  0.2456  0.8007
 2604TIP3    H232008   3.497   2.704   7.361  0.8011  1.5088 -1.9883
 2605TIP3   OH232009   0.032   1.609   6.551  0.5391 -0.1033  0.4443
 2605TIP3    H132010  -0.051   1.620   6.598  1.2385 -1.3258  2.0717
 2605TIP3    H232011   0.042   1.514   6.542  1.0254  0.0743 -1.1339
 2606TIP3   OH232012   6.087   7.223   8.223  0.0562  0.6642  0.4610
 2606TIP3    H132013   6.180   7.203   8.228  0.4767  2.6310  1.8288
 2606TIP3    H232014   6.044   7.147   8.262  1.2118  0.4005  1.2821
 2607TIP3   OH232015   3.144   7.259   8.906 -0.2044 -0.5014  0.3534
 2607TIP3    H132016   3.220   7.233   8.855 -1.8162  0.0991 -2.6175
 2607TIP3    H232017   3.174   7.333   8.959  1.8536 -1.9243  1.2750
 2608TIP3   OH232018   6.895   0.022   7.556  0.2601 -0.0669 -0.9225
 2608TIP3    H132019   6.863   0.007   7.467  0.3129 -1.0765 -0.7745
 2608TIP3    H232020   6.840  -0.033   7.611  1.3410 -0.7617 -0.5100
 2609TIP3   OH232021   7.366   4.716   7.405 -0.6556  0.8617  0.4079
 2609TIP3    H132022   7.294   4.667   7.364 -1.2097  1.5018  0.6018
 2609TIP3    H232023   7.441   4.658   7.398 -1.1589  0.2380  0.0664
 2610TIP3   OH232024   3.482   0.643   9.178 -0.5333  0.1549  0.3342
 2610TIP3    H132025   3.389   0.631   9.200 -0.0469 -0.6734  2.0599
 2610TIP3    H232026   3.489   0.611   9.088 -1.7401 -0.6739  0.5141
 2611TIP3   OH232027   0.319   3.837   8.642  0.2106  0.0844  0.1942
 2611TIP3    H132028   0.377   3.765   8.665 -0.4136 -0.2550  0.7245
 2611TIP3    H232029   0.231   3.804   8.658 -0.0478  1.4606  1.9821
 2612TIP3   OH232030   1.046   2.837   8.432 -0.0793  0.3541  0.4630
 2612TIP3    H132031   1.011   2.757   8.392 -0.3437 -0.5255  2.3490
 2612TIP3    H232032   1.125   2.857   8.380  1.6049 -2.7595  1.5872
 2613TIP3   OH232033   3.008   7.105   7.918  0.2905  0.4334 -0.1108
 2613TIP3    H132034   3.021   7.121   8.012  0.3598  0.2587 -0.0896
 2613TIP3    H232035   2.915   7.122   7.903  0.4125  1.0842 -0.1360
 2614TIP3   OH232036   0.505   1.915   8.815  0.3177  0.5708  0.0785
 2614TIP3    H132037   0.596   1.902   8.840  1.0248  1.6431 -1.7386
 2614TIP3    H232038   0.498   2.009   8.797 -0.3684  0.1158 -2.4566
 2615TIP3   OH232039   6.123   1.107   6.834  0.2881  0.0700 -0.5224
 2615TIP3    H132040   6.141   1.187   6.883  0.8850 -1.4800  1.9607
 2615TIP3    H232041   6.206   1.060   6.833 -0.6182 -1.6641  0.4004
 2616TIP3   OH232042   3.799   2.343   7.813  0.0393 -0.4623  0.4459
 2616TIP3    H132043   3.891   2.329   7.834  0.1055 -0.3442  0.2419
 2616TIP3    H232044   3.800   2.387   7.728 -0.1951 -0.1360  0.6075
 2617TIP3   OH232045   5.548   3.037   8.167 -0.2401 -1.2120 -0.4303
 2617TIP3    H132046   5.516   3.024   8.256  0.2572 -2.2347 -0.3797
 2617TIP3    H232047   5.616   3.104   8.175 -1.3199 -0.1000 -0.3129
 2618TIP3   OH232048   1.292   1.881   7.964 -0.2682  0.1792  0.1888
 2618TIP3    H132049   1.251   1.917   8.043 -0.1800 -0.5136  0.5495
 2618TIP3    H232050   1.308   1.789   7.984 -0.8666 -0.1832 -0.8717
 2619TIP3   OH232051   3.182   3.796   8.903  0.5416  0.2499 -0.0023
 2619TIP3    H132052   3.171   3.826   8.813 -0.8377 -1.9666 -0.6596
 2619TIP3    H232053   3.104   3.827   8.949  0.6291  0.3032  0.1124
 2620TIP3   OH232054   6.875   0.218   7.910  0.5229 -0.3714 -0.2505
 2620TIP3    H132055   6.876   0.274   7.987 -1.3886 -1.0548  0.3244
 2620TIP3    H232056   6.785   0.220   7.879  0.4855 -2.6977 -0.5080
 2621TIP3   OH232057   2.012   6.858   9.399  0.6285  0.4418 -0.2003
 2621TIP3    H132058   2.007   6.816   9.313  2.3629 -0.2060 -0.0444
 2621TIP3    H232059   1.998   6.786   9.461  1.3645  0.5008  0.0485
 2622TIP3   OH232060   7.277   3.258   8.072  0.0241 -0.1940 -0.4084
 2622TIP3    H132061   7.238   3.249   7.985 -0.5175 -1.6336 -0.0557
 2622TIP3    H232062   7.216   3.212   8.130  0.9491 -0.2531  0.5560
 2623TIP3   OH232063   4.264   0.263   6.427  0.0094  0.4458  0.7122
 2623TIP3    H132064   4.248   0.181   6.380 -1.3152  2.0154 -1.6975
 2623TIP3    H232065   4.178   0.294   6.454  0.3179  1.8702  0.1462
 2624TIP3   OH232066   4.932   5.734   8.204 -0.2032 -0.3624  0.0879
 2624TIP3    H132067   5.002   5.790   8.236  1.5401 -2.3373  0.0161
 2624TIP3    H232068   4.869   5.794   8.165  0.8225  1.6038  1.2740
 2625TIP3   OH232069   7.127   5.164   7.979 -0.4501 -0.0135 -0.3477
 2625TIP3    H132070   7.194   5.229   7.958  0.7025 -0.7759  0.8495
 2625TIP3    H232071   7.174   5.080   7.979 -1.1605 -0.4582  1.5273
 2626TIP3   OH232072   3.415   1.794   8.608 -0.1608  0.0123 -0.2026
 2626TIP3    H132073   3.507   1.771   8.613 -0.3788 -1.0560 -0.9196
 2626TIP3    H232074   3.376   1.753   8.686 -0.7822 -3.3778 -2.1076
 2627TIP3   OH232075   6.951   2.322   8.644 -0.4487  0.8952  0.0573
 2627TIP3    H132076   6.924   2.394   8.587  0.4783  0.8188 -0.4857
 2627TIP3    H232077   7.046   2.328   8.648 -0.2606 -0.9274 -0.8286
 2628TIP3   OH232078   1.153   6.359   8.507  0.1400  0.6131  0.2300
 2628TIP3    H132079   1.068   6.346   8.464 -0.0578  0.6998  0.5857
 2628TIP3    H232080   1.131   6.407   8.588  0.5992  1.1657  0.0290
 2629TIP3   OH232081   2.817   1.841   7.504  0.0857 -0.1425 -0.1401
 2629TIP3    H132082   2.773   1.885   7.576 -0.0547 -0.5245  0.0042
 2629TIP3    H232083   2.892   1.898   7.484  2.4935 -1.9095  2.8958
 2630TIP3   OH232084   7.032   5.910   8.433 -0.3290  0.4675 -0.0513
 2630TIP3    H132085   6.936   5.910   8.438 -0.2623  0.6969  1.6601
 2630TIP3    H232086   7.060   5.951   8.514  1.2554 -0.6794  0.0182
 2631TIP3   OH232087   6.599   7.341   9.358 -0.1480  0.0900 -0.3255
 2631TIP3    H132088   6.549   7.401   9.414 -0.6194 -1.5282  1.0614
 2631TIP3    H232089   6.690   7.369   9.368 -0.2874  0.1513  0.8328
 2632TIP3   OH232090   0.499   6.477   7.830  0.4752 -0.1956 -0.0509
 2632TIP3    H132091   0.465   6.512   7.747 -0.4306 -0.0841  0.3607
 2632TIP3    H232092   0.578   6.528   7.847 -0.1728  0.8353 -0.0720
 2633TIP3   OH232093   1.529   3.924   7.078  0.0040  0.1701 -0.2564
 2633TIP3    H132094   1.487   4.004   7.046  0.9408  0.3213 -1.1572
 2633TIP3    H232095   1.623   3.939   7.063  0.1456 -1.3564 -1.0319
 2634TIP3   OH232096   2.832   1.339   7.796 -0.5172  0.0504 -0.5459
 2634TIP3    H132097   2.779   1.324   7.718 -1.0269  1.0936 -0.4250
 2634TIP3    H232098   2.773   1.322   7.869 -0.7631  1.3369 -0.4117
 2635TIP3   OH232099   4.544   2.241   9.273  0.2411  0.2020 -0.0319
 2635TIP3    H132100   4.581   2.286   9.349 -0.8589  1.3161 -0.1270
 2635TIP3    H232101   4.485   2.176   9.311 -0.7009  1.1015  0.0961
 2636TIP3   OH232102   4.884   3.944   8.475 -0.0920  0.3477 -0.1986
 2636TIP3    H132103   4.860   3.860   8.434 -0.0663  0.2728 -0.0620
 2636TIP3    H232104   4.957   3.977   8.422  0.9889 -0.5014  0.6951
 2637TIP3   OH232105   5.107   0.692   8.704 -0.4401 -0.4960 -0.2724
 2637TIP3    H132106   5.127   0.711   8.795  0.1631  0.9686 -0.6776
 2637TIP3    H232107   5.059   0.769   8.673  1.1510 -0.0079 -1.7073
 2638TIP3   OH232108   0.087   2.734   7.962 -0.4200  0.1214 -0.2178
 2638TIP3    H132109   0.007   2.681   7.961 -0.4649  0.1886 -0.2106
 2638TIP3    H232110   0.153   2.678   7.923 -0.3421 -0.1440  0.2945
 2639TIP3   OH232111   7.615   0.223   9.137 -0.4036  0.2502 -0.2974
 2639TIP3    H132112   7.620   0.208   9.042 -2.2358  0.0358 -0.4002
 2639TIP3    H232113   7.698   0.190   9.171 -0.4416 -1.3277 -1.6314
 2640TIP3   OH232114   1.324   2.795   8.353  0.2215  0.9641  0.0785
 2640TIP3    H132115   1.358   2.741   8.282 -0.9215  0.7566 -0.3267
 2640TIP3    H232116   1.394   2.796   8.418  0.5798 -0.3120 -0.2704
 2641TIP3   OH232117   5.364   3.376   8.541  0.4869  0.4784  0.0145
 2641TIP3    H132118   5.440   3.427   8.513  1.9800 -0.5277  1.9445
 2641TIP3    H232119   5.343   3.409   8.628  0.0245 -0.6425  0.3460
 2642TIP3   OH232120   2.928   5.719   9.336 -0.3389 -0.5094 -0.6005
 2642TIP3    H132121   2.864   5.760   9.394  1.1901 -0.6728  1.3198
 2642TIP3    H232122   2.895   5.735   9.248 -2.3044  0.5479  0.2653
 2643TIP3   OH232123   6.950   1.661   8.560 -0.1909 -0.2956 -0.4453
 2643TIP3    H132124   6.961   1.703   8.475  0.3494 -0.5442 -0.5025
 2643TIP3    H232125   6.856   1.661   8.575 -0.2863 -0.2419 -1.0377
 2644TIP3   OH232126   0.667   2.668   8.645 -0.0642  0.3153 -0.1968
 2644TIP3    H132127   0.642   2.693   8.734  0.5376  0.0517  0.0493
 2644TIP3    H232128   0.726   2.737   8.616 -1.7601  1.4597 -1.1428
 2645TIP3   OH232129   3.894   1.842   7.694 -0.3995 -0.3255  0.1264
 2645TIP3    H132130   3.870   1.872   7.782  0.4473 -0.2540  0.3395
 2645TIP3    H232131   3.845   1.900   7.635  0.5321  0.9257  0.5427
 2646TIP3   OH232132   5.680   1.825   8.149  0.1491  0.7883  0.0690
 2646TIP3    H132133   5.651   1.895   8.208  0.1889 -0.9293  2.2437
 2646TIP3    H232134   5.774   1.842   8.136  0.1729  1.1143  0.6226
 2647TIP3   OH232135   1.201   1.894   8.397 -0.2711  0.1102 -0.3460
 2647TIP3    H132136   1.271   1.847   8.353 -0.2860 -1.3722  1.1176
 2647TIP3    H232137   1.125   1.883   8.340 -0.8178 -3.5032  0.8551
 2648TIP3   OH232138   6.011   5.715   9.090  0.3510  0.7558  0.3708
 2648TIP3    H132139   6.097   5.679   9.071 -0.1037  0.1417 -0.5825
 2648TIP3    H232140   5.967   5.720   9.005 -0.2412  1.8796  0.7302
 2649TIP3   OH232141   4.511   3.426   7.259 -0.3560 -0.4823 -0.4586
 2649TIP3    H132142   4.419   3.419   7.283 -0.3157 -1.8509 -0.6326
 2649TIP3    H232143   4.558   3.405   7.340 -0.1827  0.5754 -0.2723
 2650TIP3   OH232144   5.579   1.563   8.208  0.3467  0.1265 -0.0337
 2650TIP3    H132145   5.598   1.654   8.185 -3.4066  0.7226 -1.4804
 2650TIP3    H232146   5.497   1.568   8.257  1.1559 -2.3990  1.7880
 2651TIP3   OH232147   4.885   6.423   7.488  0.1547  0.6291 -0.4568
 2651TIP3    H132148   4.833   6.487   7.537 -0.9262  0.7304 -1.6685
 2651TIP3    H232149   4.927   6.474   7.418  1.2857  0.4122  0.0436
 2652TIP3   OH232150   6.724   7.539   7.701  0.5157 -0.8532  0.2807
 2652TIP3    H132151   6.693   7.512   7.787  0.6149 -0.7746  0.3405
 2652TIP3    H232152   6.762   7.460   7.663 -0.8604 -1.2853 -0.2870
 2653TIP3   OH232153   5.541   3.767   7.232 -0.4240  0.2918  0.1617
 2653TIP3    H132154   5.590   3.684   7.228 -0.0666  0.4699  0.6937
 2653TIP3    H232155   5.473   3.757   7.166  0.2963  0.0090 -0.5703
 2654TIP3   OH232156   6.191   5.391   8.402  0.3304  0.3446  0.3724
 2654TIP3    H132157   6.222   5.321   8.344 -0.4505  0.5482 -0.2924
 2654TIP3    H232158   6.259   5.396   8.470  0.5366 -0.8829  0.2949
 2655TIP3   OH232159   4.024   1.696   8.776  0.1140 -0.1168  0.8412
 2655TIP3    H132160   3.938   1.654   8.772  0.2479 -0.4737  1.5465
 2655TIP3    H232161   4.005   1.788   8.792 -0.1437 -0.1629  0.8027
 2656TIP3   OH232162   5.605   7.052   7.799  0.3529 -0.5278 -0.1798
 2656TIP3    H132163   5.525   7.087   7.760  0.5844 -0.1543 -0.3238
 2656TIP3    H232164   5.577   6.973   7.846 -0.2004 -0.0833  0.2498
 2657TIP3   OH232165   0.814   5.989   9.009 -0.1498  0.0826 -0.2277
 2657TIP3    H132166   0.762   5.909   9.001  0.8763 -0.4443 -3.5355
 2657TIP3    H232167   0.791   6.040   8.931  2.1157  1.1289 -0.2949
 2658TIP3   OH232168   0.253   5.013   8.734  0.4798 -0.2070  0.4383
 2658TIP3    H132169   0.254   5.035   8.828  1.2231  2.3841 -0.0932
 2658TIP3    H232170   0.242   5.098   8.690  1.5419 -1.1991 -1.8765
 2659TIP3   OH232171   2.570   6.613   8.656  0.4470  0.3077  0.2904
 2659TIP3    H132172   2.527   6.530   8.678  0.9278 -0.4897 -1.5412
 2659TIP3    H232173   2.662   6.599   8.680  0.7526 -0.1527 -1.0515
 2660TIP3   OH232174   1.871   3.757   9.315 -0.2818 -0.0639 -0.1884
 2660TIP3    H132175   1.911   3.824   9.258  0.9788  0.8950  1.7168
 2660TIP3    H232176   1.898   3.674   9.275  0.9452  0.5738 -0.7537
 2661TIP3   OH232177   6.846   0.980   8.827  0.2428 -0.3947 -0.1595
 2661TIP3    H132178   6.783   1.042   8.790 -0.2705 -0.7179  0.1496
 2661TIP3    H232179   6.876   1.021   8.908 -1.4920 -1.3196  1.0217
 2662TIP3   OH232180   3.711   3.075   9.116  0.4215 -0.7767 -0.1388
 2662TIP3    H132181   3.722   3.132   9.039 -1.6207  0.7551  0.6187
 2662TIP3    H232182   3.628   3.029   9.100  0.2349 -0.8296  0.9303
 2663TIP3   OH232183   6.379   4.680   8.456 -0.0030 -0.0477 -0.6412
 2663TIP3    H132184   6.285   4.671   8.465 -0.5491  2.3057 -2.8731
 2663TIP3    H232185   6.391   4.746   8.388  3.2567  0.8933  0.6316
 2664TIP3   OH232186   4.776   3.066   8.274 -0.0473 -0.0785  0.0446
 2664TIP3    H132187   4.847   3.111   8.319  1.6772  0.2534 -2.7717
 2664TIP3    H232188   4.787   2.974   8.297  0.2638  0.1628  0.9032
 2665TIP3   OH232189   4.807   0.495   8.507 -0.5277 -0.0849 -0.0069
 2665TIP3    H132190   4.760   0.444   8.442 -1.9787  0.4721  0.5797
 2665TIP3    H232191   4.789   0.586   8.484  0.6098  0.1608 -0.0049
 2666TIP3   OH232192   5.814   5.610   7.907  0.3966  0.3814 -0.7540
 2666TIP3    H132193   5.883   5.549   7.936 -0.4069  0.1833  0.8324
 2666TIP3    H232194   5.807   5.594   7.813  0.5554 -1.6361 -0.4696
 2667TIP3   OH232195   6.136   4.578   7.806 -0.5365  0.3639 -0.5312
 2667TIP3    H132196   6.112   4.622   7.724  0.8033  0.9150 -0.6593
 2667TIP3    H232197   6.096   4.491   7.799  0.5650 -0.0575 -2.3396
 2668TIP3   OH232198   2.908   0.884   9.601  0.3692  0.2035 -0.0288
 2668TIP3    H132199   2.822   0.862   9.566 -0.0416  0.5811  0.7137
 2668TIP3    H232200   2.914   0.835   9.683  1.4265 -0.8889 -0.7307
 2669TIP3   OH232201   5.657   4.989   9.130  0.0229 -0.0907 -0.0330
 2669TIP3    H132202   5.605   4.997   9.050 -2.4959  1.1101  1.5931
 2669TIP3    H232203   5.680   5.080   9.152 -1.1396 -0.1576  1.6503
 2670TIP3   OH232204   2.100   1.171   7.633  0.2746 -0.3434  0.6932
 2670TIP3    H132205   2.121   1.083   7.600  1.2011 -0.4375  1.4894
 2670TIP3    H232206   2.179   1.198   7.680 -0.1051  0.8102  0.6916
 2671TIP3   OH232207   0.699   2.549   6.822  0.1675  0.1496 -0.0070
 2671TIP3    H132208   0.793   2.536   6.812  0.2703  0.9007 -0.0131
 2671TIP3    H232209   0.666   2.552   6.732  0.1814  0.2317 -0.0089
 2672TIP3   OH232210   4.325   5.669   8.039 -0.1090 -0.3086  0.1744
 2672TIP3    H132211   4.319   5.651   7.945 -0.3071  2.8214 -0.5425
 2672TIP3    H232212   4.417   5.654   8.061 -0.4278 -2.9110  0.0067
 2673TIP3   OH232213   4.215   1.233   9.138  0.2686 -0.4996 -0.1518
 2673TIP3    H132214   4.263   1.186   9.070 -1.0367 -0.8055 -0.9056
 2673TIP3    H232215   4.127   1.196   9.134 -0.2838  0.6995  0.5421
 2674TIP3   OH232216   5.592   3.763   9.073 -0.1887  0.1233 -0.2397
 2674TIP3    H132217   5.537   3.836   9.101  0.0274  1.0547 -2.0946
 2674TIP3    H232218   5.682   3.795   9.085 -0.0727 -0.3017  0.0558
 2675TIP3   OH232219   6.371   5.953   7.658 -0.1191  0.1234  0.1574
 2675TIP3    H132220   6.313   6.009   7.710 -0.9166 -1.0136  0.5483
 2675TIP3    H232221   6.375   5.871   7.708  0.3283 -0.4628 -0.8214
 2676TIP3   OH232222   3.581   2.902   9.737  0.6049 -0.0457  0.1934
 2676TIP3    H132223   3.615   2.916   9.825  0.2371 -3.8161  1.1237
 2676TIP3    H232224   3.486   2.908   9.747  0.5630 -0.4648  0.0815
 2677TIP3   OH232225   1.829   3.028   6.569 -0.9508 -0.0737  0.2886
 2677TIP3    H132226   1.924   3.035   6.579 -1.1353  1.2203  1.4029
 2677TIP3    H232227   1.809   3.083   6.493 -0.6345 -1.9006 -1.1813
 2678TIP3   OH232228   4.221   1.098   7.083 -0.5873  0.2298 -0.2688
 2678TIP3    H132229   4.271   1.016   7.076  0.6777  1.0102 -0.6980
 2678TIP3    H232230   4.252   1.152   7.011  0.0893  1.8680  1.1723
 2679TIP3   OH232231   3.722   1.342   7.683 -0.9288 -0.2564 -0.0040
 2679TIP3    H132232   3.790   1.327   7.749 -0.4096  1.7735  0.0212
 2679TIP3    H232233   3.771   1.351   7.601 -1.3888 -0.8978 -0.3537
 2680TIP3   OH232234   7.104   3.484   9.038  0.4020  0.6561  0.1715
 2680TIP3    H132235   7.056   3.464   9.119 -0.9056 -1.4924 -1.0251
 2680TIP3    H232236   7.192   3.449   9.053 -0.2255 -0.9908  0.2112
 2681TIP3   OH232237   4.681   2.638   9.282  0.2329  0.5742 -0.3932
 2681TIP3    H132238   4.634   2.660   9.201 -1.4362 -0.8396  0.1235
 2681TIP3    H232239   4.640   2.693   9.349 -0.4107 -0.3217 -0.0258
 2682TIP3   OH232240   5.753   3.912   8.275 -0.2847 -0.4601 -0.1814
 2682TIP3    H132241   5.796   3.982   8.227 -0.6749  0.4145  0.6963
 2682TIP3    H232242   5.660   3.926   8.260 -0.4494  0.2155  1.2890
 2683TIP3   OH232243   0.503   0.062   7.976  0.3097 -0.4400  0.2491
 2683TIP3    H132244   0.486   0.144   7.929  2.0195  0.4061  1.0016
 2683TIP3    H232245   0.514  -0.003   7.907  4.3370  1.0564 -0.7897
 2684TIP3   OH232246   4.683   0.089   7.755 -0.6088  0.3559 -0.4023
 2684TIP3    H132247   4.693   0.176   7.793  1.1448  0.4722 -1.0475
 2684TIP3    H232248   4.604   0.095   7.700 -1.4908  1.0052  0.8971
 2685TIP3   OH232249   4.496   6.275   7.282 -0.0587 -0.1433  0.4946
 2685TIP3    H132250   4.440   6.321   7.220 -0.5082 -2.4076 -0.8839
 2685TIP3    H232251   4.569   6.243   7.229  1.0784  0.2865  1.7269
 2686TIP3   OH232252   6.811   3.690   8.752  0.0333  0.0141  0.2593
 2686TIP3    H132253   6.774   3.772   8.717 -1.5378 -0.1073  1.5154
 2686TIP3    H232254   6.877   3.718   8.814  1.2930  0.2579 -1.1328
 2687TIP3   OH232255   5.871   7.175   7.838 -0.3720  0.6981 -0.0998
 2687TIP3    H132256   5.905   7.090   7.867  2.3442  0.9097 -2.2635
 2687TIP3    H232257   5.777   7.162   7.827 -0.2789 -1.5000  1.2346
 2688TIP3   OH232258   2.633   1.860   6.792  0.3421 -0.1733  0.0570
 2688TIP3    H132259   2.603   1.850   6.882 -0.8385 -0.8097 -0.3764
 2688TIP3    H232260   2.571   1.920   6.752 -1.8345 -3.1500 -1.4398
 2689TIP3   OH232261   3.265   7.034   7.247  0.3060 -0.1422  0.1325
 2689TIP3    H132262   3.244   7.127   7.253 -0.8080 -0.1707 -2.2470
 2689TIP3    H232263   3.228   6.995   7.326  2.2446  1.5970  2.0427
 2690TIP3   OH232264   1.205   4.182   7.022 -0.1812 -0.0462 -0.3441
 2690TIP3    H132265   1.288   4.166   6.976  0.7264 -0.3407  1.3418
 2690TIP3    H232266   1.141   4.130   6.974  1.2862 -2.6792  0.4007
 2691TIP3   OH232267   5.206   2.564   8.717  0.4630 -0.4746  0.8319
 2691TIP3    H132268   5.298   2.588   8.711 -0.2732  2.4210 -1.1055
 2691TIP3    H232269   5.193   2.498   8.649  0.8452  0.1279  0.1683
 2692TIP3   OH232270   4.358   6.312   7.038 -0.6817 -0.2967 -0.2137
 2692TIP3    H132271   4.338   6.308   6.945 -3.2346  0.6833  0.2155
 2692TIP3    H232272   4.388   6.402   7.052  0.5824 -0.6942 -0.1887
 2693TIP3   OH232273   3.181   4.692   8.010  0.0262 -0.1322 -0.0866
 2693TIP3    H132274   3.211   4.732   7.929  0.5486 -0.8666 -0.2721
 2693TIP3    H232275   3.093   4.726   8.024 -0.1919 -0.2564 -1.1344
 2694TIP3   OH232276   4.416   1.163   9.331 -0.3640  0.5699  0.4805
 2694TIP3    H132277   4.346   1.170   9.267 -0.1547  2.1707  0.3810
 2694TIP3    H232278   4.416   1.071   9.357 -1.8951  0.3559 -0.1806
 2695TIP3   OH232279   2.808   7.263   7.552  0.1630 -0.6598 -0.2632
 2695TIP3    H132280   2.777   7.311   7.475 -0.0369  1.5839  1.0933
 2695TIP3    H232281   2.729   7.247   7.603  0.3388 -1.7958 -0.3199
 2696TIP3   OH232282   2.787   5.561   7.236 -0.0384 -0.5407  0.0994
 2696TIP3    H132283   2.728   5.549   7.162  0.3174 -0.0939 -0.2655
 2696TIP3    H232284   2.730   5.559   7.313 -0.6429  0.7650 -0.2978
 2697TIP3   OH232285   4.675   4.871   8.053 -0.8805 -0.0979  0.0296
 2697TIP3    H132286   4.648   4.961   8.035 -1.3929  0.1114  1.6827
 2697TIP3    H232287   4.766   4.866   8.023 -0.3968  1.3814  1.1797
 2698TIP3   OH232288   4.820   1.612   8.017  0.3480 -0.3564  0.3239
 2698TIP3    H132289   4.779   1.555   8.083  2.3306 -1.0003  1.0657
 2698TIP3    H232290   4.746   1.656   7.974 -1.1922 -2.4127  0.7014
 2699TIP3   OH232291   3.304   2.397   7.587  0.1590  0.3852 -0.6218
 2699TIP3    H132292   3.391   2.427   7.559  0.1177  1.6323  0.5196
 2699TIP3    H232293   3.322   2.327   7.650  0.2815 -0.4944 -1.5949
 2700TIP3   OH232294   1.790   6.165   8.032 -0.3933  0.1602  0.0685
 2700TIP3    H132295   1.807   6.187   8.124 -0.4817  3.5351 -0.5831
 2700TIP3    H232296   1.858   6.102   8.010 -0.3473 -0.7211  2.4115
 2701TIP3   OH232297   4.098   7.000   8.254 -0.2689  0.4896 -0.6937
 2701TIP3    H132298   4.003   7.006   8.269 -0.4035  1.1514 -1.7546
 2701TIP3    H232299   4.106   6.945   8.176  0.2182  0.6179 -0.7350
 2702TIP3   OH232300   3.815   6.648   9.078 -0.1514 -0.3591 -0.5320
 2702TIP3    H132301   3.902   6.657   9.041 -0.0131 -0.9730 -0.3608
 2702TIP3    H232302   3.815   6.562   9.121 -1.3695 -1.1437 -1.9862
 2703TIP3   OH232303   1.236   4.539   6.728  0.6892  0.3164  0.4497
 2703TIP3    H132304   1.303   4.539   6.661  1.4635 -1.1427  1.1739
 2703TIP3    H232305   1.275   4.491   6.801  0.1326  2.3842  2.2163
 2704TIP3   OH232306   0.737   3.175   7.486 -0.3240  0.8867 -0.7307
 2704TIP3    H132307   0.780   3.184   7.571 -0.6357 -0.8971 -0.3498
 2704TIP3    H232308   0.787   3.233   7.428  1.8651 -0.1924 -0.0466
 2705TIP3   OH232309   2.515   7.061   8.175 -0.0867 -0.1506  0.1303
 2705TIP3    H132310   2.461   7.119   8.122 -1.1028  0.6953  2.0160
 2705TIP3    H232311   2.600   7.105   8.181  0.1901 -0.4760 -1.1230
 2706TIP3   OH232312   6.033   3.192   7.275  0.5600 -0.2123 -0.0112
 2706TIP3    H132313   6.116   3.204   7.321  0.2063  2.2104  0.1054
 2706TIP3    H232314   6.031   3.099   7.254  3.2503 -0.3699  0.0765
 2707TIP3   OH232315   2.901   1.241   6.743 -0.3879 -0.0256  0.2815
 2707TIP3    H132316   2.884   1.334   6.751  0.1765  0.2693 -1.5144
 2707TIP3    H232317   2.816   1.202   6.727 -0.3585  0.4800 -1.1842
 2708TIP3   OH232318   6.049   1.527   7.711  0.2964  0.1799 -0.4078
 2708TIP3    H132319   6.020   1.563   7.628 -0.6182  1.1747  0.3102
 2708TIP3    H232320   5.995   1.571   7.777  0.1225 -1.4839  0.6238
 2709TIP3   OH232321   0.730   2.301   7.922 -0.2244  0.4286 -0.1347
 2709TIP3    H132322   0.788   2.331   7.852  1.2269 -0.4800  0.6263
 2709TIP3    H232323   0.789   2.281   7.995 -1.5475 -0.1411  0.8162
 2710TIP3   OH232324   0.921   4.153   6.530  1.0184  0.0864  0.7133
 2710TIP3    H132325   0.873   4.196   6.600  2.7781  0.4591  1.7669
 2710TIP3    H232326   1.013   4.161   6.556  1.6388 -0.9230 -0.9997
 2711TIP3   OH232327   3.666   3.425   7.646 -0.3141 -0.0582 -0.1649
 2711TIP3    H132328   3.586   3.373   7.630  0.6028 -1.1946 -1.3111
 2711TIP3    H232329   3.737   3.367   7.619  0.8549  1.2378  0.0541
 2712TIP3   OH232330   4.558   1.660   9.620  0.3242 -0.3833 -0.1614
 2712TIP3    H132331   4.529   1.614   9.699  0.2391 -2.6644 -1.4336
 2712TIP3    H232332   4.489   1.723   9.602 -1.3227 -2.0844 -0.1634
 2713TIP3   OH232333   5.470   7.144   8.252 -0.1567 -0.1135 -0.3442
 2713TIP3    H132334   5.381   7.112   8.236 -0.5115 -0.2738  1.7468
 2713TIP3    H232335   5.460   7.238   8.260 -0.3333 -0.2321  0.9629
 2714TIP3   OH232336   3.868   0.857   7.449 -0.2616  0.3308 -0.3413
 2714TIP3    H132337   3.899   0.854   7.539  0.4027  0.3690 -0.5653
 2714TIP3    H232338   3.810   0.933   7.446 -1.2008 -0.3449  0.3344
 2715TIP3   OH232339   7.399   7.303   9.603 -0.1524 -0.1031  0.2788
 2715TIP3    H132340   7.320   7.264   9.642 -0.6890  0.2072 -0.4683
 2715TIP3    H232341   7.403   7.266   9.515 -0.4018  1.1163 -0.2744
 2716TIP3   OH232342   3.665   0.140   8.330 -0.2910 -0.2054 -0.4790
 2716TIP3    H132343   3.672   0.134   8.426 -1.9971 -0.6029 -0.3548
 2716TIP3    H232344   3.683   0.232   8.311  0.1727 -0.1470  0.2126
 2717TIP3   OH232345   0.064   0.297   8.005 -0.1555 -0.1312  0.1080
 2717TIP3    H132346   0.032   0.313   7.916 -2.0919 -0.8258  0.6462
 2717TIP3    H232347   0.116   0.216   7.997  1.9724  1.2326 -0.8468
 2718TIP3   OH232348   1.605   6.845   8.057 -0.4175  1.3486 -0.2225
 2718TIP3    H132349   1.673   6.912   8.058 -1.3836  2.3990 -1.4213
 2718TIP3    H232350   1.536   6.880   8.113 -0.2429  0.5543  0.5161
 2719TIP3   OH232351   0.427   3.568   8.584  0.5626 -0.0126 -0.3649
 2719TIP3    H132352   0.452   3.507   8.653  0.3085  2.2493  1.8957
 2719TIP3    H232353   0.343   3.535   8.552  1.7176 -2.3144 -1.2083
 2720TIP3   OH232354   4.830   1.732   9.007 -0.0846  0.4808 -0.8332
 2720TIP3    H132355   4.789   1.712   9.091  0.5719 -1.0175 -0.8469
 2720TIP3    H232356   4.788   1.814   8.979 -2.3486 -0.4545 -0.4032
 2721TIP3   OH232357   1.634   3.653   9.429 -0.0893 -0.3492  0.6251
 2721TIP3    H132358   1.722   3.690   9.433 -0.0149 -0.4871  0.3278
 2721TIP3    H232359   1.584   3.702   9.494 -0.4261  1.4608 -0.9106
 2722TIP3   OH232360   1.799   2.880   9.367  0.4016  0.2986 -0.2534
 2722TIP3    H132361   1.766   2.792   9.383  0.3487  0.4287  0.4053
 2722TIP3    H232362   1.894   2.873   9.377  0.3876  0.3390 -0.0935
 2723TIP3   OH232363   0.531   1.067   9.810  0.1131 -0.5907  0.0093
 2723TIP3    H132364   0.580   1.150   9.808  1.2803 -1.2671 -1.3072
 2723TIP3    H232365   0.443   1.090   9.781  0.5927  0.0898 -0.9310
 2724TIP3   OH232366   2.253   7.180   8.090 -0.1770 -0.2715 -0.1056
 2724TIP3    H132367   2.298   7.264   8.082  0.4305 -0.6795 -1.1743
 2724TIP3    H232368   2.251   7.145   8.001 -2.3119 -0.4425 -0.0202
 2725TIP3   OH232369   0.339   4.170   9.010  0.2390 -0.3257  0.2688
 2725TIP3    H132370   0.328   4.080   9.040  0.3054 -0.0763  1.0607
 2725TIP3    H232371   0.398   4.210   9.074  0.1172  0.3141 -0.0087
 2726TIP3   OH232372   5.127   1.031   6.901  0.1994 -0.4998 -0.2221
 2726TIP3    H132373   5.189   1.004   6.833  3.0449  2.2489  0.9945
 2726TIP3    H232374   5.159   0.989   6.981  0.3348  0.6702  0.3646
 2727TIP3   OH232375   7.276   4.149   6.846 -0.3066 -0.1342 -0.5434
 2727TIP3    H132376   7.216   4.133   6.920  0.5010  0.6730  0.3110
 2727TIP3    H232377   7.298   4.242   6.853  0.8497 -0.3601 -0.9960
 2728TIP3   OH232378   2.233   1.322   9.151 -0.1278  0.3387 -0.1710
 2728TIP3    H132379   2.181   1.257   9.198 -1.4537  0.8508 -0.8563
 2728TIP3    H232380   2.261   1.277   9.071 -1.3808  0.6961 -0.8361
 2729TIP3   OH232381   2.540   4.087   8.936  0.5379  0.0359 -0.3937
 2729TIP3    H132382   2.614   4.133   8.896  0.3327  0.0779 -0.7308
 2729TIP3    H232383   2.470   4.095   8.872 -0.8421  2.9238  1.3004
 2730TIP3   OH232384   3.998   6.117   8.211 -0.3313 -0.5928 -0.8053
 2730TIP3    H132385   3.923   6.133   8.267  0.8488 -1.9038  1.2975
 2730TIP3    H232386   4.074   6.130   8.268  0.9713 -1.2359 -2.3014
 2731TIP3   OH232387   1.329   5.182   7.535  0.1699  0.3492 -0.1135
 2731TIP3    H132388   1.384   5.210   7.609 -0.0602  2.0138 -0.5304
 2731TIP3    H232389   1.291   5.099   7.564 -0.0109  1.0104  1.6983
 2732TIP3   OH232390   3.896   0.064   9.097  0.2363 -0.1597  0.6565
 2732TIP3    H132391   3.903   0.103   9.010 -2.1266 -1.4661 -0.2051
 2732TIP3    H232392   3.986   0.058   9.128  0.9431  3.7949 -0.0322
 2733TIP3   OH232393   2.336   2.307   9.158 -0.0508 -0.1044 -0.5140
 2733TIP3    H132394   2.366   2.259   9.236  1.7249  0.3849 -0.8393
 2733TIP3    H232395   2.310   2.393   9.191 -0.8555 -0.4376 -0.2602
 2734TIP3   OH232396   5.036   1.574   9.135 -0.3066 -0.4026 -0.1451
 2734TIP3    H132397   5.119   1.616   9.157 -1.2156  0.4965  1.8334
 2734TIP3    H232398   4.980   1.646   9.108 -1.3369 -0.5199  1.5273
 2735TIP3   OH232399   4.524   7.296   8.880  0.4254  0.2075 -0.5632
 2735TIP3    H132400   4.563   7.304   8.967  0.8600  1.5580 -0.8626
 2735TIP3    H232401   4.550   7.376   8.835  0.3914 -0.5799 -2.0211
 2736TIP3   OH232402   3.140   0.201   7.814  0.3004 -0.2774  0.2358
 2736TIP3    H132403   3.170   0.117   7.780  1.2523 -1.0542  2.7282
 2736TIP3    H232404   3.055   0.182   7.853  0.8314 -0.2972  1.4344
 2737TIP3   OH232405   5.468   4.110   8.780  0.1376  0.0598  0.1191
 2737TIP3    H132406   5.438   4.021   8.796  1.0922 -0.0811  1.2506
 2737TIP3    H232407   5.530   4.102   8.707 -2.0069  0.2780 -1.8617
 2738TIP3   OH232408   3.637   4.561   8.406  0.1531 -0.2102 -0.2442
 2738TIP3    H132409   3.618   4.650   8.376  0.8214 -0.7095 -2.3632
 2738TIP3    H232410   3.644   4.568   8.501  1.3295  2.2356 -0.4292
 2739TIP3   OH232411   2.751   3.591   7.930 -0.2467 -0.1637 -0.4680
 2739TIP3    H132412   2.723   3.552   8.013  0.5619 -0.0829 -0.1552
 2739TIP3    H232413   2.844   3.606   7.940 -0.3184  0.7179 -1.0505
 2740TIP3   OH232414   6.705   5.942   7.823 -0.6336 -0.5935 -0.0805
 2740TIP3    H132415   6.635   5.925   7.886 -0.3405  0.0343  0.4176
 2740TIP3    H232416   6.679   6.023   7.779 -0.9285 -1.1250 -0.9093
 2741TIP3   OH232417   3.066   5.123   8.106  0.1434  0.2714  0.1928
 2741TIP3    H132418   3.150   5.097   8.070  0.5728  0.3642  1.1135
 2741TIP3    H232419   3.087   5.185   8.176 -0.7322  0.9621 -0.1349
 2742TIP3   OH232420   6.425   0.789   8.197  1.1555  0.1218 -0.0246
 2742TIP3    H132421   6.446   0.878   8.169  0.3170  0.2618 -0.2494
 2742TIP3    H232422   6.335   0.795   8.229  0.1479 -1.1207 -2.3706
 2743TIP3   OH232423   4.247   0.693   9.399 -0.2335  0.2946  0.3451
 2743TIP3    H132424   4.324   0.639   9.413  0.8554  1.5277 -0.6632
 2743TIP3    H232425   4.174   0.637   9.426  0.9340 -1.1788  0.6042
 2744TIP3   OH232426   1.073   6.979   9.338 -0.4581  0.2690  0.3902
 2744TIP3    H132427   0.994   7.028   9.361 -0.8969 -0.2271 -0.0314
 2744TIP3    H232428   1.059   6.892   9.376 -0.4398 -0.0348 -0.2727
 2745TIP3   OH232429   2.240   0.252   8.400 -0.5390  0.1886 -0.0013
 2745TIP3    H132430   2.278   0.258   8.488  0.3059 -1.4409 -0.2032
 2745TIP3    H232431   2.166   0.312   8.401 -0.5633  0.1743  1.8389
 2746TIP3   OH232432   6.107   2.516   8.588  0.3734  0.0980 -0.6590
 2746TIP3    H132433   6.159   2.575   8.534 -0.4226  0.6904 -0.7888
 2746TIP3    H232434   6.135   2.428   8.561  0.3682  0.3933 -1.6495
 2747TIP3   OH232435   2.474   2.754   8.284 -0.1726  0.0576 -0.4774
 2747TIP3    H132436   2.444   2.844   8.276  1.7926  0.7545 -0.3258
 2747TIP3    H232437   2.545   2.746   8.221 -0.2112 -1.3554 -0.3772
 2748TIP3   OH232438   0.714   0.285   8.817  0.1143  0.3876 -0.0725
 2748TIP3    H132439   0.740   0.296   8.726 -1.3373 -0.3631 -0.6168
 2748TIP3    H232440   0.622   0.313   8.819 -0.5931 -1.7980  0.6333
 2749TIP3   OH232441   7.395   0.521   7.821  0.2246  0.6264 -0.0078
 2749TIP3    H132442   7.391   0.429   7.792  0.8614  0.7134 -0.3882
 2749TIP3    H232443   7.333   0.525   7.894  0.3412 -0.1560  0.1497
 2750TIP3   OH232444   5.146   6.396   7.608 -0.3904  0.1215  0.4101
 2750TIP3    H132445   5.060   6.397   7.566  0.1587 -1.0883 -0.8338
 2750TIP3    H232446   5.159   6.305   7.635  0.6576  0.2029  0.2402
 2751TIP3   OH232447   2.430   0.278   7.905 -0.7424  0.0797  0.2252
 2751TIP3    H132448   2.370   0.262   7.977  0.1163 -2.5375  0.4485
 2751TIP3    H232449   2.390   0.236   7.829  0.0192 -0.3023  0.0176
 2752TIP3   OH232450   0.027   0.415   7.694  0.3336  0.6841  0.1041
 2752TIP3    H132451   0.113   0.412   7.653  0.2881  1.3055 -0.0538
 2752TIP3    H232452   0.023   0.502   7.735  0.5530 -0.0605  1.8175
 2753TIP3   OH232453   6.899   3.838   6.649 -0.4903 -0.1657  0.0877
 2753TIP3    H132454   6.934   3.750   6.663 -0.5351 -0.2894 -0.5707
 2753TIP3    H232455   6.970   3.896   6.676  0.4618 -0.4136 -1.7048
 2754TIP3   OH232456   7.630   1.945   8.891  0.6506  0.0997 -0.2759
 2754TIP3    H132457   7.549   1.991   8.914 -0.0984 -0.0193 -2.3707
 2754TIP3    H232458   7.700   2.008   8.908  0.1860  0.1226  1.7935
 2755TIP3   OH232459   2.735   5.498   9.317 -0.2701 -0.0307  0.5858
 2755TIP3    H132460   2.742   5.454   9.402  0.5316 -2.6352 -0.7469
 2755TIP3    H232461   2.804   5.564   9.318  0.5442 -0.8753  1.4910
 2756TIP3   OH232462   4.532   0.431   7.478 -0.3078  0.2558 -0.0311
 2756TIP3    H132463   4.454   0.481   7.454 -0.9636 -1.1107 -0.9356
 2756TIP3    H232464   4.520   0.347   7.433  2.5096  0.6041 -1.6282
 2757TIP3   OH232465   4.826   5.554   9.000  0.0325  0.0035  0.2575
 2757TIP3    H132466   4.807   5.519   8.912 -0.1295  1.4133 -0.2882
 2757TIP3    H232467   4.862   5.641   8.984 -0.0209  0.2859  1.5960
 2758TIP3   OH232468   1.655   1.610   8.616 -0.0159  1.1359 -0.2997
 2758TIP3    H132469   1.729   1.608   8.677 -1.2455  1.0801  1.2302
 2758TIP3    H232470   1.632   1.703   8.609  0.9834  1.3143 -1.8209
 2759TIP3   OH232471   5.138   7.614   8.694  0.0489 -0.2058 -1.1082
 2759TIP3    H132472   5.183   7.547   8.744 -0.2990  0.4805  0.1527
 2759TIP3    H232473   5.204   7.681   8.679 -0.5299  0.9004  0.9261
 2760TIP3   OH232474   1.565   3.961   6.268 -0.2972 -0.1078 -0.2249
 2760TIP3    H132475   1.645   4.002   6.235  0.2208 -0.8266  0.0974
 2760TIP3    H232476   1.555   3.882   6.215 -0.2384 -0.5355  0.3893
 2761TIP3   OH232477   1.083   7.065   8.021  0.3389 -0.4599  0.6773
 2761TIP3    H132478   0.995   7.103   8.016  0.0136 -1.3089 -0.2841
 2761TIP3    H232479   1.138   7.126   7.971 -0.0522 -0.8770 -0.2773
 2762TIP3   OH232480   4.055   4.695   8.295 -0.0749  0.0527 -0.4807
 2762TIP3    H132481   4.000   4.769   8.319  0.0923  0.4780 -1.3615
 2762TIP3    H232482   4.084   4.714   8.205  1.9512  0.1200  0.1320
 2763TIP3   OH232483   4.244   2.519   9.483 -0.2921 -0.3189 -0.1200
 2763TIP3    H132484   4.196   2.540   9.402  0.2040  0.3122 -0.2604
 2763TIP3    H232485   4.216   2.586   9.545 -0.8051 -0.9091  0.2960
 2764TIP3   OH232486   4.960   6.111   7.013  0.6186 -0.2526 -0.4683
 2764TIP3    H132487   5.032   6.072   7.062  0.5551 -1.3159 -1.1851
 2764TIP3    H232488   4.920   6.037   6.967 -0.1343  0.5197 -1.0816
 2765TIP3   OH232489   4.089   3.786   8.731 -0.0356  0.3903 -0.2375
 2765TIP3    H132490   4.073   3.758   8.641 -2.0064 -1.2428  0.5737
 2765TIP3    H232491   4.184   3.774   8.742 -0.0479 -1.3124 -1.4809
 2766TIP3   OH232492   6.811   7.355   8.100 -0.2225 -0.1037 -0.3995
 2766TIP3    H132493   6.819   7.446   8.072 -1.3745 -0.0798 -0.6955
 2766TIP3    H232494   6.739   7.355   8.163 -0.6211 -0.9096 -0.8382
 2767TIP3   OH232495   5.766   1.698   6.582 -0.1691 -0.0771  0.0598
 2767TIP3    H132496   5.677   1.733   6.588  0.4299  1.4036  0.9411
 2767TIP3    H232497   5.821   1.774   6.564  0.7437 -1.2496 -2.4793
 2768TIP3   OH232498   0.707   1.684   9.607 -0.5295  0.4008 -0.6703
 2768TIP3    H132499   0.739   1.594   9.616 -1.6535  0.0452 -0.0435
 2768TIP3    H232500   0.766   1.736   9.663  1.1772  0.3549 -2.3406
 2769TIP3   OH232501   0.817   7.145   9.299 -0.2076  0.3717 -0.2593
 2769TIP3    H132502   0.735   7.134   9.251 -1.0342 -1.2516  1.4198
 2769TIP3    H232503   0.799   7.112   9.387  2.5118 -1.0181 -0.1053
 2770TIP3   OH232504   3.522   7.242   9.121  0.1669  0.3810 -0.3412
 2770TIP3    H132505   3.463   7.256   9.047 -0.0150  0.3414 -0.2041
 2770TIP3    H232506   3.464   7.231   9.196  0.3465  0.2306 -0.2246
 2771TIP3   OH232507   1.529   0.891   6.738  0.3079 -0.1224 -0.0535
 2771TIP3    H132508   1.509   0.984   6.751 -2.5377 -0.3089 -2.1139
 2771TIP3    H232509   1.600   0.891   6.673  2.4303  0.5324  2.1238
 2772TIP3   OH232510   5.303   6.527   9.381  0.1688  0.3623  0.1376
 2772TIP3    H132511   5.237   6.483   9.328  1.2989  1.0651 -1.9524
 2772TIP3    H232512   5.318   6.469   9.455 -2.8089  0.2073  0.7500
 2773TIP3   OH232513   2.678   7.400   8.787 -0.3496  0.2025 -0.4888
 2773TIP3    H132514   2.678   7.386   8.692 -0.5750  0.7689 -0.5750
 2773TIP3    H232515   2.744   7.467   8.801 -0.6917  0.5009 -0.3043
 2774TIP3   OH232516   4.547   5.828   6.932 -0.1021  0.0734  0.7048
 2774TIP3    H132517   4.622   5.804   6.987  0.4354 -0.0586 -0.0572
 2774TIP3    H232518   4.473   5.780   6.968  0.6129 -1.4529  0.2273
 2775TIP3   OH232519   4.439   3.779   7.282  0.3674 -0.4332 -0.3758
 2775TIP3    H132520   4.525   3.737   7.273  1.0554  1.2459 -2.0999
 2775TIP3    H232521   4.458   3.871   7.300 -1.0867 -0.0973 -0.3871
 2776TIP3   OH232522   4.587   1.514   8.858  0.5981 -0.0017 -0.3105
 2776TIP3    H132523   4.601   1.503   8.952  1.4170  1.6153 -0.1981
 2776TIP3    H232524   4.670   1.491   8.818  0.4709 -0.0123 -0.5707
 2777TIP3   OH232525   0.752   3.819   7.550 -0.2661 -0.3758  0.3708
 2777TIP3    H132526   0.817   3.851   7.488  0.6002 -1.6953  0.5602
 2777TIP3    H232527   0.745   3.889   7.615  2.3236 -0.9089  1.3395
 2778TIP3   OH232528   6.281   2.650   9.131  0.0508 -0.3292 -0.2208
 2778TIP3    H132529   6.285   2.673   9.038 -0.5280 -0.1020 -0.1953
 2778TIP3    H232530   6.209   2.703   9.165  0.0996 -0.5992  0.3050
 2779TIP3   OH232531   2.998   6.211   7.635 -0.5957 -0.0326 -0.0744
 2779TIP3    H132532   3.031   6.170   7.555  2.2159 -1.1435  1.5142
 2779TIP3    H232533   2.937   6.146   7.672  0.0727 -0.6603 -0.0541
 2780TIP3   OH232534   6.296   1.346   9.013  0.2065 -0.0458  0.6862
 2780TIP3    H132535   6.238   1.313   8.944  0.5207  1.5325 -0.3948
 2780TIP3    H232536   6.263   1.307   9.093 -1.5090 -0.2452 -0.0814
 2781TIP3   OH232537   6.466   5.177   8.591  0.4580  0.0745 -0.3787
 2781TIP3    H132538   6.414   5.165   8.670 -1.4525 -0.3136 -1.6318
 2781TIP3    H232539   6.505   5.092   8.575 -0.0970 -0.1644 -0.4808
 2782TIP3   OH232540   7.302   3.902   9.177  0.0166 -0.0102  0.3798
 2782TIP3    H132541   7.224   3.954   9.194 -1.1020 -1.6833  0.5642
 2782TIP3    H232542   7.337   3.937   9.096  0.3459  2.1941  1.3907
 2783TIP3   OH232543   5.531   1.222   9.291  0.2846 -0.3002 -0.1329
 2783TIP3    H132544   5.611   1.275   9.282 -0.8311  1.2721 -1.5359
 2783TIP3    H232545   5.467   1.282   9.328 -0.6305 -1.1203 -0.3621
 2784TIP3   OH232546   1.754   7.199   7.739 -0.1209 -0.9927  0.0200
 2784TIP3    H132547   1.729   7.110   7.715  0.6704 -0.9037 -1.2501
 2784TIP3    H232548   1.772   7.242   7.655 -2.4654  1.0083  0.4239
 2785TIP3   OH232549   2.295   1.155   9.458  0.3412 -0.1139  0.3593
 2785TIP3    H132550   2.211   1.154   9.411  0.5324 -0.9799  0.0230
 2785TIP3    H232551   2.325   1.245   9.451  1.0295 -0.4815 -2.3901
 2786TIP3   OH232552   4.088   0.792   7.290 -0.4744 -0.0506 -0.0912
 2786TIP3    H132553   3.999   0.798   7.326 -0.2413  0.4675  0.4054
 2786TIP3    H232554   4.077   0.808   7.197 -0.6216  2.3908  0.2938
 2787TIP3   OH232555   5.245   2.237   9.161  0.2361 -1.0333 -0.3623
 2787TIP3    H132556   5.295   2.297   9.216 -0.7320 -1.2267  0.7646
 2787TIP3    H232557   5.294   2.234   9.078  0.2219  1.4351 -0.5199
 2788TIP3   OH232558   4.510   2.833   8.202 -0.2237 -0.1088  0.2102
 2788TIP3    H132559   4.549   2.849   8.288 -1.8072  1.3598  0.7261
 2788TIP3    H232560   4.574   2.868   8.139 -0.3504  1.6604  0.9952
 2789TIP3   OH232561   2.766   2.333   9.361  0.1656 -0.0722  0.3754
 2789TIP3    H132562   2.701   2.397   9.332  0.6063  0.8452  1.3524
 2789TIP3    H232563   2.715   2.259   9.394 -0.3459 -0.6325 -1.5553
 2790TIP3   OH232564   0.425   2.958   7.285 -0.3522 -0.3931  0.4421
 2790TIP3    H132565   0.471   3.035   7.320  0.5349 -1.4018  1.5914
 2790TIP3    H232566   0.346   2.952   7.338 -1.3247  0.7038 -0.8104
 2791TIP3   OH232567   4.946   5.589   7.719 -0.4910  1.1736 -0.7737
 2791TIP3    H132568   4.857   5.579   7.685  0.2342  2.1459 -3.0949
 2791TIP3    H232569   4.972   5.499   7.741 -1.8145  0.7986 -0.5951
 2792TIP3   OH232570   6.877   4.800   8.258 -0.2392 -0.0573 -0.0022
 2792TIP3    H132571   6.805   4.753   8.216  0.9659  0.0333 -2.3358
 2792TIP3    H232572   6.940   4.731   8.281 -0.8321 -0.0934  1.6502
 2793TIP3   OH232573   5.680   6.566   7.457  0.2266  0.5370 -0.0755
 2793TIP3    H132574   5.593   6.530   7.439  0.1675  0.1716  0.9117
 2793TIP3    H232575   5.738   6.491   7.450  0.4880  0.7971 -0.8204
 2794TIP3   OH232576   2.253   1.855   6.749 -0.0490  0.0036 -0.6084
 2794TIP3    H132577   2.280   1.916   6.818  1.0067 -1.9032  0.7419
 2794TIP3    H232578   2.158   1.866   6.744 -0.2505 -0.2384  1.6264
 2795TIP3   OH232579   4.785   2.116   8.355  0.0056  0.5488 -0.7734
 2795TIP3    H132580   4.738   2.170   8.418  0.4345  1.8807 -1.5435
 2795TIP3    H232581   4.742   2.030   8.359 -0.1787  0.6981  1.0592
 2796TIP3   OH232582   3.169   6.434   9.408 -0.6090  0.2345 -0.0809
 2796TIP3    H132583   3.217   6.382   9.472 -0.1155  1.1541  0.3237
 2796TIP3    H232584   3.236   6.492   9.370 -0.4108 -1.6902 -2.9795
 2797TIP3   OH232585   6.750   4.667   8.507  0.1174 -0.2470  0.1692
 2797TIP3    H132586   6.746   4.620   8.591 -0.6361  0.9174  0.8173
 2797TIP3    H232587   6.664   4.650   8.467  0.4151 -0.6644 -0.3050
 2798TIP3   OH232588   4.988   4.835   6.908  0.7293  0.1930  0.3864
 2798TIP3    H132589   4.912   4.876   6.867 -0.7288 -0.0208  2.6678
 2798TIP3    H232590   4.980   4.742   6.885  0.7504  0.2932 -0.0273
 2799TIP3   OH232591   6.010   5.383   7.710 -0.2944 -0.3850  0.0210
 2799TIP3    H132592   5.919   5.404   7.694  0.0109  0.9808 -0.0419
 2799TIP3    H232593   6.018   5.382   7.805 -0.0878  0.9394  0.0378
 2800TIP3   OH232594   4.839   5.606   7.438  0.5447  0.0249  0.8276
 2800TIP3    H132595   4.852   5.522   7.482 -1.3977 -1.2993 -0.9247
 2800TIP3    H232596   4.875   5.593   7.350 -0.7109  0.6585  0.1974
 2801TIP3   OH232597   0.706   7.270   9.760 -0.1434 -0.1105  0.1292
 2801TIP3    H132598   0.661   7.332   9.818 -0.4815 -0.6023  0.4017
 2801TIP3    H232599   0.714   7.316   9.677  0.1909  0.5413  0.5145
 2802TIP3   OH232600   3.951   6.875   7.767  0.3546 -0.6312 -0.0990
 2802TIP3    H132601   3.864   6.845   7.744  0.1862  0.3193 -0.7941
 2802TIP3    H232602   3.973   6.940   7.700  0.8761  0.4228  1.0266
 2803TIP3   OH232603   4.397   6.378   8.882  0.3654  0.3792  0.5772
 2803TIP3    H132604   4.343   6.393   8.960  1.2037  0.6388  1.1236
 2803TIP3    H232605   4.417   6.285   8.884 -0.9064  0.0661 -0.2031
 2804TIP3   OH232606   6.310   1.616   7.770  0.0791 -0.3068  0.2293
 2804TIP3    H132607   6.236   1.564   7.738  0.3890 -1.5699  1.4411
 2804TIP3    H232608   6.270   1.681   7.827 -0.3015  0.7286 -1.1812
 2805TIP3   OH232609   7.401   6.682   9.552  0.2361 -0.2414  0.1302
 2805TIP3    H132610   7.356   6.763   9.576 -0.7855 -0.6007 -0.5265
 2805TIP3    H232611   7.345   6.612   9.586  0.1887 -0.7016 -0.8632
 2806TIP3   OH232612   6.216   7.284   9.204  0.5876  0.4938  0.5478
 2806TIP3    H132613   6.163   7.220   9.253 -1.1398  0.4090 -1.3063
 2806TIP3    H232614   6.188   7.274   9.113  2.6132  1.6831 -0.2732
 2807TIP3   OH232615   7.645   7.513   7.205  0.2031  0.3758  0.6065
 2807TIP3    H132616   7.701   7.507   7.282 -0.4377  0.5464  1.0961
 2807TIP3    H232617   7.632   7.422   7.178  0.7756  0.3393  0.4361
 2808TIP3   OH232618   1.495   2.326   9.142 -0.4391  0.4159 -0.1840
 2808TIP3    H132619   1.552   2.282   9.079  0.0025  0.6000  0.0778
 2808TIP3    H232620   1.545   2.325   9.224 -2.2330 -2.6065  1.0494
 2809TIP3   OH232621   1.666   3.095   9.250  0.4378 -0.2792  0.1446
 2809TIP3    H132622   1.722   3.025   9.283  1.5644  0.8415  0.6872
 2809TIP3    H232623   1.676   3.166   9.313  0.4506  0.9074 -1.1297
 2810TIP3   OH232624   6.641   3.598   8.973 -0.6309  0.4330 -0.3504
 2810TIP3    H132625   6.634   3.559   9.060 -0.0104  0.6746 -0.1839
 2810TIP3    H232626   6.715   3.658   8.980 -0.3839  0.2317 -1.1277
 2811TIP3   OH232627   2.044   1.772   7.239  0.5380  0.2405 -0.1601
 2811TIP3    H132628   2.063   1.766   7.145 -1.7599 -0.8564 -0.6080
 2811TIP3    H232629   2.113   1.720   7.280 -0.4281 -2.3160 -1.5577
 2812TIP3   OH232630   4.162   0.384   8.240 -0.7630  0.2618 -0.4086
 2812TIP3    H132631   4.135   0.438   8.315 -0.8669 -0.7296  0.2866
 2812TIP3    H232632   4.251   0.413   8.221 -0.6285  0.3330  0.2909
 2813TIP3   OH232633   7.281   7.010   7.478  0.0288  0.4216  0.2751
 2813TIP3    H132634   7.202   7.062   7.461  0.2387  0.3651 -0.9869
 2813TIP3    H232635   7.352   7.075   7.480  0.2684  0.2400 -1.1376
 2814TIP3   OH232636   2.473   2.823   7.178 -0.7572  0.2150  0.8052
 2814TIP3    H132637   2.388   2.846   7.138 -0.0912  0.5733 -0.4782
 2814TIP3    H232638   2.460   2.736   7.215 -1.6999  0.2875  0.6683
 2815TIP3   OH232639   3.896   2.885   8.519 -0.0479  0.9095  0.0682
 2815TIP3    H132640   3.966   2.846   8.468 -1.3301 -0.6364 -0.6142
 2815TIP3    H232641   3.923   2.873   8.610  0.5985  0.3711 -0.1851
 2816TIP3   OH232642   0.390   5.236   8.879 -0.2403 -0.3208 -0.3577
 2816TIP3    H132643   0.400   5.268   8.790 -0.0301  0.2669 -0.1287
 2816TIP3    H232644   0.384   5.315   8.933  1.4132 -0.6373  0.3503
 2817TIP3   OH232645   1.385   3.753   7.334  0.8712  0.4036  0.1814
 2817TIP3    H132646   1.302   3.773   7.291 -0.2471 -1.3515  1.3754
 2817TIP3    H232647   1.365   3.755   7.428  2.8910  2.7069  0.6742
 2818TIP3   OH232648   3.851   1.095   8.600 -0.0119 -0.1170  0.4072
 2818TIP3    H132649   3.765   1.056   8.615  0.1682 -1.0806 -0.9333
 2818TIP3    H232650   3.879   1.061   8.514  2.1307 -0.6080  1.2318
 2819TIP3   OH232651   1.741   6.504   8.696  0.3086  0.3414  0.2851
 2819TIP3    H132652   1.760   6.494   8.603 -0.1674 -0.9286  0.2906
 2819TIP3    H232653   1.757   6.417   8.732 -1.1287  0.3682  1.0677
 2820TIP3   OH232654   1.860   1.280   9.278  0.1178 -0.1866  0.3063
 2820TIP3    H132655   1.789   1.326   9.322  1.9536  1.2557  1.9267
 2820TIP3    H232656   1.820   1.245   9.198 -3.0274 -1.7546  2.3806
 2821TIP3   OH232657   4.024   6.940   6.861  0.1883  0.0426  0.0792
 2821TIP3    H132658   4.053   6.849   6.865 -0.6902 -0.5130 -3.2989
 2821TIP3    H232659   3.929   6.935   6.863  0.0766  0.6660 -1.9507
 2822TIP3   OH232660   7.430   0.184   7.306  0.3664 -0.2559  0.0846
 2822TIP3    H132661   7.458   0.238   7.380  1.9082 -1.0413  0.1316
 2822TIP3    H232662   7.500   0.194   7.242  0.8024 -2.2993  0.1763
 2823TIP3   OH232663   2.426   1.897   9.305  0.0771  0.4690 -0.1311
 2823TIP3    H132664   2.396   1.979   9.345  1.3988  0.8576  0.1349
 2823TIP3    H232665   2.439   1.919   9.213 -2.1722 -0.2063 -0.6761
 2824TIP3   OH232666   1.095   1.335   8.835 -0.0217  0.3665  0.0339
 2824TIP3    H132667   1.165   1.283   8.795  1.0068  2.1197 -0.5292
 2824TIP3    H232668   1.074   1.287   8.916  0.0149 -1.5677 -1.0391
 2825TIP3   OH232669   5.666   4.669   8.113  0.6606  0.5784 -0.0024
 2825TIP3    H132670   5.738   4.635   8.167 -1.0605 -2.7918  0.4325
 2825TIP3    H232671   5.587   4.629   8.150 -1.0337  1.1821 -2.6841
 2826TIP3   OH232672   3.395   1.346   8.708 -0.3680  0.1150  0.5789
 2826TIP3    H132673   3.342   1.329   8.631  0.2877 -0.1961  0.1873
 2826TIP3    H232674   3.332   1.352   8.780 -1.1998  2.5642 -0.2599
 2827TIP3   OH232675   5.678   0.790   8.422  0.3261 -0.9007  0.5472
 2827TIP3    H132676   5.666   0.781   8.327 -0.8627  0.3106  0.5506
 2827TIP3    H232677   5.673   0.884   8.438  1.6324 -0.9969  1.6961
 2828TIP3   OH232678   0.852   4.423   8.389  0.5598  0.0489  0.3114
 2828TIP3    H132679   0.942   4.431   8.422  0.7343  1.0493 -0.3733
 2828TIP3    H232680   0.811   4.507   8.409  0.2357  0.1498 -0.7333
 2829TIP3   OH232681   0.865   5.597   8.422  0.3859  0.3308 -0.2897
 2829TIP3    H132682   0.818   5.559   8.347 -1.0247  1.1712  0.1269
 2829TIP3    H232683   0.796   5.623   8.482  1.4612  0.6353  0.8538
 2830TIP3   OH232684   5.334   4.791   6.584 -0.3861  0.1832 -0.2107
 2830TIP3    H132685   5.265   4.793   6.517  0.0350 -1.6886 -0.7708
 2830TIP3    H232686   5.414   4.816   6.537 -0.3830  0.5577 -0.0031
 2831TIP3   OH232687   1.628   5.464   7.227  0.2586  0.4881 -0.5975
 2831TIP3    H132688   1.609   5.481   7.134 -0.0114  0.4010 -0.5602
 2831TIP3    H232689   1.542   5.462   7.268  0.3183 -0.3831 -0.5024
 2832TIP3   OH232690   7.516   5.816   8.890  0.5966 -0.0331 -0.4689
 2832TIP3    H132691   7.594   5.865   8.915 -0.3520  2.3719 -1.8136
 2832TIP3    H232692   7.515   5.819   8.794 -1.0824 -0.0548 -0.4893
 2833TIP3   OH232693   3.828   7.488   7.239  0.3061 -0.1488  0.1940
 2833TIP3    H132694   3.739   7.488   7.272 -0.6510 -0.1500 -2.1945
 2833TIP3    H232695   3.838   7.572   7.194  1.3459 -0.3223  0.0602
 2834TIP3   OH232696   4.832   7.458   8.411 -0.4052  0.2164 -0.2362
 2834TIP3    H132697   4.872   7.539   8.441 -2.5897  0.9363  0.9116
 2834TIP3    H232698   4.802   7.477   8.322  1.5394 -0.2948 -1.0644
 2835TIP3   OH232699   4.369   5.387   7.603 -0.5291  0.4711  0.0222
 2835TIP3    H132700   4.407   5.424   7.524  0.8510  1.9137  1.2752
 2835TIP3    H232701   4.405   5.299   7.609 -0.6853  0.3332 -0.9730
 2836TIP3   OH232702   7.566   4.667   8.358  0.8495 -0.6211  0.2076
 2836TIP3    H132703   7.525   4.627   8.434 -2.1704  0.0345 -0.9032
 2836TIP3    H232704   7.603   4.749   8.391 -0.7098 -0.1797  0.9788
 2837TIP3   OH232705   2.017   5.107   7.401 -0.3283 -0.0451 -0.1025
 2837TIP3    H132706   2.107   5.108   7.369 -0.1578 -1.5937  0.2276
 2837TIP3    H232707   1.980   5.191   7.373  1.4017  0.9013  0.3201
 2838TIP3   OH232708   6.802   1.952   7.756  0.3156  0.3250 -0.6749
 2838TIP3    H132709   6.877   1.914   7.710  1.0442 -0.0627  0.7660
 2838TIP3    H232710   6.741   1.978   7.687  1.4456 -0.0613 -1.8412
 2839TIP3   OH232711   5.301   4.335   8.012 -0.3414  0.4072 -0.2260
 2839TIP3    H132712   5.339   4.371   7.931 -0.9504  1.5968 -0.0043
 2839TIP3    H232713   5.206   4.342   7.999 -0.4415  0.8170  0.6878
 2840TIP3   OH232714   4.622   0.633   6.683 -0.4325 -0.2953  0.2939
 2840TIP3    H132715   4.661   0.594   6.762  1.3973  0.2387 -0.2948
 2840TIP3    H232716   4.578   0.560   6.640 -0.7403 -0.7746  1.3787
 2841TIP3   OH232717   4.810   4.494   8.733  0.0446  0.1599  0.2168
 2841TIP3    H132718   4.827   4.511   8.825  0.8989  0.6022 -0.0111
 2841TIP3    H232719   4.721   4.528   8.718 -1.3664 -2.6100  1.5401
 2842TIP3   OH232720   4.193   0.579   7.723 -0.0578  0.2306  0.3662
 2842TIP3    H132721   4.195   0.644   7.793 -0.7326  0.7486 -0.0878
 2842TIP3    H232722   4.273   0.596   7.672 -0.5433  1.1206 -0.1149
 2843TIP3   OH232723   0.970   1.395   8.380  0.0717  0.8399  0.0097
 2843TIP3    H132724   0.961   1.386   8.475 -0.4176  1.1379 -0.0027
 2843TIP3    H232725   0.882   1.417   8.350  0.5832  2.6617 -0.2926
 2844TIP3   OH232726   2.787   6.753   7.378 -0.1448  0.4676  0.0868
 2844TIP3    H132727   2.712   6.765   7.437 -1.3940 -0.0553 -1.3177
 2844TIP3    H232728   2.787   6.659   7.359  0.5856  0.5425 -0.2906
 2845TIP3   OH232729   7.479   1.956   8.481 -0.1281 -0.3406  0.4040
 2845TIP3    H132730   7.551   1.899   8.508 -0.2589 -0.2381  1.0005
 2845TIP3    H232731   7.491   1.968   8.387  1.8042  1.2671  0.7921
 2846TIP3   OH232732   1.619   1.864   8.573 -0.2779 -0.0939 -1.1148
 2846TIP3    H132733   1.690   1.866   8.509  0.1426 -1.2875 -0.7109
 2846TIP3    H232734   1.651   1.920   8.645  0.7889 -1.5141 -0.4320
 2847TIP3   OH232735   3.855   0.593   7.128  0.5906 -0.0277 -0.2155
 2847TIP3    H132736   3.924   0.535   7.159  0.8115  0.2967 -0.0994
 2847TIP3    H232737   3.788   0.534   7.094  0.4381 -0.3762  0.6744
 2848TIP3   OH232738   0.056   5.996   8.817 -0.0305 -0.1761 -0.4521
 2848TIP3    H132739   0.113   6.061   8.858 -0.1023  0.3675 -1.1806
 2848TIP3    H232740  -0.005   6.048   8.765 -1.0092 -0.7659  0.0828
 2849TIP3   OH232741   1.990   2.813   8.004  0.2111  0.0142 -0.0581
 2849TIP3    H132742   1.929   2.739   8.007  1.2123 -0.8264  0.1804
 2849TIP3    H232743   2.043   2.803   8.083  2.2387 -0.6802 -1.4308
 2850TIP3   OH232744   5.767   1.164   8.433 -0.1429 -0.3405  0.1482
 2850TIP3    H132745   5.711   1.234   8.399 -0.7929 -1.5125 -1.3040
 2850TIP3    H232746   5.720   1.130   8.509 -0.1029  0.4048  0.5146
 2851TIP3   OH232747   5.436   3.274   8.014 -0.2910 -0.5288 -0.3586
 2851TIP3    H132748   5.406   3.330   8.085  0.0667  1.1420 -1.4463
 2851TIP3    H232749   5.518   3.237   8.045 -0.9261 -1.0770  0.6849
 2852TIP3   OH232750   4.505   5.972   7.465  0.3693  0.4948 -0.2285
 2852TIP3    H132751   4.483   5.879   7.466  0.8361  0.3727 -0.7918
 2852TIP3    H232752   4.570   5.982   7.535  1.2226  0.1607 -0.9642
 2853TIP3   OH232753   2.414   4.092   8.587  0.0508  0.4883  0.3630
 2853TIP3    H132754   2.477   4.036   8.632  0.0588 -1.1194 -1.4962
 2853TIP3    H232755   2.455   4.112   8.503 -2.0776 -1.1346 -1.1757
 2854TIP3   OH232756   0.436   5.357   8.277 -0.1866  0.3383 -0.1010
 2854TIP3    H132757   0.428   5.450   8.300 -0.1627  0.4691 -0.6184
 2854TIP3    H232758   0.346   5.329   8.261 -0.3661 -0.1091  1.4853
 2855TIP3   OH232759   5.321   2.595   7.424 -0.3171 -0.3709  0.3694
 2855TIP3    H132760   5.233   2.578   7.391 -0.1195  0.1730 -0.4624
 2855TIP3    H232761   5.331   2.690   7.418  0.7958 -0.5267 -0.7996
 2856TIP3   OH232762   6.354   6.437   7.894 -0.3724  0.3697  0.1683
 2856TIP3    H132763   6.434   6.489   7.900 -0.6696  1.0513 -1.4478
 2856TIP3    H232764   6.312   6.466   7.814 -1.5368 -1.0072  0.2412
 2857TIP3   OH232765   2.205   3.049   7.363  0.3887  0.0273 -0.1693
 2857TIP3    H132766   2.170   3.137   7.371 -2.8832 -1.1142 -0.3721
 2857TIP3    H232767   2.145   3.005   7.303  1.9362 -2.3275 -0.1066
 2858TIP3   OH232768   4.876   6.589   7.870 -0.3629 -0.3611  0.2055
 2858TIP3    H132769   4.903   6.503   7.838  2.0683  0.2147  0.5490
 2858TIP3    H232770   4.936   6.608   7.942  0.2692  2.2982 -0.9096
 2859TIP3   OH232771   3.819   1.515   8.851  0.1602  0.1114  0.7157
 2859TIP3    H132772   3.801   1.424   8.825 -0.0855 -0.4159  2.5719
 2859TIP3    H232773   3.750   1.536   8.914 -0.5163  2.0568 -0.5889
 2860TIP3   OH232774   1.432   5.903   8.511  0.0580 -0.0932  0.5936
 2860TIP3    H132775   1.362   5.842   8.489  0.8874 -0.6539 -0.6355
 2860TIP3    H232776   1.399   5.988   8.485 -0.4763 -0.2304  0.8038
 2861TIP3   OH232777   1.168   3.483   9.514 -0.6642 -0.0803  0.1898
 2861TIP3    H132778   1.177   3.565   9.563  1.8723 -0.5806  0.7275
 2861TIP3    H232779   1.212   3.501   9.431  1.9732 -1.4231  1.1554
 2862TIP3   OH232780   2.630   4.369   7.889 -0.4158 -0.5520  0.0844
 2862TIP3    H132781   2.542   4.408   7.891 -1.2308 -2.2621  0.2436
 2862TIP3    H232782   2.652   4.364   7.796  0.2907  1.4483  0.1137
 2863TIP3   OH232783   5.183   4.283   6.960 -0.2642 -0.1683  0.1783
 2863TIP3    H132784   5.130   4.300   7.038 -0.0737 -0.0324  0.2761
 2863TIP3    H232785   5.273   4.300   6.987 -0.1856 -0.2353 -0.0381
 2864TIP3   OH232786   5.718   0.571   9.491 -0.0580  0.1323  0.0129
 2864TIP3    H132787   5.723   0.516   9.569  0.1123  0.8284  0.4925
 2864TIP3    H232788   5.659   0.523   9.432  0.2696 -0.6766  0.3272
 2865TIP3   OH232789   3.350   0.537   8.520  0.4444 -0.2027  0.0469
 2865TIP3    H132790   3.305   0.553   8.437 -0.2096  0.8728  0.5908
 2865TIP3    H232791   3.439   0.571   8.506  1.6928 -3.7052 -1.5443
 2866TIP3   OH232792   4.826   1.224   8.792 -0.1653  0.1448  0.8540
 2866TIP3    H132793   4.865   1.275   8.862 -0.8694 -0.1957  1.5080
 2866TIP3    H232794   4.808   1.288   8.723 -1.8203  0.9675  1.9854
 2867TIP3   OH232795   7.520   4.258   7.320  0.1083 -0.5698 -0.3022
 2867TIP3    H132796   7.479   4.213   7.393  0.1875  0.6974  0.5592
 2867TIP3    H232797   7.447   4.291   7.267  0.0113  0.3893  0.4102
 2868TIP3   OH232798   7.530   3.445   8.954  0.0230  0.0142  0.1175
 2868TIP3    H132799   7.572   3.452   8.869  0.3965  2.1032  0.4328
 2868TIP3    H232800   7.537   3.532   8.992 -0.9060 -0.6481  1.9347
 2869TIP3   OH232801   2.226   6.821   9.042  0.4584  0.3810  0.2545
 2869TIP3    H132802   2.200   6.807   8.951 -0.5309  1.9069  0.2787
 2869TIP3    H232803   2.163   6.770   9.093  1.2694 -0.8251  0.1186
 2870TIP3   OH232804   1.060   5.120   7.282 -0.3881  0.3644  0.2581
 2870TIP3    H132805   0.974   5.079   7.275  0.1254 -0.8742  0.8979
 2870TIP3    H232806   1.095   5.087   7.364  0.8226  0.6118 -0.1418
 2871TIP3   OH232807   0.871   3.372   7.374  0.2699 -0.4423 -0.0620
 2871TIP3    H132808   0.852   3.439   7.440 -0.7140 -1.7786  1.0852
 2871TIP3    H232809   0.817   3.397   7.299  2.2226  1.7135 -0.8820
 2872TIP3   OH232810   3.745   0.686   8.448  0.1523 -0.9298 -0.1377
 2872TIP3    H132811   3.754   0.776   8.419  1.8830 -0.8774  0.4288
 2872TIP3    H232812   3.679   0.690   8.517 -0.7168 -0.3306 -0.9793
 2873TIP3   OH232813   3.782   6.303   7.086 -0.4337 -0.9451 -0.2961
 2873TIP3    H132814   3.759   6.214   7.113 -0.4847 -0.7391  0.3693
 2873TIP3    H232815   3.829   6.292   7.004 -1.9043 -1.4671 -1.0998
 2874TIP3   OH232816   1.280   3.353   8.093 -0.1603  0.2961  0.3638
 2874TIP3    H132817   1.354   3.334   8.036  0.9147 -0.4393  1.9582
 2874TIP3    H232818   1.313   3.341   8.181 -1.0947  3.6989  1.3180
 2875TIP3   OH232819   0.175   4.485   7.260 -0.0856  0.1509  0.3018
 2875TIP3    H132820   0.154   4.401   7.300  0.3560  0.4772  1.2412
 2875TIP3    H232821   0.153   4.474   7.168 -1.8934 -0.3652  0.7505
 2876TIP3   OH232822   5.145   6.430   9.176 -0.1188 -0.4591  0.2338
 2876TIP3    H132823   5.058   6.396   9.154  0.1023 -0.7427 -0.2163
 2876TIP3    H232824   5.156   6.505   9.118  0.4945 -1.2490 -0.6996
 2877TIP3   OH232825   4.143   1.257   9.416 -0.5197  0.0692  0.2151
 2877TIP3    H132826   4.129   1.350   9.436  0.0270  0.4401 -1.0203
 2877TIP3    H232827   4.181   1.257   9.328  2.3459 -1.1281  1.3171
 2878TIP3   OH232828   3.368   1.307   7.413 -0.1811  0.6310 -0.8581
 2878TIP3    H132829   3.421   1.280   7.487  1.2793  1.3151 -1.6088
 2878TIP3    H232830   3.394   1.248   7.342 -2.0043 -0.4233 -0.7128
 2879TIP3   OH232831   3.272   6.057   9.121 -0.2394 -0.1753 -0.5112
 2879TIP3    H132832   3.211   5.983   9.128 -0.7472  0.3818  2.0432
 2879TIP3    H232833   3.222   6.132   9.155  0.8856  0.9390 -1.2472
 2880TIP3   OH232834   5.264   4.995   7.407  0.2390 -0.1224  0.2004
 2880TIP3    H132835   5.227   5.011   7.321 -1.2387 -0.8188  0.6819
 2880TIP3    H232836   5.356   4.972   7.390  0.2236  0.6984 -1.0839
 2881TIP3   OH232837   5.147   7.512   8.373 -0.3787  0.3231 -0.1555
 2881TIP3    H132838   5.123   7.523   8.465 -1.7135  2.2656 -0.6668
 2881TIP3    H232839   5.064   7.513   8.326  0.2897 -0.5726 -1.4091
 2882TIP3   OH232840   6.752   2.499   8.475  0.0748 -0.1463  0.1255
 2882TIP3    H132841   6.699   2.421   8.490  1.1706 -0.9143  0.1183
 2882TIP3    H232842   6.766   2.536   8.562 -0.3431 -0.0258  0.1421
 2883TIP3   OH232843   5.357   5.633   8.813 -0.7720 -0.4450  0.7833
 2883TIP3    H132844   5.370   5.566   8.747 -1.2137  0.8885 -0.7328
 2883TIP3    H232845   5.441   5.680   8.817 -0.6148 -0.7694  1.4894
 2884TIP3   OH232846   3.427   0.872   8.832 -0.1423  0.1311  0.2988
 2884TIP3    H132847   3.434   0.890   8.926 -1.4471  1.9593  0.1002
 2884TIP3    H232848   3.343   0.827   8.823 -0.1703  0.2500 -0.0286
 2885TIP3   OH232849   6.034   7.135   9.345 -0.3183  0.1671 -0.0762
 2885TIP3    H132850   6.000   7.103   9.261 -2.0081  0.1589  0.5868
 2885TIP3    H232851   5.959   7.133   9.404  0.3249  2.1706  0.8962
 2886TIP3   OH232852   1.438   1.317   9.046 -0.1260  0.0625  0.6428
 2886TIP3    H132853   1.511   1.372   9.077 -1.6009  1.8718  1.1286
 2886TIP3    H232854   1.451   1.310   8.952  0.6017  0.5007  0.7065
 2887TIP3   OH232855   6.219   6.203   7.524  0.0496  0.1314 -0.3371
 2887TIP3    H132856   6.164   6.276   7.498 -0.7209  0.0264  0.9498
 2887TIP3    H232857   6.292   6.243   7.570 -0.8387  0.0708  1.1818
 2888TIP3   OH232858   0.172   6.811   9.223  0.1031 -0.1524 -0.0232
 2888TIP3    H132859   0.076   6.816   9.232  0.2839  2.2484  1.3430
 2888TIP3    H232860   0.202   6.777   9.307  0.5170 -0.2887 -0.2255
 2889TIP3   OH232861   5.328   3.883   9.058  0.0470 -0.3817 -0.3505
 2889TIP3    H132862   5.262   3.940   9.018  1.3105  0.8271 -0.7958
 2889TIP3    H232863   5.343   3.814   8.993 -1.8467 -1.5898  0.3957
 2890TIP3   OH232864   7.211   6.329   8.598 -0.3951  0.6502 -0.2718
 2890TIP3    H132865   7.146   6.264   8.626 -0.2858  0.7468  0.2069
 2890TIP3    H232866   7.233   6.303   8.508  1.4259 -1.4555  0.6790
 2891TIP3   OH232867   7.348   4.400   6.906 -0.5866  0.4112 -0.2181
 2891TIP3    H132868   7.314   4.472   6.854  0.5764  0.6541 -0.6721
 2891TIP3    H232869   7.435   4.430   6.935 -0.4765 -0.4277  0.3663
 2892TIP3   OH232870   5.377   1.204   7.982 -0.1393 -0.4666 -0.7793
 2892TIP3    H132871   5.395   1.209   8.076  0.4684  0.0999 -0.9223
 2892TIP3    H232872   5.362   1.294   7.955 -0.5953 -0.6581 -1.1750
 2893TIP3   OH232873   3.470   2.919   8.990 -0.0924  0.2589 -0.9853
 2893TIP3    H132874   3.392   2.864   8.991 -1.7880  2.4746  1.2623
 2893TIP3    H232875   3.466   2.966   8.906 -0.9535  0.0634 -1.0538
 2894TIP3   OH232876   2.217   3.929   7.790 -0.0041  0.0052  0.2434
 2894TIP3    H132877   2.217   3.862   7.858 -0.7169 -0.0594  0.1789
 2894TIP3    H232878   2.173   3.889   7.715  1.9915 -0.4200 -0.7715
 2895TIP3   OH232879   4.591   3.813   7.691 -0.1592 -0.6425  0.6415
 2895TIP3    H132880   4.629   3.797   7.605  2.0177  0.5540  1.3087
 2895TIP3    H232881   4.582   3.726   7.731 -1.5493 -1.2428 -0.8704
 2896TIP3   OH232882   2.187   3.765   6.370 -0.1825 -0.4118 -0.5197
 2896TIP3    H132883   2.173   3.678   6.332  0.5623 -0.8659  0.2156
 2896TIP3    H232884   2.275   3.789   6.343 -0.5599  0.3397 -1.1256
 2897TIP3   OH232885   2.024   2.608   8.219  0.3385 -0.1920 -0.0568
 2897TIP3    H132886   2.102   2.567   8.257  1.4004  0.6912 -1.2253
 2897TIP3    H232887   1.952   2.552   8.247  1.5102 -1.6696  0.1216
 2898TIP3   OH232888   5.911   0.765   7.396 -0.0055 -0.1563 -0.3642
 2898TIP3    H132889   5.916   0.745   7.303 -3.5461  1.0865 -0.9915
 2898TIP3    H232890   5.943   0.856   7.403 -2.0182  0.6360 -0.8669
 2899TIP3   OH232891   4.864   3.709   7.796 -0.4970 -0.4283  0.9367
 2899TIP3    H132892   4.885   3.797   7.827  0.2691  0.0432 -0.8123
 2899TIP3    H232893   4.769   3.709   7.789 -0.4919  0.3377  0.7447
 2900TIP3   OH232894   2.234   2.451   7.545 -1.0446 -0.0449 -0.2839
 2900TIP3    H132895   2.176   2.514   7.589 -0.7471  0.0283  0.0177
 2900TIP3    H232896   2.208   2.366   7.580 -2.1003 -0.2099 -1.4226
 2901TIP3   OH232897   5.022   0.637   9.600 -0.2317  0.1777  0.4139
 2901TIP3    H132898   5.005   0.570   9.534 -1.9768 -0.2400  1.2523
 2901TIP3    H232899   5.088   0.598   9.658  0.6399  0.1989 -0.5332
 2902TIP3   OH232900   2.630   1.176   8.948  0.6622  0.1880  0.3998
 2902TIP3    H132901   2.587   1.135   9.023  0.7862 -0.7761 -0.0370
 2902TIP3    H232902   2.674   1.103   8.903 -0.0102  0.6155 -1.0157
 2903TIP3   OH232903   2.410   7.607   7.504 -0.0577 -0.2897  0.1668
 2903TIP3    H132904   2.468   7.608   7.428  1.6797  1.1977  1.4243
 2903TIP3    H232905   2.464   7.573   7.575 -1.2695 -0.4974  1.0255
 2904TIP3   OH232906   4.625   0.034   8.031 -0.1761  0.3614  0.2547
 2904TIP3    H132907   4.618  -0.010   7.946 -0.2571  0.6343  0.1195
 2904TIP3    H232908   4.535   0.034   8.064  0.2597 -2.6650  1.8399
 2905TIP3   OH232909   0.538   5.248   7.402 -0.0589  0.6022 -0.0299
 2905TIP3    H132910   0.515   5.264   7.310 -0.1271  1.0128  0.0556
 2905TIP3    H232911   0.590   5.324   7.428  0.3956  0.2438  0.1276
 2906TIP3   OH232912   0.161   0.865   8.952 -0.3775 -0.2498  0.1215
 2906TIP3    H132913   0.068   0.887   8.950 -0.2176  0.4168 -0.1255
 2906TIP3    H232914   0.165   0.774   8.923 -0.8982 -0.0845 -0.4737
 2907TIP3   OH232915   4.160   0.873   9.207  0.4058 -0.1205  0.1647
 2907TIP3    H132916   4.235   0.911   9.161  0.1569 -0.0914 -0.2221
 2907TIP3    H232917   4.199   0.810   9.268  0.7950  0.5501  0.6085
 2908TIP3   OH232918   1.215   0.993   9.646 -0.4020 -0.1472  0.2898
 2908TIP3    H132919   1.262   1.039   9.716  0.0768 -0.4939  0.2015
 2908TIP3    H232920   1.149   0.942   9.692  1.3608 -2.1845  0.7454
 2909TIP3   OH232921   1.087   2.924   7.680  0.0510  0.5561 -0.2431
 2909TIP3    H132922   1.147   2.902   7.609  1.9688 -1.1404  1.7604
 2909TIP3    H232923   1.143   2.926   7.758 -2.1976  0.8548  1.4417
 2910TIP3   OH232924   1.759   0.686   9.273  0.0716  0.5806  0.2294
 2910TIP3    H132925   1.749   0.715   9.364  0.2781  1.0786  0.0976
 2910TIP3    H232926   1.732   0.762   9.221 -1.9960 -0.3424 -0.1461
 2911TIP3   OH232927   3.629   1.569   7.492  0.5391 -0.1527  0.0961
 2911TIP3    H132928   3.666   1.485   7.467  1.4935  0.3256 -0.1201
 2911TIP3    H232929   3.537   1.549   7.513  0.9390 -1.3663  0.7842
 2912TIP3   OH232930   1.459   4.292   7.171  0.0494 -0.3336 -0.2800
 2912TIP3    H132931   1.524   4.321   7.236  0.0087  0.9434 -0.7886
 2912TIP3    H232932   1.420   4.214   7.211  0.3926  0.1102  0.9948
 2913TIP3   OH232933   5.728   6.337   8.612  0.2845  0.0969 -0.0310
 2913TIP3    H132934   5.785   6.284   8.556 -0.6347 -1.2330  0.2448
 2913TIP3    H232935   5.664   6.275   8.646  1.0712  0.7445  2.8918
 2914TIP3   OH232936   6.750   1.843   8.404  0.1073 -0.0815 -0.6053
 2914TIP3    H132937   6.678   1.907   8.408  1.1376  1.0860  0.3140
 2914TIP3    H232938   6.709   1.759   8.422 -1.2212  0.3686 -1.3720
 2915TIP3   OH232939   1.310   4.855   6.969 -0.6683  0.4200  0.6214
 2915TIP3    H132940   1.372   4.874   6.899 -0.5427  0.3717  0.7176
 2915TIP3    H232941   1.233   4.906   6.948 -1.4151 -1.1292 -0.6620
 2916TIP3   OH232942   5.559   0.483   6.669  0.0533 -0.3163  0.0669
 2916TIP3    H132943   5.499   0.550   6.702  0.2112 -0.3519  0.4310
 2916TIP3    H232944   5.504   0.405   6.660  0.0887 -0.4012  0.5882
 2917TIP3   OH232945   4.142   5.036   7.582 -0.2248 -0.0545 -0.0692
 2917TIP3    H132946   4.169   5.030   7.673 -0.7182  0.0151  0.0884
 2917TIP3    H232947   4.065   4.979   7.576  0.5999 -1.1355 -0.7654
 2918TIP3   OH232948   3.946   3.618   7.196  0.1205  0.2031  0.3236
 2918TIP3    H132949   3.939   3.563   7.117 -0.0220  0.3399  0.2419
 2918TIP3    H232950   4.028   3.666   7.184 -0.0751  0.4845  0.0917
 2919TIP3   OH232951   1.603   1.795   7.742 -0.0679  0.0765  0.4781
 2919TIP3    H132952   1.544   1.870   7.751  1.1637  1.0693  0.4770
 2919TIP3    H232953   1.691   1.833   7.745  0.6531 -1.5828  2.6048
 2920TIP3   OH232954   6.032   0.646   8.637  0.3567  0.2640  0.2301
 2920TIP3    H132955   5.992   0.713   8.693  0.0795 -1.3215  2.0002
 2920TIP3    H232956   5.980   0.650   8.556 -0.9694  0.8159  1.0629
 2921TIP3   OH232957   5.247   3.884   8.139  0.7328 -0.0085  0.1239
 2921TIP3    H132958   5.213   3.795   8.133 -0.8725  0.5170  0.7231
 2921TIP3    H232959   5.267   3.908   8.048  2.5980 -1.4444  0.0942
 2922TIP3   OH232960   4.273   4.086   7.526 -0.0968 -0.2901 -0.2715
 2922TIP3    H132961   4.211   4.049   7.463 -1.0170 -0.4848  0.7117
 2922TIP3    H232962   4.349   4.110   7.474 -0.8362 -0.4343 -1.4516
 2923TIP3   OH232963   3.785   0.812   9.039  0.3027 -0.0475  1.1900
 2923TIP3    H132964   3.800   0.899   9.002 -0.1511 -0.0523  0.9959
 2923TIP3    H232965   3.694   0.814   9.069 -0.4939 -1.2227 -0.9530
 2924TIP3   OH232966   2.177   7.337   7.137  0.1928  0.2400  0.3574
 2924TIP3    H132967   2.257   7.294   7.167  1.9160  1.9329 -1.5441
 2924TIP3    H232968   2.114   7.266   7.127  2.0435 -1.4261  0.0417
 2925TIP3   OH232969   2.823   0.238   8.701  0.1317  0.5327  0.4589
 2925TIP3    H132970   2.915   0.220   8.720  0.5489  2.6667  0.6540
 2925TIP3    H232971   2.816   0.227   8.606  0.4817 -0.0101  0.4900
 2926TIP3   OH232972   3.332   4.458   9.101  0.1079 -0.0929 -0.0770
 2926TIP3    H132973   3.317   4.536   9.154 -0.2571  1.0818 -1.8293
 2926TIP3    H232974   3.406   4.415   9.143  0.6717  1.4926  0.6537
 2927TIP3   OH232975   5.050   6.658   8.097  0.3363 -0.2180 -0.1165
 2927TIP3    H132976   5.103   6.604   8.156  1.0221  1.5664  0.9564
 2927TIP3    H232977   4.970   6.677   8.145  0.2139 -0.0410 -0.3838
 2928TIP3   OH232978   3.500   2.247   8.150 -0.0862  0.1010  0.1835
 2928TIP3    H132979   3.569   2.237   8.084 -0.5546 -0.2190 -0.2605
 2928TIP3    H232980   3.419   2.229   8.103 -0.3709 -0.8581  1.0099
 2929TIP3   OH232981   7.374   3.180   9.273 -0.8132 -0.2911  0.0293
 2929TIP3    H132982   7.460   3.151   9.244 -0.5833  0.3204  0.0847
 2929TIP3    H232983   7.344   3.112   9.332  0.4901  0.4259  1.5881
 2930TIP3   OH232984   3.428   2.593   8.184  0.1440  0.1733 -0.7438
 2930TIP3    H132985   3.448   2.575   8.092 -0.6979  0.5488 -1.0127
 2930TIP3    H232986   3.366   2.524   8.209 -0.2237  0.5125 -0.6938
 2931TIP3   OH232987   7.289   3.122   8.434 -0.2339  0.1723 -0.2276
 2931TIP3    H132988   7.306   3.045   8.379 -0.8812  0.5342 -0.9527
 2931TIP3    H232989   7.375   3.159   8.450  0.2085 -1.2891  1.0221
 2932TIP3   OH232990   4.266   7.428   8.536 -0.0320 -0.0663 -0.1161
 2932TIP3    H132991   4.176   7.460   8.537 -0.4348 -0.9452  2.9115
 2932TIP3    H232992   4.313   7.484   8.598  0.3069 -2.3402  1.8399
 2933TIP3   OH232993   1.795   3.888   6.093  0.3522  0.0265  0.0225
 2933TIP3    H132994   1.737   3.937   6.034  2.6215 -0.8586 -3.2692
 2933TIP3    H232995   1.870   3.946   6.106  0.6429 -0.4692  0.5835
 2934TIP3   OH232996   7.164   3.417   7.113 -0.9722  0.1356 -0.0897
 2934TIP3    H132997   7.192   3.330   7.139  0.6316  0.8615  0.7744
 2934TIP3    H232998   7.157   3.413   7.018 -1.5073 -1.0886 -0.0063
 2935TIP3   OH232999   1.803   7.359   8.099 -0.0063 -0.3654  0.2966
 2935TIP3    H133000   1.763   7.443   8.080  2.4337  0.8643  0.1650
 2935TIP3    H233001   1.833   7.365   8.189 -0.0389 -1.2019  0.3765
 2936TIP3   OH233002   3.768   6.847   9.394 -0.3235  0.2091  0.3837
 2936TIP3    H133003   3.725   6.886   9.318  0.1124  0.9077  0.4839
 2936TIP3    H233004   3.857   6.884   9.392  1.0841 -2.8751 -1.1015
 2937TIP3   OH233005   6.975   1.929   7.068  0.1462  0.1171 -0.5510
 2937TIP3    H133006   6.973   2.023   7.086 -1.8195  0.0456 -0.2462
 2937TIP3    H233007   6.899   1.894   7.114  1.4060 -1.8009  0.1918
 2938TIP3   OH233008   6.814   3.928   8.581 -0.6410  0.1304  0.2367
 2938TIP3    H133009   6.776   4.015   8.563 -0.0030 -0.1990 -3.4224
 2938TIP3    H233010   6.907   3.938   8.562 -0.1175 -0.8631  2.0431
 2939TIP3   OH233011   5.853   5.269   8.790 -0.1510 -0.0192 -0.1304
 2939TIP3    H133012   5.828   5.321   8.867  0.8591  0.7210 -0.2825
 2939TIP3    H233013   5.882   5.334   8.726  0.6005 -0.7444 -0.5333
 2940TIP3   OH233014   1.871   4.329   7.566  0.2868  0.1208 -0.0244
 2940TIP3    H133015   1.943   4.357   7.509  0.9774 -1.7689 -0.1646
 2940TIP3    H233016   1.914   4.294   7.644 -0.5314 -0.0058  0.3812
 2941TIP3   OH233017   4.491   0.027   7.564 -0.4179  0.7927  0.0630
 2941TIP3    H133018   4.546   0.008   7.488 -1.0292  0.8651 -0.4125
 2941TIP3    H233019   4.416   0.074   7.527 -1.6307 -0.7537  0.4500
 2942TIP3   OH233020   2.420   3.057   8.719  0.2686  0.3131  0.8738
 2942TIP3    H133021   2.470   3.110   8.658 -0.1518  0.1439  0.3710
 2942TIP3    H233022   2.400   2.977   8.671  1.6360 -0.7040  1.9094
 2943TIP3   OH233023   1.766   5.769   8.563  0.1633  0.6492  0.0580
 2943TIP3    H133024   1.806   5.682   8.568  0.1285  0.6098 -0.2923
 2943TIP3    H233025   1.733   5.775   8.473  0.8390  1.3210 -0.1558
 2944TIP3   OH233026   1.576   5.561   9.412 -0.3612  0.3334  0.4438
 2944TIP3    H133027   1.585   5.655   9.392 -1.1343  0.1583 -0.8758
 2944TIP3    H233028   1.662   5.535   9.444 -0.5438  1.8109  2.3310
 2945TIP3   OH233029   7.170   2.614   8.764  0.1094 -0.4999  0.2569
 2945TIP3    H133030   7.181   2.692   8.818  1.8269 -0.3438 -0.2524
 2945TIP3    H233031   7.078   2.589   8.776 -0.4307  1.4781  0.5640
 2946TIP3   OH233032   3.303   4.738   8.259 -0.1246 -0.2732 -0.3331
 2946TIP3    H133033   3.300   4.729   8.164 -0.2264  0.3206 -0.3913
 2946TIP3    H233034   3.287   4.649   8.292 -0.2900 -0.4456 -0.8649
 2947TIP3   OH233035   0.072   2.782   9.199  0.6145 -0.0940 -0.1435
 2947TIP3    H133036   0.127   2.770   9.276  1.2098 -0.2554 -0.5864
 2947TIP3    H233037   0.111   2.725   9.132  0.3900  0.4044 -0.7070
 2948TIP3   OH233038   0.101   2.055   8.659  0.7982  0.1143 -0.4860
 2948TIP3    H133039   0.092   1.976   8.606  2.3692 -0.6488  0.3077
 2948TIP3    H233040   0.193   2.080   8.650  0.6836  0.9824  0.4832
 2949TIP3   OH233041   0.161   0.425   8.979  0.2875 -0.3013 -0.1895
 2949TIP3    H133042   0.152   0.371   8.900 -0.3610  0.7489 -0.8616
 2949TIP3    H233043   0.115   0.506   8.958  0.8112  0.3277  0.9769
 2950TIP3   OH233044   3.508   6.922   7.405  0.1960  0.9481 -0.1604
 2950TIP3    H133045   3.441   6.914   7.336  0.7117  1.1055 -0.6865
 2950TIP3    H233046   3.588   6.944   7.358  0.4099  1.7590  0.5611
 2951TIP3   OH233047   0.661   6.310   7.267 -0.0800 -0.0062  0.0592
 2951TIP3    H133048   0.648   6.369   7.193 -0.4430 -0.4268 -0.2225
 2951TIP3    H233049   0.574   6.296   7.303  0.3581  2.5790  2.5096
 2952TIP3   OH233050   4.529   7.131   7.404 -0.1492  0.2183  0.5319
 2952TIP3    H133051   4.548   7.093   7.318  1.6273  0.2079  0.8964
 2952TIP3    H233052   4.456   7.190   7.387 -1.5575 -1.7007 -0.4571
 2953TIP3   OH233053   1.593   2.768   7.253 -0.5993  0.1163 -0.4513
 2953TIP3    H133054   1.654   2.795   7.321 -2.1715  2.1866  0.2394
 2953TIP3    H233055   1.534   2.706   7.296  1.6242 -2.9590 -1.4523
 2954TIP3   OH233056   2.491   3.822   6.401  0.4050 -0.9213  0.7441
 2954TIP3    H133057   2.584   3.840   6.388  0.3788 -0.3877  1.2758
 2954TIP3    H233058   2.485   3.790   6.491  0.4708 -3.7828 -0.1711
 2955TIP3   OH233059   0.567   2.959   7.692  0.2819  0.5837  0.2715
 2955TIP3    H133060   0.473   2.973   7.682  0.0257 -0.5423  0.8718
 2955TIP3    H233061   0.596   3.031   7.747 -0.6019 -0.0593  1.6436
 2956TIP3   OH233062   2.621   1.612   7.950  0.0180  0.5042  0.0615
 2956TIP3    H133063   2.698   1.668   7.953  1.0663 -0.7390 -1.8455
 2956TIP3    H233064   2.566   1.651   7.882  0.1111  0.0514 -0.2843
 2957TIP3   OH233065   0.248   7.366   9.286 -0.3241  0.8469  0.7647
 2957TIP3    H133066   0.342   7.373   9.306  0.0603  0.5596 -0.7928
 2957TIP3    H233067   0.216   7.456   9.290 -0.3553  0.7869  2.8421
 2958TIP3   OH233068   0.514   3.796   7.238 -0.0402  0.3080 -0.0692
 2958TIP3    H133069   0.543   3.843   7.160 -1.6659 -0.5377 -1.2384
 2958TIP3    H233070   0.491   3.864   7.301  0.0556  1.0197 -0.7959
 2959TIP3   OH233071   2.489   7.061   8.763  0.1108 -0.0195  0.0465
 2959TIP3    H133072   2.470   6.971   8.737 -0.5570  0.0401  0.3011
 2959TIP3    H233073   2.437   7.114   8.702  1.3488  0.2384 -0.8178
 2960TIP3   OH233074   5.571   7.229   7.144  0.0509 -0.4280 -0.3657
 2960TIP3    H133075   5.662   7.204   7.127  0.5760  0.2962  1.1804
 2960TIP3    H233076   5.577   7.318   7.179 -1.2800 -0.3061 -0.4120
 2961TIP3   OH233077   5.600   1.259   7.561 -0.2069 -0.6096 -0.5293
 2961TIP3    H133078   5.694   1.270   7.551 -0.2038 -0.3718 -0.2590
 2961TIP3    H233079   5.562   1.327   7.504 -0.1824  1.4367  1.7199
 2962TIP3   OH233080   7.211   0.449   8.014 -0.6656  0.4848 -0.0138
 2962TIP3    H133081   7.155   0.502   8.069 -2.3339 -2.9331  1.8741
 2962TIP3    H233082   7.280   0.417   8.073 -0.2020 -0.1467 -0.8695
 2963TIP3   OH233083   4.350   6.611   7.053 -0.2934 -0.1299  0.1233
 2963TIP3    H133084   4.443   6.625   7.036 -0.7141  1.9953 -0.7545
 2963TIP3    H233085   4.344   6.595   7.147  1.0850 -1.9198 -0.0519
 2964TIP3   OH233086   6.013   0.599   7.880  0.3365 -0.0965 -0.6233
 2964TIP3    H133087   6.103   0.626   7.898  0.2095 -0.6764  1.0377
 2964TIP3    H233088   5.959   0.672   7.909  0.1543 -0.8532  1.0718
 2965TIP3   OH233089   7.503   0.469   9.233 -0.1810  0.3770  0.3969
 2965TIP3    H133090   7.553   0.401   9.188 -0.7228 -0.5449  1.1743
 2965TIP3    H233091   7.498   0.541   9.169 -1.2177 -1.0211 -1.1724
 2966TIP3   OH233092   0.458   6.093   8.532 -0.2144  0.2437 -0.2421
 2966TIP3    H133093   0.490   6.165   8.587 -0.7207  0.5584 -0.3533
 2966TIP3    H233094   0.513   6.019   8.556  0.0162  0.5512  0.2067
 2967TIP3   OH233095   3.417   3.848   8.044  0.5878 -0.3805 -0.2430
 2967TIP3    H133096   3.426   3.942   8.033  1.2355 -0.3570  0.4150
 2967TIP3    H233097   3.488   3.810   7.991  0.6593 -0.4779 -0.0785
 2968TIP3   OH233098   3.412   0.337   6.860  0.3488 -0.1931  0.9456
 2968TIP3    H133099   3.386   0.298   6.944 -0.3070 -0.2420  0.7238
 2968TIP3    H233100   3.370   0.423   6.861  0.7831  0.0250  0.8941
 2969TIP3   OH233101   0.542   6.948   9.457  0.4546  0.0667 -0.6531
 2969TIP3    H133102   0.603   7.010   9.495 -1.7803  1.9995  0.0171
 2969TIP3    H233103   0.487   7.000   9.399 -3.0748 -0.5852  1.7385
 2970TIP3   OH233104   0.476   1.889   7.395 -0.1056 -0.2483 -0.6275
 2970TIP3    H133105   0.439   1.803   7.374 -0.1352 -0.7394  1.2721
 2970TIP3    H233106   0.442   1.947   7.327 -0.1872 -1.7088 -1.8655
 2971TIP3   OH233107   0.068   0.295   7.302  0.3502  0.2589 -0.3005
 2971TIP3    H133108   0.002   0.325   7.365  1.1774  0.1863  0.6344
 2971TIP3    H233109   0.118   0.374   7.280  0.0177  0.2955 -0.9203
 2972TIP3   OH233110   1.888   3.589   7.420  0.3606  0.0999 -0.6430
 2972TIP3    H133111   1.963   3.604   7.477  1.2176  0.4818 -1.8220
 2972TIP3    H233112   1.900   3.650   7.347 -0.5022 -0.6087 -1.4159
 2973TIP3   OH233113   0.402   2.911   9.241 -0.2414 -0.3214  0.1560
 2973TIP3    H133114   0.366   2.838   9.291 -0.9649  0.4625  0.8335
 2973TIP3    H233115   0.325   2.958   9.209  0.2089 -0.7733 -1.7001
 2974TIP3   OH233116   5.749   5.475   7.659 -0.1694 -0.3534  0.1410
 2974TIP3    H133117   5.706   5.404   7.706  1.0650 -0.6397  0.9009
 2974TIP3    H233118   5.680   5.516   7.607 -0.8234 -2.4539 -0.7468
 2975TIP3   OH233119   3.017   5.301   7.913  0.1153  0.1353  0.2010
 2975TIP3    H133120   3.009   5.233   7.980  0.4268  0.7605  0.8984
 2975TIP3    H233121   3.091   5.354   7.942  1.9925 -1.1160 -2.0655
 2976TIP3   OH233122   0.537   7.375   9.307  0.2680  0.8592  0.1600
 2976TIP3    H133123   0.508   7.321   9.380  1.7361  0.4913  0.4963
 2976TIP3    H233124   0.628   7.398   9.328  0.6775  0.8649 -1.4574
 2977TIP3   OH233125   7.330   3.923   8.432 -0.2648  0.2241  0.8892
 2977TIP3    H133126   7.310   3.842   8.385 -2.4560 -0.1049  2.2515
 2977TIP3    H233127   7.387   3.895   8.504  1.0084  0.3295 -0.0446
 2978TIP3   OH233128   1.894   3.484   8.125  0.2179 -0.9731 -0.3216
 2978TIP3    H133129   1.808   3.456   8.156  0.5843 -2.3195 -0.4878
 2978TIP3    H233130   1.948   3.489   8.204  0.6286 -2.5185 -0.4776
 2979TIP3   OH233131   4.642   4.492   7.407  0.3217 -0.6849  0.2426
 2979TIP3    H133132   4.587   4.534   7.341 -0.7880 -1.2740  0.7611
 2979TIP3    H233133   4.721   4.465   7.359  0.7108  1.1978 -0.2692
 2980TIP3   OH233134   0.563   1.531   8.063  0.0395 -0.5609 -0.4876
 2980TIP3    H133135   0.493   1.529   8.128  1.0766  1.0315  0.7358
 2980TIP3    H233136   0.625   1.595   8.096  2.6510 -2.6794 -0.9914
 2981TIP3   OH233137   3.387   3.304   7.525 -0.0280  0.0052  0.3768
 2981TIP3    H133138   3.399   3.267   7.612  2.5513 -0.6434 -0.1554
 2981TIP3    H233139   3.392   3.229   7.466 -0.4909  0.5698 -0.4075
 2982TIP3   OH233140   1.964   0.463   9.618  0.2127  0.3268  0.0922
 2982TIP3    H133141   2.041   0.412   9.643 -0.6810 -1.3036 -0.3708
 2982TIP3    H233142   1.908   0.402   9.570 -0.1000  2.1953 -2.1246
 2983TIP3   OH233143   0.005   2.735   6.639 -0.0382 -0.1848  0.6100
 2983TIP3    H133144  -0.041   2.659   6.604 -1.6183  0.2183  1.7267
 2983TIP3    H233145   0.077   2.749   6.578 -1.9196 -0.2813 -1.7687
 2984TIP3   OH233146   6.070   1.992   9.188 -0.3035  0.0324  0.2715
 2984TIP3    H133147   6.098   1.902   9.169  0.3619  0.3917 -0.5356
 2984TIP3    H233148   5.984   1.983   9.229 -0.0920 -0.9900  0.5088
 2985TIP3   OH233149   6.019   6.232   8.415 -0.5298 -0.9680  0.8735
 2985TIP3    H133150   5.966   6.184   8.351 -1.0956  0.3030  0.3637
 2985TIP3    H233151   5.992   6.323   8.405  0.0669 -0.6175  2.2665
 2986TIP3   OH233152   3.079   4.297   7.244  0.1766 -0.2655  0.4319
 2986TIP3    H133153   3.113   4.216   7.206  1.9875  0.1048  1.1583
 2986TIP3    H233154   3.126   4.367   7.197  1.1049  0.2413  2.0459
 2987TIP3   OH233155   7.649   1.998   7.989  0.2769 -0.4342  0.3967
 2987TIP3    H133156   7.570   1.974   7.942  0.3125 -0.0609  0.1356
 2987TIP3    H233157   7.701   2.048   7.925 -0.1399  1.0040  1.1279
 2988TIP3   OH233158   7.636   5.965   8.521 -0.0021  0.5887  0.0289
 2988TIP3    H133159   7.592   5.880   8.525  1.7307 -0.3651 -0.0739
 2988TIP3    H233160   7.566   6.029   8.527 -1.3756 -0.8527 -0.0606
 2989TIP3   OH233161   5.426   3.486   8.191  0.2262  0.0300  0.2274
 2989TIP3    H133162   5.475   3.500   8.272 -0.3427 -2.1156  0.9919
 2989TIP3    H233163   5.345   3.536   8.203 -0.3467 -1.1459  1.4948
 2990TIP3   OH233164   0.525   2.658   7.803 -0.6637  0.2857 -0.5821
 2990TIP3    H133165   0.597   2.720   7.794 -1.1038  0.5575 -2.5686
 2990TIP3    H233166   0.455   2.693   7.748 -2.0199 -0.4383  0.5870
 2991TIP3   OH233167   3.371   0.242   7.466 -0.2676  0.2290  0.1477
 2991TIP3    H133168   3.446   0.286   7.426 -1.3501  1.3954 -0.6694
 2991TIP3    H233169   3.326   0.310   7.516 -1.6272 -0.0542 -0.6265
 2992TIP3   OH233170   2.190   7.102   9.184 -0.6258 -0.3110 -0.1877
 2992TIP3    H133171   2.209   7.013   9.154 -1.8183 -0.5005 -0.4451
 2992TIP3    H233172   2.097   7.100   9.207 -0.4884  0.6773  0.5304
 2993TIP3   OH233173   0.301   7.344   7.927 -0.0147  0.7229 -0.3721
 2993TIP3    H133174   0.209   7.342   7.902 -0.0354  1.7159 -0.4051
 2993TIP3    H233175   0.348   7.309   7.852 -0.3548  0.3483 -0.4091
 2994TIP3   OH233176   3.002   5.177   8.804 -0.0981 -0.5222  0.0223
 2994TIP3    H133177   3.003   5.114   8.731 -1.3777 -1.4837  0.7841
 2994TIP3    H233178   3.091   5.210   8.808 -0.1981  0.2937 -2.5903
 2995TIP3   OH233179   5.014   5.762   7.192  0.3475  0.3276  0.2750
 2995TIP3    H133180   4.987   5.833   7.251  0.6697  0.4416  0.2883
 2995TIP3    H233181   5.053   5.697   7.250  0.2106  0.2161  0.2427
 2996TIP3   OH233182   6.292   5.833   8.302 -0.4812 -0.6674  0.0609
 2996TIP3    H133183   6.206   5.793   8.318 -0.7435  0.0547  0.5055
 2996TIP3    H233184   6.292   5.853   8.208 -1.0785 -0.0669  0.1758
 2997TIP3   OH233185   2.938   7.504   8.425  0.1874  0.0248 -0.1000
 2997TIP3    H133186   2.986   7.437   8.473  0.3540  1.2425  1.5160
 2997TIP3    H233187   3.006   7.564   8.394 -0.0808  0.3253 -0.1106
 2998TIP3   OH233188   6.652   1.138   8.715 -0.4042  0.5081  0.5093
 2998TIP3    H133189   6.596   1.131   8.792 -2.0145  0.5508 -0.6220
 2998TIP3    H233190   6.594   1.126   8.641  1.0339  0.8795 -0.7416
 2999TIP3   OH233191   3.567   7.123   8.365  0.3105 -0.3421  0.2564
 2999TIP3    H133192   3.586   7.155   8.453 -0.0195 -1.1633  0.6499
 2999TIP3    H233193   3.471   7.130   8.358  0.4378  0.8598 -0.5145
 3000TIP3   OH233194   0.726   6.807   7.608  0.2778 -0.0628  0.2980
 3000TIP3    H133195   0.730   6.719   7.645  0.2021 -0.5405 -0.7760
 3000TIP3    H233196   0.772   6.800   7.525  0.9939  1.1231  0.5660
 3001TIP3   OH233197   3.444   6.810   8.495 -0.1593  0.7038 -0.6726
 3001TIP3    H133198   3.493   6.728   8.502  1.6764  1.8709  1.8520
 3001TIP3    H233199   3.405   6.807   8.408  1.4430 -1.9615 -1.4284
 3002TIP3   OH233200   6.055   7.407   8.022 -0.9625  0.1692 -0.2046
 3002TIP3    H133201   6.078   7.355   8.099 -0.3717  0.1927 -0.3611
 3002TIP3    H233202   5.969   7.374   7.996 -0.4718 -0.9395 -0.4725
 3003TIP3   OH233203   6.363   7.149   8.198 -0.2094  0.5434  0.3665
 3003TIP3    H133204   6.409   7.233   8.200 -1.5077  1.2964  0.0143
 3003TIP3    H233205   6.378   7.111   8.285  1.5493  0.4529  0.0755
 3004TIP3   OH233206   1.770   4.669   7.455 -0.2252 -0.3490  0.3642
 3004TIP3    H133207   1.778   4.755   7.415 -2.3506  0.0500  0.6765
 3004TIP3    H233208   1.841   4.617   7.415  0.9350  1.4400 -0.0042
 3005TIP3   OH233209   4.945   0.211   9.279 -0.6676  0.2339  0.1847
 3005TIP3    H133210   4.984   0.179   9.197  2.3027 -1.0135  1.9285
 3005TIP3    H233211   4.898   0.135   9.314  1.6813 -0.6401  1.6203
 3006TIP3   OH233212   2.738   0.430   8.901 -0.5119  0.4354 -0.0708
 3006TIP3    H133213   2.740   0.354   8.844 -0.2397  1.5482 -1.6239
 3006TIP3    H233214   2.660   0.418   8.955 -0.0062 -1.3300  0.3299
 3007TIP3   OH233215   5.670   3.985   7.882  0.2906 -0.5400 -0.1468
 3007TIP3    H133216   5.622   3.903   7.888  1.4862 -1.2788 -0.3500
 3007TIP3    H233217   5.625   4.044   7.943  0.5117 -1.9069  1.4165
 3008TIP3   OH233218   2.131   0.522   7.347 -0.4453 -0.3925 -0.4450
 3008TIP3    H133219   2.096   0.582   7.282 -0.8915 -1.5819 -1.3335
 3008TIP3    H233220   2.105   0.435   7.317  1.0303 -1.1268  0.2663
 3009TIP3   OH233221   6.050   4.628   8.472  0.1746 -0.3515 -0.5334
 3009TIP3    H133222   6.031   4.696   8.536  0.8962  0.3409 -1.0364
 3009TIP3    H233223   5.966   4.608   8.431 -0.3658 -1.0394  0.8338
 3010TIP3   OH233224   6.052   1.122   8.787 -0.2836  0.7178  0.3094
 3010TIP3    H133225   6.056   1.216   8.767 -0.3434  0.4148 -1.2543
 3010TIP3    H233226   5.964   1.108   8.820 -0.5994  1.0559 -0.3712
 3011TIP3   OH233227   6.232   2.974   7.930 -0.1375 -0.1493  0.3559
 3011TIP3    H133228   6.239   3.044   7.865 -0.3411  0.6615  1.1786
 3011TIP3    H233229   6.272   2.898   7.888 -0.0202  0.4266 -0.6076
 3012TIP3   OH233230   7.064   7.521   8.594 -0.1087 -0.0076  0.0995
 3012TIP3    H133231   7.120   7.599   8.584  1.7625 -1.3959 -0.8936
 3012TIP3    H233232   7.079   7.492   8.684  0.2809 -0.0052  0.0371
 3013TIP3   OH233233   1.166   5.436   9.329 -0.0518 -0.3197 -0.2419
 3013TIP3    H133234   1.186   5.514   9.381  0.4624 -1.4341  1.3389
 3013TIP3    H233235   1.198   5.456   9.241  2.7246  0.2234  0.7945
 3014TIP3   OH233236   4.716   0.343   7.833  0.3208  0.3877 -0.5109
 3014TIP3    H133237   4.787   0.374   7.778  1.4614 -1.0216  0.1076
 3014TIP3    H233238   4.752   0.341   7.921 -0.8803  0.7935  0.0220
 3015TIP3   OH233239   4.118   7.421   7.913  0.6638  0.6708 -0.3402
 3015TIP3    H133240   4.111   7.326   7.900 -1.2604  0.8176 -0.7165
 3015TIP3    H233241   4.116   7.431   8.008  1.6462  0.3053 -0.2704
 3016TIP3   OH233242   3.417   7.586   8.753 -0.0745 -0.8007 -0.2915
 3016TIP3    H133243   3.461   7.628   8.826  0.3541 -0.1309 -0.9209
 3016TIP3    H233244   3.330   7.626   8.750  0.5611  0.5937 -1.3087
 3017TIP3   OH233245   2.785   2.841   8.516 -0.3666 -0.2877  0.0050
 3017TIP3    H133246   2.779   2.918   8.573  0.5693  0.3517 -0.7404
 3017TIP3    H233247   2.748   2.870   8.433 -1.6285 -1.1866  0.2203
 3018TIP3   OH233248   4.481   5.650   8.665 -0.5110 -0.3419  0.0921
 3018TIP3    H133249   4.483   5.610   8.752  2.9086  1.5549  1.0381
 3018TIP3    H233250   4.436   5.733   8.677  1.0435  0.4797  0.3683
 3019TIP3   OH233251   1.785   0.062   6.477  0.3822 -0.1428 -0.4792
 3019TIP3    H133252   1.810   0.136   6.533 -1.5160  1.0250 -1.0712
 3019TIP3    H233253   1.694   0.044   6.500  0.1378 -0.8579 -1.8683
 3020TIP3   OH233254   0.907   4.588   9.419 -0.2444 -0.4876  0.1620
 3020TIP3    H133255   0.965   4.664   9.426 -1.5709  0.6791 -0.9654
 3020TIP3    H233256   0.964   4.518   9.386  1.1004 -0.1633  1.6504
 3021TIP3   OH233257   0.453   4.728   8.890  0.2020  0.0941  0.1415
 3021TIP3    H133258   0.411   4.683   8.817  2.4013  0.2352 -1.2980
 3021TIP3    H233259   0.384   4.734   8.957 -1.5528 -1.0612 -1.4466
 3022TIP3   OH233260   6.735   1.546   7.427 -0.3928 -0.6452  0.4533
 3022TIP3    H133261   6.770   1.474   7.375 -0.9521 -1.9524  1.7974
 3022TIP3    H233262   6.643   1.553   7.399 -0.5587 -1.0160  0.8912
 3023TIP3   OH233263   4.169   2.832   8.435 -0.3522 -0.0214  0.7174
 3023TIP3    H133264   4.242   2.776   8.464  1.6335  1.5602 -0.9050
 3023TIP3    H233265   4.209   2.917   8.419 -2.4375  0.7323 -0.9677
 3024TIP3   OH233266   0.797   2.153   8.762  0.1306  0.2678 -1.0517
 3024TIP3    H133267   0.715   2.199   8.777 -0.4330 -0.8150 -0.6866
 3024TIP3    H233268   0.829   2.187   8.678  0.4562  2.2941 -0.1547
 3025TIP3   OH233269   4.397   5.363   8.231  0.2226  0.3213  0.1452
 3025TIP3    H133270   4.424   5.388   8.320 -1.0902  1.2100  0.3277
 3025TIP3    H233271   4.414   5.441   8.179 -0.6695  0.4356  0.0005
 3026TIP3   OH233272   4.819   6.303   6.826  0.3812 -0.2540 -0.1486
 3026TIP3    H133273   4.892   6.360   6.803  1.8227 -1.0352  2.1232
 3026TIP3    H233274   4.855   6.244   6.893 -2.2876 -0.7865  0.9533
 3027TIP3   OH233275   2.406   1.431   9.396 -0.4777  0.1791  0.3271
 3027TIP3    H133276   2.377   1.519   9.419 -0.5285  0.4848 -0.8104
 3027TIP3    H233277   2.349   1.405   9.324  1.3864  0.4306 -1.3499
 3028TIP3   OH233278   0.065   1.268   7.759 -0.1454 -0.6213 -1.0639
 3028TIP3    H133279   0.148   1.254   7.804 -0.2584  3.3605  0.7530
 3028TIP3    H233280   0.001   1.220   7.811  0.3618  0.2996  0.4569
 3029TIP3   OH233281   1.357   4.954   9.468  0.2299 -0.0037  0.4757
 3029TIP3    H133282   1.417   4.982   9.537 -0.0844  0.2210  0.6599
 3029TIP3    H233283   1.303   5.030   9.451  0.9125  0.2378 -0.6843
 3030TIP3   OH233284   5.717   5.834   8.537  0.6771 -0.0609 -0.9928
 3030TIP3    H133285   5.801   5.827   8.583  1.1286 -0.0118 -1.7932
 3030TIP3    H233286   5.651   5.830   8.606  1.2802 -1.5122 -0.4563
 3031TIP3   OH233287   3.944   6.213   6.875 -0.3099 -0.6348  0.0755
 3031TIP3    H133288   3.865   6.160   6.882 -0.1631 -0.7529  0.9736
 3031TIP3    H233289   3.999   6.167   6.811  0.3030 -2.2274  1.6513
 3032TIP3   OH233290   2.162   6.772   7.983  0.4874 -0.3743  0.0700
 3032TIP3    H133291   2.180   6.833   7.912  1.9104 -0.6300  0.1690
 3032TIP3    H233292   2.218   6.802   8.055  1.9665 -2.2694 -0.1753
 3033TIP3   OH233293   2.871   0.203   7.915 -0.4055  0.1915 -0.4977
 3033TIP3    H133294   2.808   0.136   7.887  0.4202 -1.5226  1.4916
 3033TIP3    H233295   2.870   0.198   8.011  0.8939  1.9294 -0.3482
 3034TIP3   OH233296   0.939   2.560   8.830  0.2131 -0.4954 -0.0131
 3034TIP3    H133297   0.965   2.499   8.761 -1.2106  0.6102 -1.6085
 3034TIP3    H233298   0.968   2.646   8.799  0.2655 -0.0578  1.1657
 3035TIP3   OH233299   1.772   0.617   7.069  0.2358 -0.0602 -0.2251
 3035TIP3    H133300   1.729   0.610   7.154  0.4039  1.1274 -0.0217
 3035TIP3    H233301   1.700   0.622   7.006  0.1020 -0.1434 -0.0796
 3036TIP3   OH233302   7.455   5.245   8.491 -0.6533  0.1110  0.1802
 3036TIP3    H133303   7.422   5.289   8.570 -1.6220 -0.8687  0.3467
 3036TIP3    H233304   7.483   5.159   8.521  0.7855  0.3998 -0.2317
 3037TIP3   OH233305   4.271   1.088   6.465  0.3099  0.3311 -0.5311
 3037TIP3    H133306   4.268   1.161   6.527  0.5392 -1.3681  1.6277
 3037TIP3    H233307   4.182   1.082   6.431 -0.2454  0.3298  0.8713
 3038TIP3   OH233308   5.760   2.002   7.304 -0.3160  0.1566  0.1122
 3038TIP3    H133309   5.703   2.038   7.237  1.8135  0.3388 -1.7049
 3038TIP3    H233310   5.841   2.052   7.297  0.7691 -1.3104  1.3038
 3039TIP3   OH233311   1.396   1.401   7.067  0.0048 -0.0093  0.5035
 3039TIP3    H133312   1.314   1.449   7.055  2.2078  3.8322 -1.0389
 3039TIP3    H233313   1.430   1.432   7.151  0.9242  0.2617  0.0480
 3040TIP3   OH233314   7.143   4.522   9.226 -0.5184 -0.1432  0.0465
 3040TIP3    H133315   7.065   4.519   9.282  0.6701 -0.2152  1.7670
 3040TIP3    H233316   7.120   4.583   9.156 -1.5175  1.2132  1.4990
 3041TIP3   OH233317   5.636   2.213   8.751  0.0666  0.0273  0.2441
 3041TIP3    H133318   5.705   2.235   8.688  1.1432 -2.4831  0.4220
 3041TIP3    H233319   5.630   2.291   8.807  1.1571  1.1762 -1.1494
 3042TIP3   OH233320   6.943   6.055   7.317  0.0569  0.4352 -0.2029
 3042TIP3    H133321   6.963   6.092   7.231  0.2539  1.4141  0.2524
 3042TIP3    H233322   7.013   6.086   7.374  1.7472 -2.8332 -0.3219
 3043TIP3   OH233323   6.936   0.379   8.137 -0.2990 -0.1162  0.2773
 3043TIP3    H133324   6.913   0.441   8.207 -1.7455  0.9102 -1.0223
 3043TIP3    H233325   6.987   0.312   8.180 -1.2797  0.3888  2.3672
 3044TIP3   OH233326   6.495   3.462   9.227  0.0141 -0.1190 -0.4736
 3044TIP3    H133327   6.528   3.375   9.251  1.4659  0.4266 -0.4051
 3044TIP3    H233328   6.404   3.447   9.202  0.0993 -1.5810  0.0159
 3045TIP3   OH233329   5.865   2.258   8.960  0.4836 -0.0303  0.2050
 3045TIP3    H133330   5.928   2.248   9.032  1.2879  1.1760 -0.2921
 3045TIP3    H233331   5.908   2.319   8.900 -1.4580  1.4013  0.1766
 3046TIP3   OH233332   6.843   2.792   7.368  0.5867 -0.5676  0.1860
 3046TIP3    H133333   6.880   2.797   7.280  0.4339 -1.0069  0.0895
 3046TIP3    H233334   6.753   2.760   7.354  0.6340 -0.8535  0.5119
 3047TIP3   OH233335   3.454   1.267   8.283  0.7297 -0.0158 -0.3362
 3047TIP3    H133336   3.406   1.316   8.216 -0.0047  0.4920  0.5367
 3047TIP3    H233337   3.525   1.224   8.235 -1.4289 -2.0479 -1.9988
 3048TIP3   OH233338   2.561   3.869   7.210 -0.3539 -0.0259 -0.1353
 3048TIP3    H133339   2.640   3.817   7.202 -1.2629 -1.4752 -0.0144
 3048TIP3    H233340   2.489   3.807   7.195 -1.5081  0.9714  0.9818
 3049TIP3   OH233341   1.636   4.689   7.141  0.1260  0.5532  0.1860
 3049TIP3    H133342   1.587   4.615   7.178 -0.5082  1.3250  0.9384
 3049TIP3    H233343   1.708   4.648   7.092  1.2758 -0.5524  2.6080
 3050TIP3   OH233344   1.642   3.592   7.185 -0.1801  0.1118  0.1419
 3050TIP3    H133345   1.728   3.633   7.172  0.3112 -0.6647  0.8835
 3050TIP3    H233346   1.659   3.498   7.179 -1.0925 -0.0375 -0.3034
 3051TIP3   OH233347   5.749   7.126   8.152  0.3531 -0.8214  0.4273
 3051TIP3    H133348   5.768   7.220   8.144  1.1805 -1.0546 -0.7842
 3051TIP3    H233349   5.664   7.122   8.194  0.0622  0.4941  0.0204
 3052TIP3   OH233350   3.910   3.211   8.537 -0.0060 -0.3665 -0.3508
 3052TIP3    H133351   3.837   3.242   8.591 -0.6149 -0.7141 -0.9547
 3052TIP3    H233352   3.883   3.124   8.508  0.4035 -0.2783 -1.0205
 3053TIP3   OH233353   4.733   4.884   7.505 -0.0679 -0.7683  0.5908
 3053TIP3    H133354   4.697   4.852   7.423 -0.2908  1.1762 -0.1195
 3053TIP3    H233355   4.667   4.863   7.571 -1.0123 -0.1862 -0.1523
 3054TIP3   OH233356   3.358   4.853   7.861  0.2818  0.0702 -0.0154
 3054TIP3    H133357   3.384   4.796   7.789  1.5555 -1.6894  1.7058
 3054TIP3    H233358   3.429   4.844   7.925 -1.1293  0.9306  1.7702
 3055TIP3   OH233359   6.901   4.265   8.660  0.2180  0.9021 -0.7012
 3055TIP3    H133360   6.885   4.255   8.754 -2.5720 -0.7700 -1.2571
 3055TIP3    H233361   6.821   4.235   8.619  1.9081  0.1685 -3.7109
 3056TIP3   OH233362   2.097   3.538   7.643  0.2588  0.7023 -0.1996
 3056TIP3    H133363   2.137   3.609   7.591  0.2035  1.1158  0.3149
 3056TIP3    H233364   2.170   3.484   7.671  0.4108  1.1451  0.2757
 3057TIP3   OH233365   1.143   3.268   7.833 -0.3692  0.0613  0.3539
 3057TIP3    H133366   1.178   3.298   7.917 -1.3848 -0.3003  0.9279
 3057TIP3    H233367   1.216   3.226   7.790  0.0320 -0.2627  1.3179
 3058TIP3   OH233368   3.777   7.565   8.388  0.3755 -0.0205  0.0880
 3058TIP3    H133369   3.780   7.640   8.329 -0.0546  0.6334  0.8767
 3058TIP3    H233370   3.688   7.564   8.422  0.3492 -0.9498  0.0250
 3059TIP3   OH233371   6.165   4.332   8.098  0.1932  0.4007  0.0198
 3059TIP3    H133372   6.152   4.375   8.182 -0.4143  1.2459 -0.4906
 3059TIP3    H233373   6.094   4.268   8.092 -1.9909  2.7809 -1.3502
 3060TIP3   OH233374   0.827   2.636   9.063 -0.5428 -0.4615 -0.3097
 3060TIP3    H133375   0.731   2.637   9.067 -0.5169 -0.9188  0.5700
 3060TIP3    H233376   0.847   2.596   8.979 -1.1240  0.2826 -0.8184
 3061TIP3   OH233377   0.444   6.208   9.254 -0.0978  0.3064 -0.0390
 3061TIP3    H133378   0.510   6.150   9.293 -0.4592  0.3222  0.6149
 3061TIP3    H233379   0.360   6.176   9.288 -0.4112  0.4054 -0.7076
 3062TIP3   OH233380   3.456   5.864   8.344  0.5241 -0.1059  0.4888
 3062TIP3    H133381   3.440   5.798   8.411 -0.0027  1.0968  1.5693
 3062TIP3    H233382   3.370   5.882   8.307  0.8537 -1.0163 -0.7935
 3063TIP3   OH233383   0.447   6.923   6.950  0.3458 -0.0786  0.1123
 3063TIP3    H133384   0.447   6.828   6.938  0.2827 -0.0882  0.1871
 3063TIP3    H233385   0.370   6.953   6.902  0.0256 -0.1314  0.5881
 3064TIP3   OH233386   6.499   1.591   8.010  0.1105  0.3857 -0.7148
 3064TIP3    H133387   6.508   1.529   7.938 -1.3703  1.6771 -2.1246
 3064TIP3    H233388   6.414   1.632   7.995 -0.1261  0.9089  1.6548
 3065TIP3   OH233389   2.522   3.831   9.017 -0.1966 -0.2619  0.0452
 3065TIP3    H133390   2.524   3.919   8.981 -2.4209  0.0581  0.5434
 3065TIP3    H233391   2.432   3.801   9.002 -0.7208 -0.8339  3.5199
 3066TIP3   OH233392   6.656   2.349   7.795 -0.0476 -0.1687  0.4235
 3066TIP3    H133393   6.743   2.324   7.765  0.3758  1.3924  0.2463
 3066TIP3    H233394   6.652   2.319   7.886  0.5705 -0.4676  0.3580
 3067TIP3   OH233395   5.414   3.405   7.739 -0.2364  0.4668 -0.0226
 3067TIP3    H133396   5.322   3.424   7.721 -0.1363  1.7524  0.6833
 3067TIP3    H233397   5.412   3.346   7.815 -0.4828  0.0946 -0.3149
 3068TIP3   OH233398   0.361   7.155   8.673  0.4360  0.2625 -0.0004
 3068TIP3    H133399   0.401   7.182   8.591 -0.5573  2.2209  0.0901
 3068TIP3    H233400   0.270   7.135   8.650  0.8572 -2.1886  0.1430
 3069TIP3   OH233401   0.081   2.159   6.645 -0.6073 -0.1997  0.3714
 3069TIP3    H133402   0.116   2.082   6.690  1.3867  0.5627  0.2084
 3069TIP3    H233403   0.047   2.214   6.716 -0.9143 -0.6662  0.5932
 3070TIP3   OH233404   1.358   2.392   7.081 -0.6234  0.6683 -0.2249
 3070TIP3    H133405   1.347   2.297   7.089  1.4084  0.4838  1.2256
 3070TIP3    H233406   1.319   2.414   6.997 -0.4112 -1.5929 -0.9791
 3071TIP3   OH233407   6.116   1.802   7.451  0.2254  0.2836  0.5382
 3071TIP3    H133408   6.096   1.870   7.515  1.7526  1.0533  0.2429
 3071TIP3    H233409   6.144   1.850   7.373 -0.5827 -0.6616 -0.3618
 3072TIP3   OH233410   6.447   1.328   7.552 -0.6874 -0.6690  0.4464
 3072TIP3    H133411   6.534   1.289   7.557  0.0841  0.8809 -0.1626
 3072TIP3    H233412   6.434   1.347   7.459 -2.4044 -2.3649  0.2768
 3073TIP3   OH233413   0.382   7.366   6.925  0.1152  0.5581  0.0419
 3073TIP3    H133414   0.416   7.361   6.836 -1.0935  0.6979 -0.4440
 3073TIP3    H233415   0.308   7.306   6.926  0.4356  0.1511  1.1190
 3074TIP3   OH233416   6.720   0.132   9.247 -0.2114  0.1880 -0.0591
 3074TIP3    H133417   6.711   0.129   9.152 -0.6986 -1.0612  0.0064
 3074TIP3    H233418   6.649   0.075   9.279 -0.1492  0.7148  1.0546
 3075TIP3   OH233419   0.299   2.520   8.748 -0.2458 -0.1476  0.1371
 3075TIP3    H133420   0.368   2.552   8.805 -0.4929  0.4961  0.0915
 3075TIP3    H233421   0.333   2.438   8.712 -0.2960 -0.8317  1.5852
 3076TIP3   OH233422   0.255   5.224   7.919 -0.3916 -0.3553 -0.2726
 3076TIP3    H133423   0.294   5.150   7.965 -0.8873 -0.4408  0.0120
 3076TIP3    H233424   0.324   5.254   7.860 -0.7927 -2.2534 -1.8160
 3077TIP3   OH233425   3.675   0.419   8.388 -0.2292  0.1533 -0.2352
 3077TIP3    H133426   3.716   0.366   8.455  0.2721  0.2777 -0.4442
 3077TIP3    H233427   3.720   0.504   8.392 -0.1180  0.1276 -0.8017
 3078TIP3   OH233428   5.037   0.202   8.305  0.7402  0.5104 -0.3056
 3078TIP3    H133429   5.106   0.143   8.274 -1.5313 -1.8605 -1.1755
 3078TIP3    H233430   4.982   0.217   8.229 -1.7086 -0.6832  1.1020
 3079TIP3   OH233431   1.939   5.060   8.420 -0.2952 -0.0190 -0.2373
 3079TIP3    H133432   1.884   5.079   8.344  1.1870  0.0880 -1.3312
 3079TIP3    H233433   1.925   5.134   8.479 -2.0911 -0.5061 -0.0148
 3080TIP3   OH233434   5.600   4.909   8.518 -0.5039  0.4051  0.0935
 3080TIP3    H133435   5.621   4.885   8.608 -1.5558  0.5993  0.4108
 3080TIP3    H233436   5.617   5.003   8.513  0.0297  0.3027 -0.0597
 3081TIP3   OH233437   0.837   5.410   8.690  0.4449 -0.3900  0.3632
 3081TIP3    H133438   0.861   5.439   8.778  0.1129  1.5375 -0.1532
 3081TIP3    H233439   0.871   5.477   8.632 -0.8854 -0.7205 -0.8623
 3082TIP3   OH233440   6.963   4.756   7.948 -0.0715 -0.3010 -0.3035
 3082TIP3    H133441   6.924   4.693   8.007 -2.1611  0.8234 -0.3904
 3082TIP3    H233442   7.052   4.724   7.934 -0.4558 -2.1577  1.1207
 3083TIP3   OH233443   1.579   0.735   8.866  0.8544  0.0026  0.1409
 3083TIP3    H133444   1.579   0.794   8.941  3.0026  0.0328  0.1805
 3083TIP3    H233445   1.672   0.715   8.851  0.4029 -0.8640 -1.8344
 3084TIP3   OH233446   7.021   5.480   7.926  0.0980  0.1815  0.4407
 3084TIP3    H133447   7.110   5.450   7.912  0.4408  1.5185 -0.4881
 3084TIP3    H233448   6.966   5.419   7.877  0.5618 -0.2382  0.4458
 3085TIP3   OH233449   1.667   2.844   7.530 -0.1401  0.3077  0.3147
 3085TIP3    H133450   1.720   2.829   7.608  2.1490 -0.7046 -1.3255
 3085TIP3    H233451   1.689   2.934   7.503 -0.1040  0.2812  0.2550
 3086TIP3   OH233452   6.288   6.576   7.645 -0.4878 -0.3967  0.2942
 3086TIP3    H133453   6.321   6.663   7.664  0.2422 -0.6888  0.3855
 3086TIP3    H233454   6.193   6.583   7.656 -0.4080  0.3192  0.5355
 3087TIP3   OH233455   0.366   0.948   6.839  0.3505  0.4157 -0.1201
 3087TIP3    H133456   0.370   0.863   6.795  0.0886  0.7590 -0.8093
 3087TIP3    H233457   0.273   0.967   6.846  0.3813  2.3955 -3.4101
 3088TIP3   OH233458   1.377   1.631   8.072  0.0862  0.0828  0.8631
 3088TIP3    H133459   1.462   1.627   8.029  0.0973 -1.1996  0.9915
 3088TIP3    H233460   1.356   1.541   8.095 -1.5388  0.2887  0.3767
 3089TIP3   OH233461   2.457   1.493   7.613  0.0124  0.0676  0.5938
 3089TIP3    H133462   2.390   1.522   7.675  0.0513  0.8199  0.2932
 3089TIP3    H233463   2.413   1.492   7.528  0.7283  2.0052  0.1415
 3090TIP3   OH233464   2.658   6.515   9.567  0.0085 -0.6041 -0.5864
 3090TIP3    H133465   2.620   6.596   9.534  0.7468  0.3839  0.9035
 3090TIP3    H233466   2.747   6.515   9.534  0.7622  0.4043  1.2871
 3091TIP3   OH233467   3.637   5.380   8.243 -0.1011 -0.2608 -0.2165
 3091TIP3    H133468   3.636   5.285   8.229 -1.1200 -0.0555 -1.9167
 3091TIP3    H233469   3.728   5.405   8.231 -0.2054 -0.7371 -2.5420
 3092TIP3   OH233470   2.750   5.662   8.710 -0.4050 -0.1753  0.5778
 3092TIP3    H133471   2.830   5.652   8.762  0.9233  0.6129 -1.1976
 3092TIP3    H233472   2.733   5.757   8.712 -0.3173 -0.1353 -0.4258
 3093TIP3   OH233473   3.928   4.384   8.938 -0.0762  0.0372  0.1234
 3093TIP3    H133474   3.865   4.321   8.970  0.9600 -1.7867 -1.2233
 3093TIP3    H233475   3.958   4.348   8.854  2.1026  1.2518  0.3005
 3094TIP3   OH233476   0.965   1.079   8.482  0.1585 -0.4094  0.4056
 3094TIP3    H133477   0.957   1.168   8.517 -0.1785 -0.3842  0.2715
 3094TIP3    H233478   0.874   1.050   8.470  0.2236 -1.4558  2.1776
 3095TIP3   OH233479   6.653   5.112   9.049 -0.0089  0.0833 -0.2794
 3095TIP3    H133480   6.648   5.073   9.136  0.3665  0.2256 -0.1923
 3095TIP3    H233481   6.601   5.054   8.994 -0.6910  0.2784  0.1381
 3096TIP3   OH233482   6.391   3.037   7.523 -0.5457  0.1483 -0.2194
 3096TIP3    H133483   6.360   3.106   7.464  1.7513  0.3464 -1.3353
 3096TIP3    H233484   6.485   3.055   7.531 -0.7659  0.2538  3.7389
 3097TIP3   OH233485   0.287   5.016   7.265  0.6297  0.0775 -0.0013
 3097TIP3    H133486   0.358   5.081   7.270 -0.2722  1.0667  0.2605
 3097TIP3    H233487   0.222   5.046   7.329 -0.1839 -0.6264 -0.4737
 3098TIP3   OH233488   2.843   4.758   9.158 -0.3181 -0.0332  0.7040
 3098TIP3    H133489   2.939   4.749   9.154 -0.1711  0.0961  2.7678
 3098TIP3    H233490   2.811   4.668   9.152 -0.0899 -0.0622 -0.1934
 3099TIP3   OH233491   5.632   0.488   7.380 -0.2940 -0.0964 -0.4642
 3099TIP3    H133492   5.671   0.514   7.464  0.6559  0.1682 -0.9776
 3099TIP3    H233493   5.683   0.412   7.353  0.9271  1.1712 -1.8886
 3100TIP3   OH233494   2.092   1.688   8.618 -0.5560  0.0266 -0.3477
 3100TIP3    H133495   2.134   1.641   8.691  0.6212  0.7583 -0.5337
 3100TIP3    H233496   2.082   1.621   8.551  0.6200 -0.1154 -0.4115
 3101TIP3   OH233497   6.885   0.767   9.449 -0.3730  0.1031  0.5808
 3101TIP3    H133498   6.826   0.832   9.411  0.0571 -0.5499 -1.3042
 3101TIP3    H233499   6.955   0.758   9.385 -0.1348 -1.8237  1.0467
 3102TIP3   OH233500   6.592   2.745   7.251 -0.2776 -0.2204  0.3163
 3102TIP3    H133501   6.626   2.791   7.174  0.9811 -0.3692  0.7663
 3102TIP3    H233502   6.631   2.658   7.246 -0.9391 -0.5423  0.6327
 3103TIP3   OH233503   5.637   6.079   9.082  0.3697 -0.1175  0.7798
 3103TIP3    H133504   5.589   6.157   9.111 -0.3306 -0.4335  0.5032
 3103TIP3    H233505   5.684   6.107   9.004  0.4873  0.1517  0.9462
 3104TIP3   OH233506   1.623   4.453   7.382 -0.2883  0.3970  0.2585
 3104TIP3    H133507   1.623   4.546   7.406  0.9022  1.2483 -2.6332
 3104TIP3    H233508   1.712   4.435   7.353 -0.7194 -1.4240 -0.0629
 3105TIP3   OH233509   2.798   4.046   7.648 -0.1774  0.2144 -0.0247
 3105TIP3    H133510   2.879   4.063   7.599  0.5560 -0.9495  0.7321
 3105TIP3    H233511   2.787   3.951   7.644 -0.7123  0.2100  1.0946
 3106TIP3   OH233512   3.091   2.031   7.550 -0.2269 -0.3390  0.8734
 3106TIP3    H133513   3.067   2.102   7.490 -1.0652 -0.8665  0.5669
 3106TIP3    H233514   3.136   1.967   7.495  0.5772 -0.0315  1.1601
 3107TIP3   OH233515   7.677   0.293   6.739 -0.5110  0.4089 -0.0761
 3107TIP3    H133516   7.595   0.299   6.788 -0.7056  1.6382 -0.5366
 3107TIP3    H233517   7.745   0.316   6.803 -0.4304 -1.1804  0.4676
 3108TIP3   OH233518   6.078   2.139   7.614  0.4740  0.0884 -0.3594
 3108TIP3    H133519   6.009   2.202   7.592  2.0118  1.8323 -0.4170
 3108TIP3    H233520   6.058   2.112   7.704 -0.7501 -0.1281 -0.6722
 3109TIP3   OH233521   2.749   2.522   8.015 -0.4455 -0.1054 -0.4954
 3109TIP3    H133522   2.724   2.431   8.033 -2.3673  0.4545 -0.0989
 3109TIP3    H233523   2.815   2.542   8.082 -1.7230 -0.5128  0.9560
 3110TIP3   OH233524   2.032   4.002   8.806 -0.1279  0.2005  0.5960
 3110TIP3    H133525   2.032   4.002   8.710 -0.7414 -3.0907  0.4828
 3110TIP3    H233526   1.948   4.040   8.830 -1.3677 -1.7889 -0.3560
 3111TIP3   OH233527   6.993   1.207   7.034 -0.4034  0.5294 -0.1383
 3111TIP3    H133528   6.986   1.204   6.939  0.6663 -0.1820 -0.2197
 3111TIP3    H233529   7.057   1.275   7.052  0.0100  0.1099  0.0159
 3112TIP3   OH233530   3.418   7.605   7.037 -0.5607 -0.2804  0.2499
 3112TIP3    H133531   3.332   7.639   7.011  0.1025  0.0916 -1.6544
 3112TIP3    H233532   3.456   7.571   6.955  1.1966 -0.2396  1.0015
 3113TIP3   OH233533   2.343   4.521   7.529 -0.0881 -0.0754 -0.3095
 3113TIP3    H133534   2.389   4.464   7.468 -0.2259  0.7774 -1.2374
 3113TIP3    H233535   2.401   4.528   7.605  0.9111  0.2723 -1.0878
 3114TIP3   OH233536   2.059   2.684   8.838 -0.0339 -0.0012  0.4357
 3114TIP3    H133537   2.015   2.616   8.889 -1.0503  0.0310 -0.3491
 3114TIP3    H233538   1.988   2.741   8.808  0.4486 -0.2548 -1.3334
 3115TIP3   OH233539   1.562   4.587   6.882 -0.5229  0.4016 -0.8154
 3115TIP3    H133540   1.489   4.528   6.900 -1.6865  1.4037 -2.0752
 3115TIP3    H233541   1.531   4.673   6.908  0.2273  0.8442 -1.3328
 3116TIP3   OH233542   5.791   5.154   8.109  0.1349 -0.1333  0.5460
 3116TIP3    H133543   5.825   5.066   8.088  3.4406  1.2287 -0.4607
 3116TIP3    H233544   5.764   5.189   8.024  1.4887  0.7877  0.4711
 3117TIP3   OH233545   1.408   7.421   8.352  0.3508  0.0628  0.4068
 3117TIP3    H133546   1.480   7.358   8.355 -0.3692 -0.7914  0.2466
 3117TIP3    H233547   1.342   7.385   8.411 -0.3425  0.3351 -0.1886
 3118TIP3   OH233548   0.364   4.254   7.677  0.3372  0.1953 -0.0730
 3118TIP3    H133549   0.435   4.255   7.613 -0.9516  1.2116 -1.5598
 3118TIP3    H233550   0.344   4.346   7.691  0.2527 -0.0359  1.4465
 3119TIP3   OH233551   4.495   2.428   8.347  0.0274  0.4031  0.1688
 3119TIP3    H133552   4.579   2.402   8.309 -0.3728 -0.4788 -0.1400
 3119TIP3    H233553   4.471   2.507   8.300  1.5575  1.7716  1.5355
 3120TIP3   OH233554   2.812   0.558   9.608 -0.1825  0.1879  0.1087
 3120TIP3    H133555   2.808   0.464   9.591 -1.0028 -0.7555  4.3621
 3120TIP3    H233556   2.721   0.586   9.616  0.0170  1.5936 -1.7824
 3121TIP3   OH233557   3.387   1.766   7.351 -0.1687  0.1036 -0.3491
 3121TIP3    H133558   3.467   1.811   7.378 -1.8662  3.5523 -0.4401
 3121TIP3    H233559   3.382   1.690   7.408  1.3144  1.8160  2.3096
 3122TIP3   OH233560   3.399   1.365   8.024 -0.4119  0.1230 -0.1703
 3122TIP3    H133561   3.392   1.455   7.992 -0.5284  0.0826 -0.2602
 3122TIP3    H233562   3.366   1.311   7.951 -0.2026 -0.0023 -0.1746
 3123TIP3   OH233563   3.281   5.128   6.632 -0.1462 -0.5770 -0.0919
 3123TIP3    H133564   3.278   5.219   6.603 -1.2210  0.0472  1.7783
 3123TIP3    H233565   3.374   5.111   6.648  0.0982  0.0645 -0.7610
 3124TIP3   OH233566   6.542   2.544   7.511  0.3580  0.0730 -0.3011
 3124TIP3    H133567   6.512   2.635   7.513 -1.4836 -0.3554 -3.1013
 3124TIP3    H233568   6.487   2.499   7.576 -0.7506  0.4664 -0.9475
 3125TIP3   OH233569   3.293   2.978   7.536  0.2612  0.3187 -0.1065
 3125TIP3    H133570   3.329   3.031   7.465  2.3651 -0.4766  0.2936
 3125TIP3    H233571   3.309   2.887   7.508  1.1639 -0.0010  1.3489
 3126TIP3   OH233572   1.644   5.081   8.887 -1.1061  0.0165  0.4801
 3126TIP3    H133573   1.634   4.987   8.902 -1.3350 -0.0501 -0.0674
 3126TIP3    H233574   1.739   5.097   8.890 -1.0671 -0.2387  0.5438
 3127TIP3   OH233575   6.385   2.751   7.633  0.2022  0.0770 -0.3327
 3127TIP3    H133576   6.436   2.831   7.647 -0.8544  1.0252 -1.6426
 3127TIP3    H233577   6.400   2.699   7.712  1.7306  1.1087  0.1033
 3128TIP3   OH233578   2.095   5.237   8.194 -1.0245  0.0597  0.1283
 3128TIP3    H133579   2.053   5.303   8.249  1.1714  0.8284  0.9898
 3128TIP3    H233580   2.121   5.168   8.255  0.5908  0.4840 -0.0339
 3129TIP3   OH233581   1.174   7.372   8.132  0.4073  0.7542  0.1470
 3129TIP3    H133582   1.185   7.299   8.193  0.9704 -0.5262 -1.4070
 3129TIP3    H233583   1.086   7.361   8.096  1.2096 -0.4617 -1.6096
 3130TIP3   OH233584   1.050   4.378   6.887 -0.2717 -0.1150  0.8362
 3130TIP3    H133585   0.972   4.331   6.857  0.1627  0.6530 -1.7779
 3130TIP3    H233586   1.061   4.450   6.824  3.1319 -0.8149  0.4212
 3131TIP3   OH233587   1.876   0.096   8.300  0.6677 -0.0230 -0.1117
 3131TIP3    H133588   1.901   0.046   8.222 -1.1246  2.0285 -2.1392
 3131TIP3    H233589   1.824   0.034   8.352  2.5195 -1.6591 -0.0658
 3132TIP3   OH233590   7.630   3.175   9.063 -0.4089  0.3301 -0.2531
 3132TIP3    H133591   7.593   3.137   8.984 -0.2516  2.2323 -1.3003
 3132TIP3    H233592   7.616   3.269   9.053  1.7982  0.8326  0.8275
 3133TIP3   OH233593   7.600   7.239   7.131 -0.5103  0.4623  0.4833
 3133TIP3    H133594   7.688   7.215   7.159 -0.3050  1.8056  1.0672
 3133TIP3    H233595   7.584   7.186   7.054  0.1854 -0.9647  1.2857
 3134TIP3   OH233596   0.658   6.103   6.984 -0.1725 -0.5960 -0.0480
 3134TIP3    H133597   0.638   6.039   6.916 -0.2316 -0.3935 -0.2216
 3134TIP3    H233598   0.717   6.165   6.943  0.5941 -1.0272  0.3806
 3135TIP3   OH233599   0.815   3.894   9.124 -0.1160 -0.5243 -0.1729
 3135TIP3    H133600   0.801   3.882   9.218  0.8682  1.5290  0.2808
 3135TIP3    H233601   0.731   3.869   9.084 -1.2285  0.4660  1.4351
 3136TIP3   OH233602   2.653   0.367   7.062  0.1594  0.3370 -0.3350
 3136TIP3    H133603   2.742   0.341   7.038  0.2155  0.0160  0.1962
 3136TIP3    H233604   2.598   0.296   7.028  0.2586 -0.2190  0.6400
 3137TIP3   OH233605   6.191   7.184   7.415  0.2894 -0.1481 -0.6351
 3137TIP3    H133606   6.222   7.156   7.328 -0.9846  1.2026 -1.5678
 3137TIP3    H233607   6.124   7.250   7.396 -1.4711 -1.2571  1.3272
 3138TIP3   OH233608   2.723   2.021   8.900  0.0065 -0.5250 -0.1595
 3138TIP3    H133609   2.818   2.030   8.907 -0.0242 -0.7057  0.6285
 3138TIP3    H233610   2.692   2.108   8.877  0.3626 -0.4758 -0.4634
 3139TIP3   OH233611   2.611   1.333   6.812 -0.3557 -0.0953  0.1300
 3139TIP3    H133612   2.608   1.337   6.907  0.7581  1.1448  0.1267
 3139TIP3    H233613   2.630   1.422   6.784 -0.2847 -0.5154 -1.2479
 3140TIP3   OH233614   5.892   0.123   8.489 -0.0276  0.4735  0.2394
 3140TIP3    H133615   5.947   0.139   8.565  0.4173  3.0177 -0.5337
 3140TIP3    H233616   5.934   0.049   8.444 -0.0812 -0.8073  2.1834
 3141TIP3   OH233617   6.170   1.318   7.203 -0.0658 -0.2063  0.0777
 3141TIP3    H133618   6.247   1.263   7.216 -0.2399 -0.2009  1.1901
 3141TIP3    H233619   6.115   1.302   7.280 -0.1999  1.3903  0.3606
 3142TIP3   OH233620   5.697   3.569   8.749 -0.7037 -0.0222  0.4900
 3142TIP3    H133621   5.715   3.663   8.754  0.1363 -0.2185  1.4545
 3142TIP3    H233622   5.641   3.560   8.672  1.7269  0.9093 -1.5486
 3143TIP3   OH233623   0.993   5.801   9.242  0.0897 -0.5314  0.3980
 3143TIP3    H133624   1.011   5.851   9.163 -2.3579 -1.8390 -1.0971
 3143TIP3    H233625   0.933   5.856   9.293  1.2620  0.0861  1.1720
 3144TIP3   OH233626   6.294   0.772   7.366  0.3295 -0.2635 -0.5555
 3144TIP3    H133627   6.203   0.745   7.365  0.2057  0.1350 -1.0592
 3144TIP3    H233628   6.305   0.820   7.283  1.1190 -0.7216 -0.7277
 3145TIP3   OH233629   0.000   1.459   8.027  0.2755 -0.3663 -0.5708
 3145TIP3    H133630   0.042   1.526   7.973  0.7957  0.7014  1.0852
 3145TIP3    H233631  -0.020   1.388   7.965  1.0629  0.6770 -2.1029
 3146TIP3   OH233632   6.058   4.253   6.621  0.6985 -0.6727  0.4879
 3146TIP3    H133633   5.981   4.298   6.586  0.1327  0.3488  2.8188
 3146TIP3    H233634   6.117   4.324   6.646  0.5140 -1.2166  2.6791
 3147TIP3   OH233635   1.208   6.036   8.753  0.0177  0.7888 -0.1486
 3147TIP3    H133636   1.121   6.058   8.721  0.7281  2.2184 -1.2415
 3147TIP3    H233637   1.251   5.992   8.679  0.8237  1.8031 -0.3110
 3148TIP3   OH233638   6.502   3.902   7.790 -0.3401  0.0759  0.4191
 3148TIP3    H133639   6.471   3.964   7.855  0.1007 -0.8956  1.5951
 3148TIP3    H233640   6.590   3.931   7.767 -0.7435  0.8047 -0.2852
 3149TIP3   OH233641   6.846   1.723   7.902  0.3749  0.1951 -0.4309
 3149TIP3    H133642   6.792   1.648   7.875  0.3412 -0.4029  1.2016
 3149TIP3    H233643   6.830   1.789   7.834 -2.6414  0.1423  0.0742
 3150TIP3   OH233644   1.620   7.403   9.281 -0.0718  0.6152 -0.1234
 3150TIP3    H133645   1.715   7.420   9.282  0.2657 -1.0635 -0.5124
 3150TIP3    H233646   1.599   7.381   9.371  0.2079 -0.4370 -0.3060
 3151TIP3   OH233647   5.631   3.514   7.229  0.0145  0.0089  0.2997
 3151TIP3    H133648   5.548   3.466   7.229 -0.3746  0.5399  2.9957
 3151TIP3    H233649   5.692   3.455   7.185 -1.5817 -0.7149 -1.0968
 3152TIP3   OH233650   3.002   7.575   7.369 -0.8216 -0.2414  0.4999
 3152TIP3    H133651   3.044   7.656   7.339 -0.6209 -0.1617  0.9916
 3152TIP3    H233652   2.921   7.570   7.317  0.4193 -1.1160 -1.4669
 3153TIP3   OH233653   1.961   0.919   7.754 -0.3490  0.0330 -0.2005
 3153TIP3    H133654   1.878   0.872   7.750  0.2192 -0.9447 -0.9926
 3153TIP3    H233655   1.957   0.969   7.835 -1.0627 -1.2236  0.5580
 3154TIP3   OH233656   4.909   2.634   7.903 -0.0998  0.6078 -0.0748
 3154TIP3    H133657   4.902   2.542   7.878 -0.4137  0.9970 -1.5131
 3154TIP3    H233658   4.996   2.641   7.944  0.3149 -0.1373 -0.8074
 3155TIP3   OH233659   4.585   7.296   7.094  0.5193  0.2421 -0.4494
 3155TIP3    H133660   4.530   7.332   7.024  0.3406  0.6900 -0.0845
 3155TIP3    H233661   4.553   7.339   7.174 -1.0452 -2.1598  0.3053
 3156TIP3   OH233662   5.067   1.193   8.406 -0.9722  0.0199  0.8875
 3156TIP3    H133663   5.067   1.176   8.312 -1.7305  2.8354  0.3010
 3156TIP3    H233664   5.159   1.183   8.432 -0.7934 -1.0383 -0.0528
 3157TIP3   OH233665   7.149   0.183   8.264 -0.9429  0.1616 -0.6542
 3157TIP3    H133666   7.171   0.118   8.332  0.9203 -0.0465 -1.3809
 3157TIP3    H233667   7.145   0.132   8.183 -0.8759  0.7368 -1.0266
 3158TIP3   OH233668   1.680   2.970   8.194  0.3028  0.1607  0.3363
 3158TIP3    H133669   1.741   2.952   8.265  1.2320  0.8261 -0.2684
 3158TIP3    H233670   1.703   2.908   8.125  0.0255  0.1341  0.2669
 3159TIP3   OH233671   4.037   0.416   7.957  0.0269 -0.0827 -0.1270
 3159TIP3    H133672   4.103   0.438   7.892  0.2519 -0.9271 -0.1937
 3159TIP3    H233673   4.087   0.388   8.034 -0.2421  0.3603  0.2142
 3160TIP3   OH233674   0.314   0.052   8.595  0.0504  0.1563  0.0196
 3160TIP3    H133675   0.405   0.049   8.565 -0.7212  0.0674 -2.5043
 3160TIP3    H233676   0.303  -0.027   8.647  1.6185  0.5859  1.0755
 3161TIP3   OH233677   4.646   0.364   9.359 -0.3726 -0.5831 -0.3163
 3161TIP3    H133678   4.589   0.306   9.410 -1.5418 -0.1198 -1.0611
 3161TIP3    H233679   4.695   0.304   9.301 -1.0091 -0.9064 -0.5356
 3162TIP3   OH233680   6.117   1.007   7.173 -0.0505  0.1208  0.3159
 3162TIP3    H133681   6.179   1.073   7.144 -1.3977  1.1978 -0.2400
 3162TIP3    H233682   6.038   1.024   7.122 -0.0947 -2.7111 -0.7835
 3163TIP3   OH233683   6.845   1.614   8.908  0.0090 -0.4854  0.3564
 3163TIP3    H133684   6.938   1.635   8.913  0.3221 -1.6555 -0.2345
 3163TIP3    H233685   6.817   1.605   8.999  1.0085 -2.2709  0.5284
 3164TIP3   OH233686   3.604   5.419   7.828 -0.9084  0.4492  0.0508
 3164TIP3    H133687   3.521   5.417   7.781 -0.7963 -0.2583 -0.1287
 3164TIP3    H233688   3.584   5.459   7.912 -1.2591  1.0514 -0.3137
 3165TIP3   OH233689   5.091   2.098   7.063  0.5987  0.0025  0.0618
 3165TIP3    H133690   5.080   2.090   6.968  1.9872  1.1803 -0.2415
 3165TIP3    H233691   5.039   2.027   7.100 -0.7275  0.0851 -1.5374
 3166TIP3   OH233692   3.246   6.089   8.601  0.2508 -0.0521  0.5775
 3166TIP3    H133693   3.253   6.024   8.672 -0.4240  1.0194  1.6597
 3166TIP3    H233694   3.332   6.130   8.598  1.2749 -2.1106 -1.2945
 3167TIP3   OH233695   2.694   1.775   8.803  0.1694  0.2895 -0.3218
 3167TIP3    H133696   2.686   1.863   8.838  1.4850 -0.1588  1.2211
 3167TIP3    H233697   2.663   1.718   8.873 -0.0963 -0.5106 -1.0739
 3168TIP3   OH233698   6.119   0.103   8.286  0.5176  0.2141  0.4596
 3168TIP3    H133699   6.202   0.058   8.269  0.1656 -0.3921  0.3232
 3168TIP3    H233700   6.063   0.080   8.212  0.2716  0.7440  0.4722
 3169TIP3   OH233701   1.307   3.039   6.924  0.2316  0.2909  0.4896
 3169TIP3    H133702   1.322   3.016   6.832  1.0469  1.8558  0.1998
 3169TIP3    H233703   1.363   2.978   6.973 -0.1892 -0.5401 -0.0319
 3170TIP3   OH233704   1.607   4.122   9.372  0.0269 -0.0257 -0.2976
 3170TIP3    H133705   1.666   4.069   9.425  0.3819 -0.1108 -0.7756
 3170TIP3    H233706   1.644   4.119   9.284  1.2062  2.6770  0.0153
 3171TIP3   OH233707   7.283   5.386   7.901  0.1535  0.1730  0.3731
 3171TIP3    H133708   7.320   5.473   7.918 -1.6398  1.3129 -1.1128
 3171TIP3    H233709   7.323   5.358   7.818 -0.9656  0.6811 -0.3762
 3172TIP3   OH233710   1.323   1.445   7.612  0.0747  0.3434 -0.6443
 3172TIP3    H133711   1.400   1.430   7.666 -0.8348  1.0670  0.9248
 3172TIP3    H233712   1.346   1.522   7.560  0.5473  0.3320 -0.4595
 3173TIP3   OH233713   6.823   0.531   8.370 -0.2293 -0.1540  0.1109
 3173TIP3    H133714   6.738   0.575   8.368 -0.2475 -0.2052 -0.5372
 3173TIP3    H233715   6.887   0.601   8.363 -0.1929 -0.0620  1.2430
 3174TIP3   OH233716   3.695   6.832   7.642  0.5913 -0.4858 -0.1734
 3174TIP3    H133717   3.725   6.824   7.551 -0.9870  0.8203 -0.8576
 3174TIP3    H233718   3.673   6.743   7.668 -0.9637 -0.6436 -1.8366
 3175TIP3   OH233719   4.730   5.083   8.433 -0.3003  0.0550  0.1048
 3175TIP3    H133720   4.721   4.988   8.424  3.8082 -0.4329 -1.2044
 3175TIP3    H233721   4.727   5.116   8.344 -2.7768  1.4159  0.6159
 3176TIP3   OH233722   3.678   3.792   8.792  0.8227 -0.5991 -0.3862
 3176TIP3    H133723   3.607   3.733   8.768 -2.1776  2.7013 -0.3519
 3176TIP3    H233724   3.710   3.759   8.876 -1.0441 -1.8897 -0.1404
 3177TIP3   OH233725   5.290   6.890   8.628  0.4418 -0.2296  0.6352
 3177TIP3    H133726   5.268   6.970   8.580 -1.3610  0.6261  2.7216
 3177TIP3    H233727   5.277   6.820   8.564 -2.2319  0.8263 -0.1150
 3178TIP3   OH233728   0.981   3.450   9.091 -0.1539  0.0420 -0.7001
 3178TIP3    H133729   1.041   3.380   9.116  0.1176  0.7272  0.6402
 3178TIP3    H233730   1.018   3.486   9.011  0.4303 -0.4743 -0.6704
 3179TIP3   OH233731   5.064   3.800   9.169 -0.0535  0.4267 -0.2864
 3179TIP3    H133732   5.147   3.838   9.141  1.1595 -1.9389 -0.1339
 3179TIP3    H233733   5.015   3.786   9.088  0.9238 -0.7991 -0.6913
 3180TIP3   OH233734   4.948   3.662   8.077 -0.2496  0.1326  0.1297
 3180TIP3    H133735   4.887   3.677   8.149 -0.8690 -0.4040 -0.2656
 3180TIP3    H233736   4.933   3.735   8.017 -2.3036 -1.2078 -1.1491
 3181TIP3   OH233737   0.792   0.149   7.971  0.3150 -0.5451  0.1543
 3181TIP3    H133738   0.869   0.099   7.996  2.1744  1.4368 -1.2007
 3181TIP3    H233739   0.762   0.108   7.889  1.2680 -0.0567 -0.4580
 3182TIP3   OH233740   2.903   5.326   7.262 -0.0700  0.2278 -0.5862
 3182TIP3    H133741   2.819   5.283   7.249  0.4371 -0.8954 -0.2174
 3182TIP3    H233742   2.887   5.417   7.236 -1.1726 -0.1507 -1.3060
 3183TIP3   OH233743   1.031   3.804   7.471  0.5773 -0.0379 -0.5160
 3183TIP3    H133744   1.093   3.794   7.544  0.1484  0.9794  0.0157
 3183TIP3    H233745   1.076   3.765   7.396  2.1430  1.2192 -0.2893
 3184TIP3   OH233746   4.067   5.512   7.874  0.5687 -0.3685  0.0096
 3184TIP3    H133747   3.983   5.528   7.831  0.8447 -1.2192 -0.8766
 3184TIP3    H233748   4.064   5.566   7.953 -0.6039 -0.0045 -0.2643
 3185TIP3   OH233749   0.708   5.433   9.042  0.6836  0.0073 -0.1659
 3185TIP3    H133750   0.778   5.450   9.105  1.8021 -0.8282 -1.1477
 3185TIP3    H233751   0.722   5.343   9.013 -1.0727 -0.3283 -0.0671
 3186TIP3   OH233752   6.518   0.968   8.921 -0.3704 -0.2654 -0.4975
 3186TIP3    H133753   6.425   0.954   8.941 -0.6998  0.6328 -1.2944
 3186TIP3    H233754   6.537   0.906   8.850 -0.4759 -0.1676 -0.6121
 3187TIP3   OH233755   7.527   2.193   9.635  0.4659 -0.1595 -0.0932
 3187TIP3    H133756   7.532   2.127   9.704  0.4486 -2.6528 -2.3265
 3187TIP3    H233757   7.618   2.215   9.616  0.4997 -0.0659  0.1752
 3188TIP3   OH233758   0.224   0.218   8.811  0.2706 -0.1472 -0.7081
 3188TIP3    H133759   0.226   0.195   8.718  2.9430 -1.6644 -0.4012
 3188TIP3    H233760   0.316   0.221   8.837 -0.3671  0.8148  1.7897
 3189TIP3   OH233761   6.914   5.191   7.295  0.0423  0.2751  0.1875
 3189TIP3    H133762   6.978   5.228   7.234  0.2193 -0.3807 -0.0316
 3189TIP3    H233763   6.897   5.262   7.357  0.8519  0.5153  0.1520
 3190TIP3   OH233764   7.542   0.979   8.421 -0.2053  0.3818  0.0755
 3190TIP3    H133765   7.592   1.007   8.498  0.5259  0.4938 -0.4292
 3190TIP3    H233766   7.452   1.005   8.440  0.0221  0.6970  0.7531
 3191TIP3   OH233767   6.881   0.734   8.917  0.3153  0.0982  0.1320
 3191TIP3    H133768   6.862   0.825   8.892 -0.3664 -0.4198 -1.3516
 3191TIP3    H233769   6.977   0.728   8.916  0.3792  0.8983  0.6660
 3192TIP3   OH233770   5.130   4.770   6.403  0.3180  0.2177 -0.0250
 3192TIP3    H133771   5.075   4.834   6.358  1.4187  1.1357 -0.1243
 3192TIP3    H233772   5.071   4.723   6.461 -0.5766  1.1055 -0.1900
 3193TIP3   OH233773   0.134   6.815   7.466 -0.2616  0.0507 -0.0523
 3193TIP3    H133774   0.177   6.834   7.383 -2.3810 -0.7778 -1.4217
 3193TIP3    H233775   0.198   6.839   7.532  1.8560 -0.0995 -1.9273
 3194TIP3   OH233776   5.247   6.178   8.309 -0.6061 -0.2369 -0.3845
 3194TIP3    H133777   5.181   6.217   8.252 -0.4831 -0.0598 -0.4057
 3194TIP3    H233778   5.224   6.085   8.312 -0.3997 -0.3059 -1.0020
 3195TIP3   OH233779   2.430   1.931   7.891  0.4202  0.0480 -0.0045
 3195TIP3    H133780   2.399   1.937   7.981 -0.5350  1.1913 -0.3854
 3195TIP3    H233781   2.395   1.848   7.859  0.0845  0.0161  0.4360
 3196TIP3   OH233782   0.695   5.693   8.613  0.2349 -0.0336  0.5231
 3196TIP3    H133783   0.649   5.772   8.641 -0.8951  0.2484 -1.8431
 3196TIP3    H233784   0.653   5.622   8.661  1.0158  0.7265  2.4089
 3197TIP3   OH233785   4.317   5.960   7.951  0.0081 -0.4934  0.0390
 3197TIP3    H133786   4.329   5.901   8.025 -0.6389 -2.7081 -1.5248
 3197TIP3    H233787   4.222   5.977   7.949  0.3228  1.9578  1.3665
 3198TIP3   OH233788   0.931   5.859   6.973 -0.0337  0.0370  0.2660
 3198TIP3    H133789   0.911   5.870   7.066  1.9278  1.1598  0.5960
 3198TIP3    H233790   0.846   5.870   6.929 -1.0328 -0.6995  1.9015
 3199TIP3   OH233791   3.291   7.132   8.368  0.0764 -0.0576 -0.1564
 3199TIP3    H133792   3.242   7.063   8.323  0.3088 -1.5656  1.7893
 3199TIP3    H233793   3.228   7.203   8.379 -1.0815 -1.1579  0.4925
 3200TIP3   OH233794   6.396   0.343   8.582 -0.2217 -0.0897  0.5021
 3200TIP3    H133795   6.408   0.437   8.599  0.7998  0.0471 -0.7820
 3200TIP3    H233796   6.327   0.341   8.515 -1.0499 -0.3367  1.3499
 3201TIP3   OH233797   2.689   2.801   7.619 -0.3867  0.2702  0.2514
 3201TIP3    H133798   2.694   2.802   7.524 -0.2638  0.8781  0.2603
 3201TIP3    H233799   2.620   2.864   7.640 -0.1468  0.4291  0.5782
 3202TIP3   OH233800   3.246   4.500   8.365 -0.2589 -0.4033  0.7904
 3202TIP3    H133801   3.221   4.497   8.457 -1.0329 -2.3645  0.5630
 3202TIP3    H233802   3.195   4.430   8.323 -0.2276  0.6822 -1.2105
 3203TIP3   OH233803   7.017   7.655   7.251  0.4761 -0.3384 -0.3798
 3203TIP3    H133804   6.923   7.674   7.252  1.0613  3.2273  0.1605
 3203TIP3    H233805   7.031   7.608   7.169 -1.6599 -0.1426 -0.9171
 3204TIP3   OH233806   6.110   6.809   8.776  0.1297  0.1772 -0.1242
 3204TIP3    H133807   6.175   6.875   8.800  0.8203  0.0320 -1.4910
 3204TIP3    H233808   6.128   6.735   8.834  0.7310  0.4035 -0.0166
 3205TIP3   OH233809   1.541   4.394   9.244 -0.0746  0.0265  0.0973
 3205TIP3    H133810   1.518   4.332   9.312  1.4330 -0.2952  0.3612
 3205TIP3    H233811   1.621   4.437   9.276 -0.1032  0.8460 -0.8485
 3206TIP3   OH233812   2.390   1.564   6.717 -0.3320 -0.2344  0.0371
 3206TIP3    H133813   2.485   1.555   6.719 -0.2999 -0.0226 -0.5022
 3206TIP3    H233814   2.372   1.646   6.763 -0.3451 -0.8678  1.2160
 3207TIP3   OH233815   5.027   1.154   8.130 -0.1734 -0.4325  0.2101
 3207TIP3    H133816   4.933   1.137   8.132  0.1186 -2.2699 -0.3266
 3207TIP3    H233817   5.057   1.115   8.048  0.9333  0.8923 -0.0538
 3208TIP3   OH233818   2.730   2.898   9.357  0.8217  0.0103 -0.2629
 3208TIP3    H133819   2.788   2.867   9.427 -0.4350 -0.4961  0.5936
 3208TIP3    H233820   2.761   2.855   9.278  0.9462 -1.1107  0.3872
 3209TIP3   OH233821   7.568   3.474   8.465  0.2338  0.2559  0.0624
 3209TIP3    H133822   7.517   3.552   8.485 -0.5125 -0.1882 -0.0826
 3209TIP3    H233823   7.656   3.508   8.446 -0.2669  1.1425 -0.7970
 3210TIP3   OH233824   3.202   0.634   8.183 -0.0365  0.7400  0.2171
 3210TIP3    H133825   3.176   0.721   8.154  1.5998  0.7716 -1.3345
 3210TIP3    H233826   3.296   0.630   8.165  0.2978 -0.7165  1.9547
 3211TIP3   OH233827   4.874   6.193   7.599 -0.3676  0.0493 -1.3306
 3211TIP3    H133828   4.892   6.268   7.542  0.4562  0.4074 -0.6068
 3211TIP3    H233829   4.836   6.231   7.678  0.2175 -0.2696 -0.8870
 3212TIP3   OH233830   4.691   7.188   7.636 -0.8822 -0.1874  0.0668
 3212TIP3    H133831   4.632   7.172   7.562 -0.8126  2.2626 -0.5842
 3212TIP3    H233832   4.632   7.210   7.708 -0.8596 -0.5574  0.2010
 3213TIP3   OH233833   1.300   5.747   6.708 -0.3750 -0.5246 -0.4011
 3213TIP3    H133834   1.234   5.782   6.768  1.3701 -0.8658  1.8930
 3213TIP3    H233835   1.333   5.823   6.660 -3.2072 -0.5156 -2.5528
 3214TIP3   OH233836   2.915   3.624   8.217 -0.4535 -0.4033  0.1488
 3214TIP3    H133837   2.975   3.553   8.239 -0.1984 -0.1836  0.1681
 3214TIP3    H233838   2.941   3.650   8.128 -0.4337 -0.2226  0.2058
 3215TIP3   OH233839   5.299   5.617   8.183  0.6163 -0.4069  0.4294
 3215TIP3    H133840   5.379   5.634   8.133 -0.4148 -0.6630 -1.4172
 3215TIP3    H233841   5.248   5.559   8.126 -1.5731  1.0283  0.7943
 3216TIP3   OH233842   0.685   1.669   6.642 -0.0141  0.7489 -0.1673
 3216TIP3    H133843   0.738   1.614   6.701  0.0143  1.3391  0.3679
 3216TIP3    H233844   0.608   1.616   6.624  0.4329  0.1635 -0.3875
 3217TIP3   OH233845   7.039   5.033   8.268  0.1956 -0.1546  0.1390
 3217TIP3    H133846   6.967   4.969   8.272  1.2286 -1.4825 -1.2578
 3217TIP3    H233847   7.086   5.011   8.187  2.7274  0.0679  1.4489
 3218TIP3   OH233848   4.201   7.373   7.075 -0.4286  0.1503 -0.1173
 3218TIP3    H133849   4.135   7.311   7.042  0.2091 -1.1096  0.8692
 3218TIP3    H233850   4.250   7.399   6.997 -0.4656 -0.9142 -0.5249
 3219TIP3   OH233851   7.094   5.850   8.744 -0.2636  0.1822 -0.0166
 3219TIP3    H133852   7.030   5.780   8.760  0.4650 -0.0131  2.5227
 3219TIP3    H233853   7.147   5.818   8.671 -0.6985 -1.4064  0.3241
 3220TIP3   OH233854   6.397   2.414   7.710 -0.2796 -0.5459 -0.0108
 3220TIP3    H133855   6.483   2.375   7.722 -0.7351 -1.0658  2.1031
 3220TIP3    H233856   6.353   2.402   7.795 -1.5155  1.9875 -0.1862
 3221TIP3   OH233857   2.154   7.037   9.572 -0.0558  0.0106  0.9052
 3221TIP3    H133858   2.082   6.988   9.533  0.4421  0.9098 -1.3205
 3221TIP3    H233859   2.136   7.037   9.666 -1.9154 -1.3815  0.6018
 3222TIP3   OH233860   0.472   4.843   7.464  0.2100 -0.1469  0.5706
 3222TIP3    H133861   0.382   4.813   7.449 -0.4586  2.1671 -0.4714
 3222TIP3    H233862   0.463   4.936   7.485  2.5204  0.9676 -2.6264
 3223TIP3   OH233863   6.401   0.622   8.633 -0.0435  0.2565  0.0230
 3223TIP3    H133864   6.472   0.686   8.642  0.5519 -0.1221 -1.5563
 3223TIP3    H233865   6.381   0.596   8.722  0.0489  2.2592  0.6886
 3224TIP3   OH233866   2.831   4.387   7.409 -0.2790  0.4126 -0.1473
 3224TIP3    H133867   2.793   4.416   7.326 -0.2111  1.0552  0.0471
 3224TIP3    H233868   2.919   4.357   7.385 -1.0027 -1.4788 -0.6725
 3225TIP3   OH233869   2.425   4.876   8.260  0.3909 -0.1080 -0.3753
 3225TIP3    H133870   2.335   4.876   8.294  1.5012  0.0670  2.9168
 3225TIP3    H233871   2.445   4.783   8.248 -0.0681 -0.1724 -0.6732
 3226TIP3   OH233872   3.637   4.176   8.789  0.4020  0.3416  0.1008
 3226TIP3    H133873   3.659   4.213   8.703 -1.8081  1.9507  0.1134
 3226TIP3    H233874   3.570   4.111   8.769  0.0270  0.5804  0.5678
 3227TIP3   OH233875   6.892   6.388   8.316 -0.1250 -0.1568  0.4037
 3227TIP3    H133876   6.977   6.427   8.297 -1.2334  2.3428  0.2255
 3227TIP3    H233877   6.878   6.404   8.409 -1.4437  1.7729 -0.0758
 3228TIP3   OH233878   1.178   4.999   8.463  0.2809 -0.5702  0.1197
 3228TIP3    H133879   1.136   4.982   8.547  0.3245  0.3466  0.3383
 3228TIP3    H233880   1.218   4.916   8.439 -1.3164 -1.3666  0.0834
 3229TIP3   OH233881   2.140   6.747   8.783 -0.3813  0.7995 -0.5680
 3229TIP3    H133882   2.131   6.657   8.751 -0.0885  0.3300  0.6211
 3229TIP3    H233883   2.052   6.784   8.774 -0.5121  0.3901 -1.0323
 3230TIP3   OH233884   0.597   1.637   7.182  0.1825 -0.3895  0.0679
 3230TIP3    H133885   0.593   1.571   7.252  0.7384  1.8929  2.4377
 3230TIP3    H233886   0.508   1.669   7.175 -0.2780 -1.9245 -1.7310
 3231TIP3   OH233887   5.478   7.564   8.690 -0.0166 -0.1611  0.3990
 3231TIP3    H133888   5.520   7.492   8.643  2.4258  2.2545 -1.3881
 3231TIP3    H233889   5.547   7.600   8.745 -0.0447  2.9795 -1.4248
 3232TIP3   OH233890   3.921   0.242   8.899  0.6590 -0.4173 -0.0094
 3232TIP3    H133891   3.851   0.294   8.859  0.0612 -0.6988  0.6367
 3232TIP3    H233892   3.997   0.300   8.900  1.2956 -1.0047 -3.2572
 3233TIP3   OH233893   7.118   0.525   9.229  0.1328 -0.0340 -0.2916
 3233TIP3    H133894   7.138   0.617   9.248  0.0399 -0.2702  0.9904
 3233TIP3    H233895   7.022   0.521   9.230  0.1514 -0.2824  0.3091
 3234TIP3   OH233896   3.921   5.688   7.493 -0.3510 -0.5869  0.4846
 3234TIP3    H133897   3.966   5.722   7.570  0.0394 -1.8805  0.8617
 3234TIP3    H233898   3.861   5.758   7.466  1.1310  0.7628  0.5953
 3235TIP3   OH233899   4.609   7.026   8.543 -0.8316  0.1856 -0.6921
 3235TIP3    H133900   4.595   6.995   8.632 -1.0804 -1.0301 -1.1260
 3235TIP3    H233901   4.621   6.945   8.492  1.1627  0.8900 -1.4546
 3236TIP3   OH233902   4.127   3.338   8.358 -0.0597 -0.0937 -0.0499
 3236TIP3    H133903   4.052   3.313   8.412 -0.7947  2.2538  0.1173
 3236TIP3    H233904   4.102   3.312   8.269 -0.5560 -0.4254  0.1820
 3237TIP3   OH233905   2.368   6.877   7.794 -0.0513 -0.2962 -0.0420
 3237TIP3    H133906   2.330   6.797   7.759  0.6384 -0.4700 -0.4098
 3237TIP3    H233907   2.435   6.847   7.855  0.0652  0.0012 -0.0225
 3238TIP3   OH233908   0.564   1.355   9.589 -0.2683  0.0656  0.2099
 3238TIP3    H133909   0.548   1.344   9.495  0.0362 -1.1628  0.2890
 3238TIP3    H233910   0.478   1.374   9.626 -0.7989 -1.7388 -0.0184
 3239TIP3   OH233911   5.743   5.457   7.155 -0.0617  0.2119  0.0488
 3239TIP3    H133912   5.674   5.430   7.215 -0.8927 -0.1479 -1.0490
 3239TIP3    H233913   5.804   5.383   7.153 -0.4130 -0.0726 -0.1193
 3240TIP3   OH233914   2.975   2.777   9.479 -0.5986  0.7452 -0.2767
 3240TIP3    H133915   3.027   2.822   9.413 -2.2079 -0.0397 -2.1925
 3240TIP3    H233916   2.980   2.685   9.455 -2.2286  0.5762 -0.1111
 3241TIP3   OH233917   4.826   3.661   9.290  0.1612 -0.7042  0.2715
 3241TIP3    H133918   4.911   3.638   9.254 -0.3910  0.7211 -2.1679
 3241TIP3    H233919   4.831   3.755   9.307 -1.2552 -0.3459 -1.0460
 3242TIP3   OH233920   4.573   7.315   8.440 -0.4923  0.6316 -0.3482
 3242TIP3    H133921   4.594   7.221   8.438 -0.5293  0.4115  2.9772
 3242TIP3    H233922   4.653   7.358   8.410  0.8474 -0.4643  1.4371
 3243TIP3   OH233923   2.718   6.004   8.190 -0.0486 -0.3605  0.3525
 3243TIP3    H133924   2.655   6.050   8.133  1.1847  2.0616  0.8267
 3243TIP3    H233925   2.796   5.993   8.135  0.4510  0.1922  0.9394
 3244TIP3   OH233926   0.028   4.907   7.831 -0.1793  0.3526 -0.9569
 3244TIP3    H133927   0.012   5.001   7.820  0.3646  0.5814  0.0765
 3244TIP3    H233928  -0.056   4.872   7.862 -0.2386  0.5886 -0.8481
 3245TIP3   OH233929   4.763   2.395   9.395  0.3078  0.7625  0.7943
 3245TIP3    H133930   4.830   2.365   9.334  1.1328  3.1170  0.4366
 3245TIP3    H233931   4.721   2.468   9.350 -1.0129  0.7392  1.9195
 3246TIP3   OH233932   2.291   5.114   7.316 -0.3847  0.2189 -0.0793
 3246TIP3    H133933   2.360   5.049   7.306 -1.3326 -0.3798 -3.9968
 3246TIP3    H233934   2.334   5.198   7.299 -0.0555  0.2161  0.6715
 3247TIP3   OH233935   3.213   6.510   7.891  0.7431  0.4294  0.0727
 3247TIP3    H133936   3.149   6.467   7.948 -0.7379  2.5976  0.1688
 3247TIP3    H233937   3.198   6.471   7.805  1.4677 -1.2854  0.6873
 3248TIP3   OH233938   4.840   5.730   8.700 -0.7459  0.6659  0.3966
 3248TIP3    H133939   4.900   5.678   8.646 -0.0191  0.8907  0.9562
 3248TIP3    H233940   4.762   5.676   8.710 -0.7425  0.4692 -0.5644
 3249TIP3   OH233941   3.775   6.772   7.381  0.2773  1.0416 -0.3985
 3249TIP3    H133942   3.836   6.824   7.330 -0.3834  1.6481 -0.5873
 3249TIP3    H233943   3.751   6.699   7.323  1.9725 -0.0789  0.2307
 3250TIP3   OH233944   1.593   7.551   7.534  0.0640 -0.2055  0.0148
 3250TIP3    H133945   1.679   7.554   7.575 -0.8741  0.2978  2.0904
 3250TIP3    H233946   1.597   7.476   7.475  1.1591 -1.7496  1.9467
 3251TIP3   OH233947   5.437   6.148   7.410 -0.3625  0.6836 -0.3108
 3251TIP3    H133948   5.358   6.104   7.379 -0.2122  1.0721 -1.2855
 3251TIP3    H233949   5.508   6.100   7.368 -0.0244 -0.0445  1.0338
 3252TIP3   OH233950   4.099   5.354   7.521 -0.4744  0.1199 -0.0218
 3252TIP3    H133951   4.121   5.273   7.567  0.0648 -0.4045 -1.1605
 3252TIP3    H233952   4.174   5.411   7.537  0.9362 -0.9532 -2.2394
 3253TIP3   OH233953   1.113   0.809   8.655  0.1239 -0.6697  0.2524
 3253TIP3    H133954   1.138   0.888   8.608  0.3601  0.0349  1.5102
 3253TIP3    H233955   1.190   0.788   8.709 -0.9161 -0.0839  2.0610
 3254TIP3   OH233956   0.238   2.635   9.057 -0.3484  0.1384 -0.1019
 3254TIP3    H133957   0.318   2.635   9.003  0.2175  1.1579  0.7042
 3254TIP3    H233958   0.231   2.544   9.088 -0.5511 -0.4136 -1.6516
 3255TIP3   OH233959   0.618   5.052   9.159 -0.3827 -0.3361  0.4134
 3255TIP3    H133960   0.668   5.003   9.224  0.4841 -0.3006 -0.2096
 3255TIP3    H233961   0.683   5.107   9.115 -0.8822 -0.6144 -0.7210
 3256TIP3   OH233962   0.943   5.091   8.060  0.4951 -0.1101 -0.7748
 3256TIP3    H133963   0.977   5.091   8.150 -1.1585 -1.3388 -0.0949
 3256TIP3    H233964   0.886   5.168   8.057  0.2635 -0.2736 -0.6393
 3257TIP3   OH233965   3.021   2.471   8.458 -0.1505  0.0925  0.4132
 3257TIP3    H133966   2.938   2.468   8.506 -0.7419 -2.5388 -0.6072
 3257TIP3    H233967   3.085   2.434   8.519 -0.0424  0.5443  0.5844
 3258TIP3   OH233968   2.382   2.264   8.569  0.1215  0.3054  0.2111
 3258TIP3    H133969   2.301   2.303   8.535  0.0555  0.2959  0.3582
 3258TIP3    H233970   2.363   2.244   8.661  0.1559 -0.0711  0.1388
 3259TIP3   OH233971   4.030   1.696   9.092  0.5550 -0.0017 -0.5075
 3259TIP3    H133972   4.013   1.716   8.999  0.2419  0.7933 -0.2894
 3259TIP3    H233973   4.047   1.602   9.093 -1.7058 -0.4799 -1.0816
 3260TIP3   OH233974   3.276   7.214   6.963  0.7709 -0.4760  0.0293
 3260TIP3    H133975   3.309   7.205   6.873  0.0215  0.2505 -0.3332
 3260TIP3    H233976   3.353   7.199   7.018  0.8928 -2.7365 -0.6591
 3261TIP3   OH233977   4.437   6.878   9.178 -0.3297 -0.1395 -0.3106
 3261TIP3    H133978   4.487   6.957   9.155  0.6871  0.0092  2.0935
 3261TIP3    H233979   4.373   6.908   9.242 -1.0011 -0.9902 -0.5705
 3262TIP3   OH233980   1.219   0.478   8.543 -0.4037  0.0370  0.5803
 3262TIP3    H133981   1.136   0.438   8.570  0.7871 -2.5662  0.7768
 3262TIP3    H233982   1.204   0.506   8.453 -1.7778  0.5516  0.9494
 3263TIP3   OH233983   4.434   3.052   9.592 -0.0339 -0.0627  0.3908
 3263TIP3    H133984   4.445   3.142   9.622  1.2914  0.1235 -0.5666
 3263TIP3    H233985   4.340   3.037   9.595 -0.3316  1.5515  0.0063
 3264TIP3   OH233986   0.000   2.315   8.958 -0.2214  0.2977 -0.2667
 3264TIP3    H133987  -0.092   2.340   8.968 -0.6719 -1.0786 -0.8401
 3264TIP3    H233988   0.026   2.352   8.874  0.1405  1.7314  0.4307
 3265TIP3   OH233989   2.203   1.977   7.380  0.0891 -0.0716  0.4374
 3265TIP3    H133990   2.120   1.934   7.357 -0.9038  1.6216  0.7271
 3265TIP3    H233991   2.190   2.009   7.469  1.7370 -1.3240  1.1892
 3266TIP3   OH233992   7.452   0.193   8.711 -0.5284 -0.4713  0.2496
 3266TIP3    H133993   7.488   0.167   8.626  0.2440  1.1260  0.0585
 3266TIP3    H233994   7.514   0.157   8.775  1.5545  2.2537 -0.0750
 3267TIP3   OH233995   4.731   7.482   7.709  0.1382  0.6077  0.3340
 3267TIP3    H133996   4.723   7.446   7.797  1.9781  0.3093  0.4068
 3267TIP3    H233997   4.742   7.576   7.722  1.2037  0.4748  0.4970
 3268TIP3   OH233998   3.714   0.170   8.584 -0.7652 -0.3366 -0.4535
 3268TIP3    H133999   3.716   0.246   8.643  0.5409  0.3793 -1.3515
 3268TIP3    H234000   3.765   0.103   8.629 -0.2186  0.0244 -0.5267
 3269TIP3   OH234001   7.262   2.218   7.417 -0.0087  0.1311 -0.1332
 3269TIP3    H134002   7.201   2.148   7.394  1.3152 -0.8917 -0.6479
 3269TIP3    H234003   7.276   2.265   7.335  0.7527 -0.3361 -0.2759
 3270TIP3   OH234004   1.411   7.400   8.637  0.6981 -0.5857 -0.1830
 3270TIP3    H134005   1.424   7.450   8.718 -0.7865  0.9036 -0.8125
 3270TIP3    H234006   1.316   7.398   8.625  0.9003  0.9411 -2.8962
 3271TIP3   OH234007   7.580   1.175   6.856  0.0743 -0.3394 -0.3835
 3271TIP3    H134008   7.490   1.143   6.859 -0.4968  1.2401  0.7270
 3271TIP3    H234009   7.572   1.269   6.841  1.5963 -0.3032 -1.2436
 3272TIP3   OH234010   5.092   4.581   6.829  0.1100 -0.5949 -0.0880
 3272TIP3    H134011   5.092   4.590   6.733  0.9672 -0.5980 -0.0876
 3272TIP3    H234012   5.139   4.500   6.846  0.9428 -0.0216  0.3893
 3273TIP3   OH234013   0.001   0.285   9.625  0.3726 -0.0769 -0.1344
 3273TIP3    H134014   0.092   0.265   9.605  0.4964 -0.7376  1.0445
 3273TIP3    H234015   0.005   0.350   9.695 -0.0615 -0.6546  0.4313
 3274TIP3   OH234016   0.983   0.818   9.259  0.1940  0.2525 -0.3098
 3274TIP3    H134017   0.978   0.834   9.165 -2.1540 -0.8695 -0.4404
 3274TIP3    H234018   0.941   0.733   9.271  0.8115  0.1791  1.7361
 3275TIP3   OH234019   0.609   1.515   8.390  0.5141  0.4513  0.2035
 3275TIP3    H134020   0.644   1.593   8.348 -0.5097  1.3421  0.9251
 3275TIP3    H234021   0.538   1.548   8.445 -0.2503 -1.0511  0.1698
 3276TIP3   OH234022   2.457   1.269   8.559 -0.6263  0.0941  0.0741
 3276TIP3    H134023   2.536   1.231   8.519  1.4760  2.6016  1.4918
 3276TIP3    H234024   2.410   1.309   8.487  0.4121  0.1867 -0.5694
 3277TIP3   OH234025   4.958   6.542   6.745 -0.4141 -0.7774 -0.0965
 3277TIP3    H134026   4.947   6.635   6.764 -1.1019 -0.8834  0.0563
 3277TIP3    H234027   4.962   6.538   6.650 -0.7193 -0.6172 -0.1209
 3278TIP3   OH234028   6.607   4.921   8.351  0.5179 -0.7440  0.1856
 3278TIP3    H134029   6.654   4.990   8.304  0.7347 -0.9542  0.0854
 3278TIP3    H234030   6.632   4.840   8.305 -1.9524 -0.6428 -1.5332
 3279TIP3   OH234031   4.529   4.314   7.194 -0.2939  0.0321  0.4779
 3279TIP3    H134032   4.576   4.387   7.154 -1.6701  0.3324 -0.6964
 3279TIP3    H234033   4.583   4.288   7.269  0.0697  2.4601  1.1300
 3280TIP3   OH234034   1.896   3.504   8.502  0.2242  0.4371  0.3444
 3280TIP3    H134035   1.830   3.434   8.509  0.1657  0.4488 -0.1134
 3280TIP3    H234036   1.845   3.585   8.503  0.3987  0.6145  3.2224
 3281TIP3   OH234037   4.468   2.156   8.001 -0.4209  0.1813 -0.3751
 3281TIP3    H134038   4.555   2.133   8.032  0.0047  1.7904 -0.2770
 3281TIP3    H234039   4.483   2.229   7.940 -1.5673 -0.5151 -1.5459
 3282TIP3   OH234040   2.056   7.296   6.455  0.2174  0.0347  0.5155
 3282TIP3    H134041   2.002   7.372   6.437  0.3290 -0.1561 -0.6953
 3282TIP3    H234042   1.995   7.228   6.484 -0.1996 -0.1207 -0.6558
 3283TIP3   OH234043   0.536   6.786   8.560 -0.0829  0.0955  0.2005
 3283TIP3    H134044   0.567   6.877   8.568  0.3984  0.1734 -1.9334
 3283TIP3    H234045   0.481   6.773   8.637  0.5218  1.9174  1.0044
 3284TIP3   OH234046   0.676   4.430   9.376  0.8300 -0.2631  0.4023
 3284TIP3    H134047   0.617   4.504   9.386 -0.3413 -1.2549  1.0896
 3284TIP3    H234048   0.763   4.468   9.387  0.2580  0.9963  0.8229
 3285TIP3   OH234049   7.313   3.308   9.021  0.4185 -0.0776  0.0737
 3285TIP3    H134050   7.392   3.360   9.006  0.4211  0.0525  0.5250
 3285TIP3    H234051   7.336   3.250   9.093 -0.0928  0.3844  0.6164
 3286TIP3   OH234052   1.338   0.073   9.905  0.0548  0.0050  0.5478
 3286TIP3    H134053   1.420   0.047   9.862  0.6587  1.9405  0.4312
 3286TIP3    H234054   1.287  -0.008   9.912  1.5934 -1.0661 -0.2161
 3287TIP3   OH234055   6.295   1.383   8.580 -0.3103 -0.4515 -0.5560
 3287TIP3    H134056   6.353   1.422   8.514 -0.6200 -1.7999 -1.6598
 3287TIP3    H234057   6.297   1.289   8.562  0.5588 -1.0536  2.1220
 3288TIP3   OH234058   1.797   3.183   6.346  0.6262 -0.8889  0.2461
 3288TIP3    H134059   1.868   3.230   6.302  1.7440 -1.2661  1.5685
 3288TIP3    H234060   1.726   3.181   6.282  1.1401  1.1134 -0.4549
 3289TIP3   OH234061   2.735   2.696   7.095 -0.3911 -0.0222 -0.4856
 3289TIP3    H134062   2.658   2.747   7.070 -0.1939  0.1662 -0.7165
 3289TIP3    H234063   2.706   2.605   7.093 -0.2057 -0.0949 -2.1542
 3290TIP3   OH234064   0.465   0.468   8.924 -0.3214  0.0140 -0.1969
 3290TIP3    H134065   0.400   0.509   8.982  0.6587 -0.0459  0.9917
 3290TIP3    H234066   0.416   0.446   8.845 -2.0530 -1.0835  1.1035
 3291TIP3   OH234067   0.231   6.593   8.267  0.4195 -0.5508  0.0563
 3291TIP3    H134068   0.260   6.630   8.184  1.5994  1.7157  1.3562
 3291TIP3    H234069   0.269   6.505   8.270  0.1777 -0.7522 -1.8417
 3292TIP3   OH234070   7.329   5.338   8.244  0.8013  0.1785 -0.2964
 3292TIP3    H134071   7.354   5.331   8.336  2.0406  3.4590 -0.2514
 3292TIP3    H234072   7.243   5.379   8.245  0.7769  0.1392 -0.5961
 3293TIP3   OH234073   6.499   4.949   8.894  0.0441 -0.7532 -0.1834
 3293TIP3    H134074   6.452   4.868   8.914  0.4119 -0.8290  0.3984
 3293TIP3    H234075   6.491   4.959   8.799 -2.3685 -0.0329  0.0253
 3294TIP3   OH234076   1.081   3.164   7.468  0.1093  0.1478  0.0009
 3294TIP3    H134077   1.039   3.240   7.427  1.5092  1.7647  1.4235
 3294TIP3    H234078   1.044   3.162   7.557  1.1231  0.0339  0.4301
 3295TIP3   OH234079   1.854   6.699   8.468  0.3936  0.1232  0.0244
 3295TIP3    H134080   1.760   6.681   8.456  0.2543 -1.5117  2.6511
 3295TIP3    H234081   1.867   6.786   8.432 -1.6635 -0.4066 -2.3058
 3296TIP3   OH234082   1.336   3.444   8.392  0.0551 -0.5761  0.1459
 3296TIP3    H134083   1.392   3.483   8.459  0.5272 -0.9663 -0.0129
 3296TIP3    H234084   1.255   3.421   8.437 -0.2690  0.6772  0.2186
 3297TIP3   OH234085   4.535   5.843   8.230  0.3903  0.1190 -0.6500
 3297TIP3    H134086   4.574   5.799   8.305  1.4526  0.2265 -1.1305
 3297TIP3    H234087   4.583   5.810   8.155 -1.7061 -1.2056 -1.4916
 3298TIP3   OH234088   7.251   7.534   8.817 -0.6433  0.3911 -0.7606
 3298TIP3    H134089   7.191   7.593   8.861 -0.5715 -0.3436  0.3521
 3298TIP3    H234090   7.295   7.487   8.887 -1.1204 -1.4062 -1.6186
 3299TIP3   OH234091   5.970   3.264   8.120  0.0909 -0.6659 -0.9168
 3299TIP3    H134092   6.018   3.282   8.039  1.1085 -0.8785 -0.3774
 3299TIP3    H234093   5.957   3.350   8.160 -0.9016 -0.5040 -1.5632
 3300TIP3   OH234094   4.518   4.513   8.468 -1.0785 -0.4530  0.1614
 3300TIP3    H134095   4.496   4.431   8.425 -2.0731  0.1342 -0.4817
 3300TIP3    H234096   4.438   4.565   8.464  0.3067  1.7568 -2.1895
 3301TIP3   OH234097   6.289   5.254   8.819 -0.7468 -0.0149  0.0653
 3301TIP3    H134098   6.216   5.193   8.826 -0.6334 -0.3690 -1.5487
 3301TIP3    H234099   6.251   5.339   8.839 -1.5424 -0.2324 -0.4705
 3302TIP3   OH234100   0.801   5.489   7.750 -0.8796 -0.1960  0.1632
 3302TIP3    H134101   0.715   5.516   7.782 -1.6319  0.5908 -2.3235
 3302TIP3    H234102   0.859   5.562   7.772 -1.1430 -0.1145  0.5986
 3303TIP3   OH234103   2.808   6.043   7.742  0.1013 -0.3582  0.3810
 3303TIP3    H134104   2.853   5.996   7.812 -0.0588 -0.7945  0.1937
 3303TIP3    H234105   2.726   6.072   7.781 -0.0680 -0.7580  0.3204
 3304TIP3   OH234106   5.402   0.905   8.700 -0.3461  0.2267  0.0922
 3304TIP3    H134107   5.438   0.873   8.783  0.5124 -0.8613 -0.6849
 3304TIP3    H234108   5.307   0.912   8.716 -0.3094 -0.9035  0.8600
 3305TIP3   OH234109   3.449   4.079   9.059 -0.0165  0.6984  0.1981
 3305TIP3    H134110   3.454   4.005   8.999  1.5984 -0.1896  1.3514
 3305TIP3    H234111   3.530   4.074   9.111 -1.0240  1.8086  1.9883
 3306TIP3   OH234112   6.796   1.383   8.753 -0.3762 -0.1248  0.0361
 3306TIP3    H134113   6.803   1.463   8.806  1.2074  0.3536 -0.8212
 3306TIP3    H234114   6.739   1.326   8.804  1.4471  0.1101  2.5581
 3307TIP3   OH234115   2.014   0.181   7.899 -0.3993  0.7487  0.3660
 3307TIP3    H134116   1.933   0.149   7.858  0.1169  0.2910 -0.3054
 3307TIP3    H234117   1.996   0.273   7.919 -0.1399  1.4466 -2.2858
 3308TIP3   OH234118   7.516   1.947   8.215 -0.3956  0.3872  0.4009
 3308TIP3    H134119   7.576   1.946   8.141 -2.3694  3.4579 -1.4821
 3308TIP3    H234120   7.509   1.855   8.241  2.1156 -0.5386 -1.7200
 3309TIP3   OH234121   7.300   7.676   7.085  0.5699  1.0507 -0.1785
 3309TIP3    H134122   7.246   7.646   7.012  0.0523  2.0681 -0.2437
 3309TIP3    H234123   7.380   7.708   7.044  0.5646  0.9860 -0.2383
 3310TIP3   OH234124   5.066   0.959   8.575 -0.3947  0.0423  0.1059
 3310TIP3    H134125   5.120   0.921   8.505 -0.0984 -1.7576  1.2455
 3310TIP3    H234126   5.034   1.042   8.538 -0.1248 -0.7545 -2.0840
 3311TIP3   OH234127   5.732   0.073   8.243  0.5204 -0.1563 -0.3919
 3311TIP3    H134128   5.716   0.162   8.276  3.6369  0.2349  0.3817
 3311TIP3    H234129   5.750   0.021   8.321  0.7662 -0.9675 -0.9733
 3312TIP3   OH234130   5.180   0.835   8.367  0.0196  0.2563 -0.0257
 3312TIP3    H134131   5.227   0.866   8.289 -1.1556 -3.2307 -2.4048
 3312TIP3    H234132   5.241   0.776   8.410 -1.0307 -2.2342 -1.6645
 3313TIP3   OH234133   2.726   7.197   8.956 -0.2795 -0.6509 -0.1229
 3313TIP3    H134134   2.696   7.263   8.893 -1.6389  0.8977  2.0061
 3313TIP3    H234135   2.653   7.136   8.962 -0.8368  0.1012  1.0756
 3314TIP3   OH234136   7.251   6.411   9.616  0.2242  0.3961 -0.1063
 3314TIP3    H134137   7.301   6.352   9.672 -1.8234 -1.2867  0.0750
 3314TIP3    H234138   7.236   6.362   9.536 -2.6053  0.0303  0.5254
 3315TIP3   OH234139   4.808   2.640   8.609  0.4142 -0.5687  0.3518
 3315TIP3    H134140   4.876   2.677   8.665  1.7069 -1.3148 -0.6823
 3315TIP3    H234141   4.804   2.548   8.634 -0.7965 -0.3689  0.9526
 3316TIP3   OH234142   2.495   5.144   8.747  0.5273  0.2152  0.0493
 3316TIP3    H134143   2.510   5.202   8.822  1.2174  0.0392  0.0540
 3316TIP3    H234144   2.425   5.187   8.697 -0.6501 -0.1672  1.2989
 3317TIP3   OH234145   1.410   6.434   8.450 -0.4423  0.1247 -1.0906
 3317TIP3    H134146   1.316   6.420   8.464 -0.2280 -2.2583 -1.5355
 3317TIP3    H234147   1.452   6.387   8.522  0.4196  0.7050 -1.2026
 3318TIP3   OH234148   0.378   1.091   7.506  0.6478 -0.0297 -0.1267
 3318TIP3    H134149   0.284   1.108   7.494  0.8057  1.6469  0.7476
 3318TIP3    H234150   0.421   1.145   7.440  1.0390  0.2144  0.3197
 3319TIP3   OH234151   2.605   2.397   8.642  0.0074  0.1724  0.2547
 3319TIP3    H134152   2.531   2.370   8.589  1.3480 -1.7245 -0.7663
 3319TIP3    H234153   2.573   2.392   8.732 -0.4833 -3.0563  0.0219
 3320TIP3   OH234154   5.423   3.093   8.446 -0.3494  0.5481 -0.4704
 3320TIP3    H134155   5.460   3.085   8.533 -2.5646 -1.9238  0.4008
 3320TIP3    H234156   5.416   3.187   8.431  2.2420  1.0464  0.9771
 3321TIP3   OH234157   6.961   5.090   7.655 -0.2217  0.8237 -0.6952
 3321TIP3    H134158   7.051   5.106   7.683 -0.6157  0.9173  0.5589
 3321TIP3    H234159   6.964   5.005   7.612 -0.2034 -1.1670  2.8577
 3322TIP3   OH234160   3.239   6.454   8.386  0.7722  0.2593 -0.1833
 3322TIP3    H134161   3.241   6.463   8.291  0.2814  0.0293 -0.2168
 3322TIP3    H234162   3.178   6.382   8.402 -0.6183  1.5023  0.3740
 3323TIP3   OH234163   0.102   6.599   8.803 -0.5723 -0.6222 -0.1972
 3323TIP3    H134164   0.017   6.627   8.768 -0.1180  1.8824  0.5328
 3323TIP3    H234165   0.120   6.517   8.756 -2.1076  0.1779 -2.4003
 3324TIP3   OH234166   6.309   2.467   8.279 -0.1092 -0.0698 -0.4859
 3324TIP3    H134167   6.215   2.461   8.264 -0.3282  1.2184  0.2490
 3324TIP3    H234168   6.341   2.522   8.207 -0.2850  1.3436  0.4780
 3325TIP3   OH234169   7.162   1.186   8.281 -0.4719  0.4561  0.3833
 3325TIP3    H134170   7.177   1.117   8.345 -0.9693 -0.9113 -0.9187
 3325TIP3    H234171   7.113   1.253   8.328  2.4951  1.3655  2.5273
 3326TIP3   OH234172   5.139   3.032   8.760 -0.1521 -0.6144 -0.0940
 3326TIP3    H134173   5.149   3.088   8.838 -1.0115  0.0109 -0.4118
 3326TIP3    H234174   5.144   3.093   8.687 -0.8715 -0.9807 -0.4575
 3327TIP3   OH234175   7.521   0.565   8.191 -0.7071 -0.6634 -0.2485
 3327TIP3    H134176   7.465   0.620   8.246 -1.0747 -1.1395 -0.1389
 3327TIP3    H234177   7.466   0.491   8.168  0.0141 -1.3513  0.2112
 3328TIP3   OH234178   3.124   5.313   8.301 -0.5283  0.1034  0.2069
 3328TIP3    H134179   3.212   5.339   8.329 -0.2187 -1.9698  1.3175
 3328TIP3    H234180   3.066   5.359   8.361 -0.3631  2.4228 -1.2511
 3329TIP3   OH234181   1.844   6.322   7.422  0.0754 -0.5782 -0.2329
 3329TIP3    H134182   1.909   6.384   7.455 -1.5552  0.5978  0.9446
 3329TIP3    H234183   1.807   6.365   7.344 -1.3561  0.2059  0.8283
 3330TIP3   OH234184   1.841   3.334   7.483  0.2966  0.2051  0.8376
 3330TIP3    H134185   1.902   3.304   7.550  0.4465  0.1690  0.6875
 3330TIP3    H234186   1.854   3.428   7.479  1.3612  0.0383 -0.1713
 3331TIP3   OH234187   1.298   6.349   7.976  0.2154 -0.1907  0.2682
 3331TIP3    H134188   1.227   6.336   7.913 -0.2182  1.9188  0.2469
 3331TIP3    H234189   1.258   6.400   8.046  1.4793  0.1514  0.7597
 3332TIP3   OH234190   6.794   2.208   9.578 -0.1977  0.2381  0.0028
 3332TIP3    H134191   6.769   2.117   9.596  2.5302 -0.2988  1.6075
 3332TIP3    H234192   6.720   2.244   9.529 -0.8262 -3.2295 -1.9312
 3333TIP3   OH234193   0.736   6.312   7.553  0.0184 -0.3053 -0.3314
 3333TIP3    H134194   0.806   6.377   7.562 -0.5075  0.6313 -2.4796
 3333TIP3    H234195   0.656   6.363   7.558 -0.4882 -1.1275  0.2114
 3334TIP3   OH234196   0.358   5.859   7.168 -0.5660 -0.1676  0.3389
 3334TIP3    H134197   0.447   5.878   7.140 -0.8790  1.0158  0.1115
 3334TIP3    H234198   0.327   5.941   7.206 -2.0088 -0.1599 -0.7877
 3335TIP3   OH234199   0.875   4.118   8.712 -0.7430 -0.0636 -0.0945
 3335TIP3    H134200   0.827   4.140   8.792 -0.4655 -0.1901  0.1093
 3335TIP3    H234201   0.901   4.027   8.724  1.3258  0.5608  0.7419
 3336TIP3   OH234202   7.202   4.915   7.422 -0.5603  0.2961 -0.5022
 3336TIP3    H134203   7.130   4.870   7.378 -0.5822  0.0055 -0.1766
 3336TIP3    H234204   7.279   4.861   7.403 -0.5231  0.3136 -0.3993
 3337TIP3   OH234205   0.259   1.183   8.014  0.0036  0.4566 -0.3494
 3337TIP3    H134206   0.256   1.262   8.069  3.5850  0.1662  0.4597
 3337TIP3    H234207   0.236   1.112   8.073 -0.3478  0.5736 -0.3410
 3338TIP3   OH234208   6.215   1.105   8.555 -0.1467  0.1044  0.1257
 3338TIP3    H134209   6.187   1.051   8.482 -1.8348  0.0447  0.7794
 3338TIP3    H234210   6.150   1.090   8.624 -0.0969  2.1479  0.7046
 3339TIP3   OH234211   1.739   1.913   8.847  0.4131  0.1656 -0.1330
 3339TIP3    H134212   1.729   1.859   8.926  1.0259  0.7532  0.3586
 3339TIP3    H234213   1.663   1.972   8.849  0.0639 -0.2707 -0.3505
 3340TIP3   OH234214   0.061   4.442   8.299  0.0019  0.5582  0.2006
 3340TIP3    H134215   0.014   4.376   8.349 -0.3608  0.8977  0.3104
 3340TIP3    H234216   0.017   4.524   8.319 -0.0850  0.7176 -0.5811
 3341TIP3   OH234217   5.498   3.219   8.716 -0.0717  0.2590 -0.6349
 3341TIP3    H134218   5.592   3.234   8.722 -0.2607  0.8556  1.7753
 3341TIP3    H234219   5.465   3.293   8.666  0.3971  1.9240  1.3702
 3342TIP3   OH234220   2.745   3.859   6.595 -0.1124 -0.1312 -0.2028
 3342TIP3    H134221   2.785   3.808   6.665 -1.0714 -1.5430 -0.6488
 3342TIP3    H234222   2.790   3.831   6.516  0.4320  0.8944 -0.2752
 3343TIP3   OH234223   3.159   5.938   8.368  0.1288  0.1786  0.3800
 3343TIP3    H134224   3.141   6.018   8.417 -1.8717 -0.0290  0.0520
 3343TIP3    H234225   3.109   5.870   8.413  1.8766 -0.9383  0.7181
 3344TIP3   OH234226   6.707   5.564   8.877 -0.2919 -0.4847  0.2730
 3344TIP3    H134227   6.661   5.485   8.905 -0.0322 -1.0342 -0.7894
 3344TIP3    H234228   6.638   5.626   8.854 -0.4958 -0.3394  1.2657
 3345TIP3   OH234229   6.180   2.052   8.890 -0.7024 -0.2032 -0.2762
 3345TIP3    H134230   6.177   1.980   8.954 -0.8221 -0.3753 -0.4715
 3345TIP3    H234231   6.098   2.042   8.841  0.0498 -0.9686 -1.4205
 3346TIP3   OH234232   4.095   7.524   8.172 -0.4628  0.3496 -0.0204
 3346TIP3    H134233   4.095   7.562   8.261 -1.4170 -1.4995  0.8215
 3346TIP3    H234234   4.010   7.549   8.136 -0.2441  0.7463 -0.2699
 3347TIP3   OH234235   2.502   5.924   9.341  0.4032  0.5909 -0.1518
 3347TIP3    H134236   2.591   5.954   9.361 -0.0822  1.0507  1.4532
 3347TIP3    H234237   2.450   6.005   9.339 -0.1515  0.2371 -0.0673
 3348TIP3   OH234238   4.401   2.971   7.727 -0.1909 -0.5187  0.0394
 3348TIP3    H134239   4.367   2.885   7.751 -1.0463 -0.0395  0.5831
 3348TIP3    H234240   4.392   2.975   7.632  0.5038 -1.2947 -0.0686
 3349TIP3   OH234241   3.084   6.123   7.392  0.2009 -0.1518  0.2709
 3349TIP3    H134242   3.044   6.126   7.305 -0.7816  0.9683  0.7321
 3349TIP3    H234243   3.174   6.097   7.377  0.1779  0.5135 -1.1363
 3350TIP3   OH234244   3.758   5.009   7.089 -0.6465  0.5049 -0.3792
 3350TIP3    H134245   3.698   5.012   7.163 -2.7372  0.9093 -1.9970
 3350TIP3    H234246   3.715   4.953   7.025  1.7749 -1.0436 -0.7924
 3351TIP3   OH234247   7.289   3.542   8.592  0.2945 -0.2479  0.4149
 3351TIP3    H134248   7.313   3.607   8.658 -2.2144  0.2830  0.9338
 3351TIP3    H234249   7.194   3.554   8.581  0.3385 -1.5804 -1.9536
 3352TIP3   OH234250   2.232   3.507   6.299  0.5949  0.0490  0.2308
 3352TIP3    H134251   2.253   3.497   6.392  1.5279  1.5175  0.2045
 3352TIP3    H234252   2.308   3.472   6.253  0.6415  0.3854  0.0470
 3353TIP3   OH234253   1.762   5.936   7.767 -0.4924 -0.2476  0.2771
 3353TIP3    H134254   1.727   6.009   7.716  2.3472  0.3289 -1.0289
 3353TIP3    H234255   1.816   5.976   7.834  2.1114 -1.0215 -1.2127
 3354TIP3   OH234256   6.753   0.264   9.505  0.2510 -0.3483  0.2874
 3354TIP3    H134257   6.830   0.318   9.520  0.4565 -0.8479  1.0797
 3354TIP3    H234258   6.778   0.205   9.434  0.4153 -0.1673  0.1934
 3355TIP3   OH234259   4.398   3.646   8.476 -0.2505 -0.7344  0.3783
 3355TIP3    H134260   4.410   3.740   8.460 -1.5353 -0.5563  0.3584
 3355TIP3    H234261   4.419   3.605   8.392  0.7173 -0.5181  0.5000
 3356TIP3   OH234262   1.688   6.617   6.790 -0.4107  0.3084  0.0993
 3356TIP3    H134263   1.593   6.607   6.785 -0.3068 -0.2757 -1.7796
 3356TIP3    H234264   1.703   6.710   6.778 -0.7466  0.3841  0.2581
 3357TIP3   OH234265   4.389   4.762   7.911 -0.0067 -0.1494  0.3211
 3357TIP3    H134266   4.381   4.773   8.005 -2.1257  1.8725 -0.0002
 3357TIP3    H234267   4.300   4.773   7.877  0.8291  0.1729 -2.0036
 3358TIP3   OH234268   6.495   6.801   6.846  0.1396  0.0308 -0.2297
 3358TIP3    H134269   6.583   6.807   6.807  0.1435 -0.2419 -0.2634
 3358TIP3    H234270   6.481   6.887   6.886  0.5716 -0.0469  0.0938
 3359TIP3   OH234271   0.001   2.023   7.169  0.2040 -0.0715 -0.6689
 3359TIP3    H134272   0.088   2.029   7.129  0.9232  1.7070  0.9616
 3359TIP3    H234273  -0.051   2.090   7.123 -0.1593 -0.7517 -1.2663
 3360TIP3   OH234274   2.969   7.045   8.925  0.4997  0.4225  0.2540
 3360TIP3    H134275   3.046   7.100   8.910  0.2687  0.7408  0.2240
 3360TIP3    H234276   2.896   7.107   8.930 -0.4438 -0.0377 -3.9803
 3361TIP3   OH234277   2.760   4.367   8.454  0.3339 -0.6158  0.0922
 3361TIP3    H134278   2.724   4.280   8.471  1.2536 -1.0296 -0.0284
 3361TIP3    H234279   2.855   4.356   8.463  0.4786  0.3121 -0.2044
 3362TIP3   OH234280   3.328   3.701   8.548 -0.2778  0.4677  0.1749
 3362TIP3    H134281   3.240   3.694   8.585 -0.3396  2.0432  0.3886
 3362TIP3    H234282   3.315   3.743   8.463  0.3343  1.5482  0.6003
 3363TIP3   OH234283   3.870   5.115   9.379  0.3192 -0.4735  0.4078
 3363TIP3    H134284   3.936   5.072   9.433  0.5838 -1.1645 -0.4521
 3363TIP3    H234285   3.918   5.141   9.300 -0.6550 -1.9816 -0.7236
 3364TIP3   OH234286   4.328   7.519   9.209 -0.0017 -0.2088  0.8279
 3364TIP3    H134287   4.424   7.519   9.215 -0.0712  0.9308  2.9847
 3364TIP3    H234288   4.301   7.442   9.259 -0.2145 -0.2219  0.6894
 3365TIP3   OH234289   1.275   5.706   7.094 -0.5212  0.2655 -0.4892
 3365TIP3    H134290   1.285   5.758   7.014  1.9901 -1.1465 -1.1896
 3365TIP3    H234291   1.324   5.626   7.077 -2.9871 -1.7283  1.1293
 3366TIP3   OH234292   1.959   7.410   8.935 -0.3246  0.0574 -0.6754
 3366TIP3    H134293   1.910   7.346   8.883 -0.4852 -0.3007 -0.0954
 3366TIP3    H234294   1.893   7.451   8.990 -0.1604  0.4581 -0.7743
 3367TIP3   OH234295   5.027   0.422   8.712 -0.5208  0.2822  0.5301
 3367TIP3    H134296   4.954   0.421   8.649  0.2463  0.4541 -0.3829
 3367TIP3    H234297   5.071   0.506   8.696  0.0507  0.0515  0.8673
 3368TIP3   OH234298   3.836   0.005   8.106 -0.1176 -0.0798  0.8259
 3368TIP3    H134299   3.827   0.055   8.025  1.2372 -0.0053  0.7019
 3368TIP3    H234300   3.883   0.063   8.166  0.7565 -0.8916  0.9578
 3369TIP3   OH234301   0.194   0.772   9.209 -0.0978 -0.4216  0.0543
 3369TIP3    H134302   0.275   0.811   9.242 -0.4396  0.5302 -0.1781
 3369TIP3    H234303   0.177   0.819   9.127 -1.3572  0.0360  0.5555
 3370TIP3   OH234304   1.540   4.783   9.370 -0.5933  0.1495  0.1723
 3370TIP3    H134305   1.475   4.840   9.411 -0.2230  0.6089  0.1298
 3370TIP3    H234306   1.622   4.801   9.417  0.0497  1.3515 -1.3161
 3371TIP3   OH234307   4.886   0.330   7.601  0.1200  0.0938  0.0425
 3371TIP3    H134308   4.971   0.346   7.642  0.4701  0.9101 -0.9576
 3371TIP3    H234309   4.894   0.242   7.563 -0.1210 -0.5603  1.4657
 3372TIP3   OH234310   7.408   4.086   7.501  0.2158  0.0074 -0.9867
 3372TIP3    H134311   7.456   4.093   7.584 -0.4692  0.9646 -0.6532
 3372TIP3    H234312   7.316   4.089   7.526 -0.0071 -0.4490 -1.7320
 3373TIP3   OH234313   3.246   2.612   8.867 -0.2290  0.2885 -0.1299
 3373TIP3    H134314   3.319   2.610   8.805  0.2682  1.0423  0.4055
 3373TIP3    H234315   3.286   2.636   8.951 -0.8904 -0.6719  0.4891
 3374TIP3   OH234316   6.321   2.199   8.331  0.1045 -0.0735 -0.0851
 3374TIP3    H134317   6.351   2.166   8.247 -0.5138 -0.1804 -0.2685
 3374TIP3    H234318   6.322   2.295   8.321 -2.3187 -0.0817 -1.0956
 3375TIP3   OH234319   4.194   6.055   7.445 -0.5233  0.2725 -0.1656
 3375TIP3    H134320   4.106   6.024   7.423  0.9368 -3.2894 -1.7827
 3375TIP3    H234321   4.209   6.024   7.534 -0.3267 -0.7704 -0.5408
 3376TIP3   OH234322   1.146   5.652   8.421  0.0104  0.7171  0.4002
 3376TIP3    H134323   1.127   5.597   8.497  1.8332 -0.9483 -0.2401
 3376TIP3    H234324   1.060   5.681   8.390 -0.8048  1.0010  2.7277
 3377TIP3   OH234325   3.482   5.632   8.541 -0.0092 -0.6122  0.1586
 3377TIP3    H134326   3.440   5.556   8.501  1.2988 -0.4141 -1.7702
 3377TIP3    H234327   3.570   5.601   8.565  0.7664  0.3911 -1.2305
 3378TIP3   OH234328   7.528   2.600   7.968  0.2938 -0.1356  0.3937
 3378TIP3    H134329   7.538   2.505   7.962 -1.8443 -0.4705  1.1124
 3378TIP3    H234330   7.514   2.617   8.061  1.4040  1.0000  0.3806
 3379TIP3   OH234331   0.159   5.941   7.449 -0.6510  0.3545  0.2513
 3379TIP3    H134332   0.253   5.950   7.468 -0.5961 -0.8635  0.6744
 3379TIP3    H234333   0.119   6.017   7.490  0.2220  1.2854 -0.5676
 3380TIP3   OH234334   2.648   4.304   7.605 -0.6844  0.1139  0.3252
 3380TIP3    H134335   2.708   4.336   7.537  0.2012  0.4716  1.2423
 3380TIP3    H234336   2.671   4.211   7.616 -0.5949  0.1415  0.3706
 3381TIP3   OH234337   1.980   7.346   7.896  0.1326  0.0137 -0.5455
 3381TIP3    H134338   1.920   7.345   7.971  0.5798  0.9538 -0.1520
 3381TIP3    H234339   1.956   7.269   7.845  0.7214 -1.4138  1.2562
 3382TIP3   OH234340   3.473   3.320   9.226 -0.4238  0.1629 -0.6858
 3382TIP3    H134341   3.400   3.354   9.174 -0.5231 -0.7340 -1.1532
 3382TIP3    H234342   3.548   3.322   9.166 -0.2178  0.4412 -0.4202
 3383TIP3   OH234343   2.435   6.995   7.489  0.2732  0.2370 -0.2643
 3383TIP3    H134344   2.367   6.930   7.480 -0.3286  0.8361 -0.1399
 3383TIP3    H234345   2.421   7.055   7.416 -0.6395  1.5127  0.8978
 3384TIP3   OH234346   2.597   3.401   8.102 -0.1262  0.1949  0.1075
 3384TIP3    H134347   2.637   3.416   8.188  0.3784 -1.3911  0.1839
 3384TIP3    H234348   2.545   3.322   8.113  1.2524 -1.0008 -1.4221
 3385TIP3   OH234349   1.270   2.359   8.407 -0.4491  0.2114  0.2762
 3385TIP3    H134350   1.223   2.277   8.413 -1.2243  0.5935 -0.3955
 3385TIP3    H234351   1.281   2.388   8.498 -1.1072 -0.1022  0.4559
 3386TIP3   OH234352   3.061   7.280   7.606 -0.1426 -0.7838  0.7987
 3386TIP3    H134353   2.966   7.290   7.604 -0.2074 -0.5581  2.6372
 3386TIP3    H234354   3.085   7.299   7.697  1.9003  1.3172 -0.0613
 3387TIP3   OH234355   6.810   1.494   8.157 -0.0775  0.1154 -0.0231
 3387TIP3    H134356   6.716   1.503   8.175  0.3677  2.8394  1.3871
 3387TIP3    H234357   6.851   1.493   8.243  1.2934  0.7831 -0.6376
 3388TIP3   OH234358   6.220   3.248   8.776 -0.3413 -0.6499 -0.3932
 3388TIP3    H134359   6.254   3.208   8.856  0.6153 -0.3627 -0.6420
 3388TIP3    H234360   6.244   3.186   8.707 -1.6024 -1.1404 -0.4069
 3389TIP3   OH234361   3.338   0.525   7.360  0.4073 -0.3782  0.0501
 3389TIP3    H134362   3.418   0.477   7.378  1.4768  0.6592 -1.6056
 3389TIP3    H234363   3.313   0.497   7.271  1.9057  3.0139 -1.6403
 3390TIP3   OH234364   1.928   7.310   8.339  0.0071  0.2577 -0.7480
 3390TIP3    H134365   1.993   7.241   8.348 -0.0909  0.0374 -1.5944
 3390TIP3    H234366   1.952   7.376   8.404  0.4787 -0.2782 -0.3760
 3391TIP3   OH234367   2.511   1.778   7.586 -0.3221  0.8573 -0.4311
 3391TIP3    H134368   2.458   1.727   7.648  0.1715  1.2174  0.2954
 3391TIP3    H234369   2.578   1.820   7.640  0.7525  0.3604 -1.3416
 3392TIP3   OH234370   3.420   4.167   8.066 -0.2329 -0.4536  0.1033
 3392TIP3    H134371   3.463   4.248   8.095 -0.4377 -0.7123  1.2057
 3392TIP3    H234372   3.448   4.155   7.975  1.3679 -0.1673  0.5237
 3393TIP3   OH234373   0.706   5.347   8.374  0.4209  0.3445  0.4413
 3393TIP3    H134374   0.684   5.308   8.458 -2.8051 -0.3691 -0.5705
 3393TIP3    H234375   0.622   5.378   8.339  1.3567 -0.5383 -3.0333
 3394TIP3   OH234376   6.367   4.203   7.183  0.4457 -0.2714 -0.3293
 3394TIP3    H134377   6.448   4.163   7.213  0.9292  1.0832  0.2502
 3394TIP3    H234378   6.301   4.134   7.190  1.3242 -1.0673  0.2217
 3395TIP3   OH234379   0.496   7.110   8.905 -0.5512  0.2952  0.1282
 3395TIP3    H134380   0.465   7.138   8.819  1.3663  1.9523 -0.1085
 3395TIP3    H234381   0.422   7.063   8.943 -2.0888  1.0903 -1.7005
 3396TIP3   OH234382   5.148   4.708   7.807 -0.1462 -0.1584 -0.6395
 3396TIP3    H134383   5.114   4.797   7.807 -3.9863 -1.4455 -0.0899
 3396TIP3    H234384   5.199   4.702   7.888  2.7646  2.2367 -2.1022
 3397TIP3   OH234385   7.135   7.625   8.131  0.4927  0.1577 -0.7356
 3397TIP3    H134386   7.165   7.649   8.044  0.5057  0.3905 -0.6697
 3397TIP3    H234387   7.039   7.623   8.123  0.5158 -0.3542 -0.8874
 3398TIP3   OH234388   3.579   0.260   8.999 -0.2957 -0.0959  0.3949
 3398TIP3    H134389   3.589   0.283   9.091 -2.5497 -1.0138  0.9457
 3398TIP3    H234390   3.654   0.203   8.980  0.1146 -0.0275  1.6993
 3399TIP3   OH234391   4.309   4.144   8.491  0.3263  0.8165  0.1293
 3399TIP3    H134392   4.231   4.192   8.465  0.7240  1.8422  0.7643
 3399TIP3    H234393   4.379   4.181   8.438  0.7714  1.4934  1.1493
 3400TIP3   OH234394   0.754   0.960   9.545  0.0725 -0.0934  0.5185
 3400TIP3    H134395   0.701   0.993   9.618 -1.9764  0.9574 -1.3355
 3400TIP3    H234396   0.712   0.877   9.521  0.4429 -0.2021  0.2471
 3401TIP3   OH234397   5.485   5.885   9.001  0.0592 -0.9071  0.2774
 3401TIP3    H134398   5.525   5.814   9.051 -2.4965 -0.7130  2.8806
 3401TIP3    H234399   5.533   5.963   9.029  0.3077 -1.1096  0.4290
 3402TIP3   OH234400   1.514   6.328   8.205 -0.1150  0.2107 -0.2132
 3402TIP3    H134401   1.462   6.370   8.273 -0.4386  0.9361 -0.8917
 3402TIP3    H234402   1.514   6.391   8.133 -0.2781 -0.7902 -1.1091
 3403TIP3   OH234403   7.578   5.053   8.671 -0.1147 -0.0753  0.0308
 3403TIP3    H134404   7.538   5.053   8.758 -1.0755 -0.8120 -0.3838
 3403TIP3    H234405   7.608   4.963   8.659  0.6490  0.1933 -0.1278
 3404TIP3   OH234406   5.439   2.163   9.411 -1.4618  0.2000 -0.1393
 3404TIP3    H134407   5.423   2.194   9.500  1.1504  0.7602  0.2225
 3404TIP3    H234408   5.377   2.091   9.398 -0.5591 -1.2742  2.8915
 3405TIP3   OH234409   6.246   5.478   6.719  0.2466 -0.2014  0.6407
 3405TIP3    H134410   6.160   5.450   6.687  0.7236 -0.9277 -0.0418
 3405TIP3    H234411   6.233   5.569   6.744 -0.6235 -0.1698  0.1432
 3406TIP3   OH234412   7.471   6.446   7.075 -0.5966 -0.3012 -0.0227
 3406TIP3    H134413   7.456   6.496   7.155 -1.4666 -2.0494  0.9623
 3406TIP3    H234414   7.417   6.489   7.009 -1.3596  0.0387  0.8120
 3407TIP3   OH234415   2.142   2.412   8.797 -0.0362 -0.3949 -0.0985
 3407TIP3    H134416   2.096   2.496   8.791  0.1808 -0.1622  1.2103
 3407TIP3    H234417   2.091   2.362   8.860 -0.3492 -1.3824 -1.1189
 3408TIP3   OH234418   7.304   7.334   7.177  0.3647  0.1952 -0.6553
 3408TIP3    H134419   7.357   7.267   7.135  2.0200  0.9289  0.1677
 3408TIP3    H234420   7.319   7.413   7.125  0.8747  0.6456  0.1548
 3409TIP3   OH234421   5.558   1.154   9.031  0.0697  0.0693 -0.3220
 3409TIP3    H134422   5.548   1.159   9.126 -0.2847 -0.4142 -0.3280
 3409TIP3    H234423   5.472   1.179   8.996  0.2971  0.5805 -0.5283
 3410TIP3   OH234424   2.596   0.384   9.182  0.5105 -0.4720 -1.2292
 3410TIP3    H134425   2.536   0.458   9.170  1.1431 -0.1108 -2.2672
 3410TIP3    H234426   2.540   0.307   9.174 -0.0167 -0.1208 -0.9847
 3411TIP3   OH234427   7.132   6.850   7.789  0.1147 -0.2322 -0.4632
 3411TIP3    H134428   7.090   6.769   7.759 -1.1809  0.2880 -0.1409
 3411TIP3    H234429   7.130   6.844   7.884  1.9646 -0.7627 -0.4309
 3412TIP3   OH234430   1.486   7.200   8.135  0.9549  0.0485  0.0334
 3412TIP3    H134431   1.495   7.175   8.044 -0.1131 -1.1178  0.2236
 3412TIP3    H234432   1.419   7.269   8.134  0.9001 -0.0057 -0.0610
 3413TIP3   OH234433   4.017   6.948   9.082 -0.4141  1.4739  0.0136
 3413TIP3    H134434   3.936   6.993   9.058 -1.2800 -0.0752 -0.0949
 3413TIP3    H234435   4.025   6.959   9.176 -1.6981  0.1781  0.2946
 3414TIP3   OH234436   3.348   2.559   7.104 -0.0734 -0.6153 -0.1644
 3414TIP3    H134437   3.357   2.653   7.091  0.4055 -0.8426 -1.6697
 3414TIP3    H234438   3.270   2.550   7.160 -0.2634  0.6489 -0.1936
 3415TIP3   OH234439   2.371   6.018   6.929 -0.0177  0.4744 -0.1842
 3415TIP3    H134440   2.295   6.068   6.899 -0.5517 -0.8635 -1.1618
 3415TIP3    H234441   2.433   6.024   6.857 -0.5286 -1.1216 -0.8260
 3416TIP3   OH234442   2.866   7.355   7.148 -0.1524  0.3033  0.7229
 3416TIP3    H134443   2.928   7.399   7.089  0.6551 -0.2126  1.1708
 3416TIP3    H234444   2.816   7.296   7.092  2.2002 -1.9685  0.8095
 3417TIP3   OH234445   5.198   4.462   8.506 -0.0581 -0.1223 -0.3584
 3417TIP3    H134446   5.276   4.410   8.520 -0.1788 -0.5178 -1.1240
 3417TIP3    H234447   5.169   4.486   8.594 -0.1692 -1.5957  0.0265
 3418TIP3   OH234448   3.026   3.182   7.168 -0.1366  0.1981  0.4400
 3418TIP3    H134449   3.116   3.163   7.141 -0.8032 -3.3016  0.1813
 3418TIP3    H234450   2.976   3.179   7.086 -1.1572 -3.4855  1.0112
 3419TIP3   OH234451   6.898   3.448   7.851 -0.3621  0.0866  0.3545
 3419TIP3    H134452   6.810   3.445   7.814 -1.1761 -0.7187  2.2389
 3419TIP3    H234453   6.893   3.515   7.919  0.8938  0.9956 -0.3900
 3420TIP3   OH234454   5.499   5.629   7.533 -0.1660 -0.2713 -0.4117
 3420TIP3    H134455   5.418   5.598   7.573  0.2299 -0.1807  0.4841
 3420TIP3    H234456   5.517   5.713   7.575  0.8244 -0.6769  0.0124
 3421TIP3   OH234457   0.995   6.724   7.650  0.1700 -0.5319  0.0533
 3421TIP3    H134458   1.015   6.814   7.626  3.1656 -0.8624  0.9325
 3421TIP3    H234459   1.044   6.670   7.588 -0.7191 -1.5412  0.1959
 3422TIP3   OH234460   7.562   6.014   9.084  0.1788 -0.3206  0.6197
 3422TIP3    H134461   7.506   5.975   9.017  0.4564 -0.4541  0.4632
 3422TIP3    H234462   7.528   6.103   9.095 -0.3381 -0.5387  0.8417
 3423TIP3   OH234463   0.098   2.048   7.533 -0.0004  0.3796 -0.3241
 3423TIP3    H134464   0.112   2.001   7.451  1.3751  0.8133 -0.3495
 3423TIP3    H234465   0.017   2.097   7.519 -0.9381 -1.1614 -0.6514
 3424TIP3   OH234466   3.643   7.453   8.690  0.4703  0.1653  0.5364
 3424TIP3    H134467   3.682   7.539   8.673  1.0548 -0.0229  0.9252
 3424TIP3    H234468   3.558   7.473   8.730 -1.7181  0.7140 -3.7636
 3425TIP3   OH234469   4.709   5.465   8.767  0.1541 -0.3265 -0.4086
 3425TIP3    H134470   4.620   5.436   8.746 -0.0264 -1.0703  1.2186
 3425TIP3    H234471   4.766   5.397   8.731 -0.0505 -0.7729  0.1024
 3426TIP3   OH234472   3.053   1.497   8.273  0.0352  0.2842  0.2086
 3426TIP3    H134473   3.127   1.544   8.313 -0.3629  0.3083  0.9293
 3426TIP3    H234474   3.055   1.523   8.181  0.0651  1.3945  0.5156
 3427TIP3   OH234475   2.887   3.274   8.016 -0.2463 -0.4014 -0.0708
 3427TIP3    H134476   2.866   3.284   8.109  1.8971 -0.6717  0.4976
 3427TIP3    H234477   2.980   3.296   8.010 -0.1552 -1.1256 -2.0299
 3428TIP3   OH234478   4.315   3.364   9.475  0.1086  0.0019 -0.2795
 3428TIP3    H134479   4.409   3.364   9.456  0.3102 -0.2416  0.7158
 3428TIP3    H234480   4.276   3.404   9.397  1.1697  1.5001 -0.0974
 3429TIP3   OH234481   3.055   3.392   9.178  0.2410 -0.3832  0.3651
 3429TIP3    H134482   3.082   3.451   9.248 -1.0965 -0.9115  1.3731
 3429TIP3    H234483   2.968   3.363   9.204 -0.0792 -0.9999 -1.2750
 3430TIP3   OH234484   2.998   0.628   9.064 -0.1654  0.3755  0.2135
 3430TIP3    H134485   2.911   0.626   9.105 -1.4305 -3.1099 -2.1829
 3430TIP3    H234486   2.986   0.681   8.986  0.2961  1.1136  0.6372
 3431TIP3   OH234487   6.945   6.867   8.693  0.8432 -0.1430  0.2082
 3431TIP3    H134488   6.946   6.909   8.607  1.6483 -2.0159 -0.7376
 3431TIP3    H234489   7.035   6.874   8.724  0.7526 -0.2583  0.4961
 3432TIP3   OH234490   7.632   0.134   8.475 -1.1158  0.0344 -0.5413
 3432TIP3    H134491   7.639   0.151   8.381  1.7302 -0.2379 -0.4779
 3432TIP3    H234492   7.696   0.065   8.492 -2.2907 -0.6583  1.4655
 3433TIP3   OH234493   5.836   1.428   6.642  0.2599 -0.3611 -0.0443
 3433TIP3    H134494   5.822   1.519   6.615  0.9782 -0.9716 -2.6972
 3433TIP3    H234495   5.878   1.436   6.728 -0.7618  1.7644  0.3314
 3434TIP3   OH234496   2.933   5.156   6.851  0.4049 -0.1984  0.6405
 3434TIP3    H134497   2.897   5.098   6.784 -0.0344 -0.3172  0.9692
 3434TIP3    H234498   2.865   5.222   6.866  1.0796  0.6735 -0.0426
 3435TIP3   OH234499   3.086   7.410   6.970 -0.0426  0.2566  0.4572
 3435TIP3    H134500   3.031   7.391   6.893 -0.0778  0.2992  0.4713
 3435TIP3    H234501   3.150   7.339   6.971 -0.8667 -0.5046  1.1628
 3436TIP3   OH234502   7.542   0.941   8.963 -0.6879 -0.0673 -0.1476
 3436TIP3    H134503   7.529   0.925   9.057  0.4161 -0.7809 -0.1030
 3436TIP3    H234504   7.453   0.954   8.929 -1.0661  0.9481  1.1159
 3437TIP3   OH234505   3.710   4.245   8.500  0.0024 -0.4705  0.0438
 3437TIP3    H134506   3.716   4.340   8.488 -0.2147 -0.3132  1.1074
 3437TIP3    H234507   3.791   4.222   8.546 -0.1699 -0.7299  0.2158
 3438TIP3   OH234508   2.872   3.718   9.231 -0.4697 -0.0883  1.2021
 3438TIP3    H134509   2.923   3.788   9.189 -1.1385  0.1671  0.7839
 3438TIP3    H234510   2.935   3.670   9.284  0.1909  0.2473  0.7360
 3439TIP3   OH234511   5.158   6.699   7.134 -0.5071  0.4140  0.1867
 3439TIP3    H134512   5.169   6.782   7.088  1.7950  1.0735  1.7740
 3439TIP3    H234513   5.246   6.676   7.163 -1.3801 -1.6574  1.3723
 3440TIP3   OH234514   6.928   1.953   9.099  0.3024 -0.1926  0.4864
 3440TIP3    H134515   6.920   1.962   9.194 -0.3259 -0.3057  0.4483
 3440TIP3    H234516   6.936   1.859   9.084  1.4453 -0.1039  0.4969
 3441TIP3   OH234517   5.208   0.847   8.937 -0.3174 -0.4646 -0.3323
 3441TIP3    H134518   5.168   0.801   9.011 -1.7106  0.1770 -0.6604
 3441TIP3    H234519   5.294   0.874   8.970 -0.9520 -0.0821  1.1141
 3442TIP3   OH234520   4.871   3.126   8.562 -0.2033 -0.1071 -0.0842
 3442TIP3    H134521   4.876   3.111   8.656  0.8478 -1.2465 -0.2892
 3442TIP3    H234522   4.951   3.174   8.541  1.1704 -2.5512 -0.8042
 3443TIP3   OH234523   6.802   7.248   7.833  0.2658 -0.3594 -0.4832
 3443TIP3    H134524   6.883   7.298   7.827 -0.3378  0.7853  0.4482
 3443TIP3    H234525   6.771   7.263   7.922 -1.0713 -0.5898 -0.8841
 3444TIP3   OH234526   1.342   1.839   8.623 -0.5741 -0.0318  0.2768
 3444TIP3    H134527   1.437   1.835   8.612 -0.6047  0.2196 -0.0892
 3444TIP3    H234528   1.309   1.865   8.537 -0.9745 -0.1159  0.4042
 3445TIP3   OH234529   1.363   4.006   6.449 -0.0543 -0.6349  0.2191
 3445TIP3    H134530   1.421   3.993   6.374 -0.5848 -0.4090 -0.2437
 3445TIP3    H234531   1.340   4.099   6.445 -0.8091 -0.8198  0.1138
 3446TIP3   OH234532   5.520   2.361   9.213  0.1309  0.2821  0.5175
 3446TIP3    H134533   5.540   2.446   9.253  0.4747  0.5992 -0.3119
 3446TIP3    H234534   5.530   2.299   9.285  0.5703  0.8610  0.9755
 3447TIP3   OH234535   7.477   4.406   8.586 -0.6356  0.4169 -0.0762
 3447TIP3    H134536   7.422   4.339   8.545 -0.5582  0.9443 -1.0647
 3447TIP3    H234537   7.431   4.488   8.570 -0.3560  0.6859  0.4858
 3448TIP3   OH234538   6.673   3.656   9.374  0.1646 -0.4728  0.6170
 3448TIP3    H134539   6.649   3.655   9.467  0.1687 -0.6489  0.6157
 3448TIP3    H234540   6.597   3.619   9.330  0.0632 -0.1607  0.5259
 3449TIP3   OH234541   5.866   4.822   8.273 -0.8676 -0.2486 -0.7555
 3449TIP3    H134542   5.828   4.860   8.193 -1.8761 -0.7657 -0.5418
 3449TIP3    H234543   5.934   4.764   8.241  0.5508  1.5127 -1.1032
 3450TIP3   OH234544   6.274   3.926   8.490 -0.1792  1.0378  0.4247
 3450TIP3    H134545   6.322   3.905   8.571  0.9819 -0.0715 -0.5139
 3450TIP3    H234546   6.319   4.002   8.455 -0.5555  1.3932  0.6985
 3451TIP3   OH234547   5.471   6.801   8.102 -0.0850  0.0850 -0.2005
 3451TIP3    H134548   5.537   6.739   8.133 -0.2414  0.0285  0.0274
 3451TIP3    H234549   5.499   6.824   8.014  0.7941  0.8279  0.2561
 3452TIP3   OH234550   1.123   5.198   7.871 -0.2394  0.2741 -0.4186
 3452TIP3    H134551   1.071   5.152   7.937 -0.9845  2.0751  0.3334
 3452TIP3    H234552   1.180   5.131   7.834 -1.2706 -1.2243  0.5888
 3453TIP3   OH234553   2.527   6.165   8.810 -0.1242 -0.4386 -0.4059
 3453TIP3    H134554   2.469   6.205   8.875  1.1971 -1.2320  1.3753
 3453TIP3    H234555   2.469   6.117   8.752 -1.4304  0.9338 -0.3035
 3454TIP3   OH234556   0.093   5.275   8.733 -0.1353  0.2772  0.1025
 3454TIP3    H134557   0.036   5.346   8.762 -1.0407 -0.3613 -0.0814
 3454TIP3    H234558   0.035   5.211   8.692  0.7352 -0.2995 -0.2815
 3455TIP3   OH234559   0.379   2.544   6.598 -0.1048  0.1230 -0.0254
 3455TIP3    H134560   0.300   2.506   6.560 -0.1682  0.1980  0.0311
 3455TIP3    H234561   0.363   2.638   6.598  0.2276  0.1853 -0.5596
 3456TIP3   OH234562   0.056   3.898   6.797 -0.3033 -0.0648  0.0052
 3456TIP3    H134563   0.097   3.909   6.711 -0.0245 -0.0886  0.1381
 3456TIP3    H234564   0.031   3.806   6.800 -0.0135 -0.1410  0.0853
 3457TIP3   OH234565   6.028   1.536   8.133  0.0723 -0.4050 -0.3240
 3457TIP3    H134566   6.025   1.443   8.155  1.5730 -0.3307  0.2983
 3457TIP3    H234567   6.032   1.581   8.218 -0.6657  0.2307 -0.6163
 3458TIP3   OH234568   2.437   7.560   7.997 -0.1762 -0.0434  0.1569
 3458TIP3    H134569   2.374   7.607   8.052 -0.5285  0.1444 -0.3921
 3458TIP3    H234570   2.384   7.522   7.926  0.0074 -1.8677  0.9506
 3459TIP3   OH234571   4.696   5.013   9.287  0.7406 -0.1700  0.2132
 3459TIP3    H134572   4.667   5.071   9.217  1.0531  0.8155  0.8743
 3459TIP3    H234573   4.760   4.955   9.245  0.8521  0.3398 -0.3391
 3460TIP3   OH234574   3.863   4.791   6.802 -0.2119 -0.0716 -0.3568
 3460TIP3    H134575   3.805   4.778   6.728  0.8822 -2.7269 -0.8577
 3460TIP3    H234576   3.809   4.835   6.868 -2.2813 -0.9131 -1.4155
 3461TIP3   OH234577   6.000   2.962   8.047 -0.9220  0.1686 -0.0475
 3461TIP3    H134578   5.983   3.044   7.999  0.1873 -0.4593 -1.5914
 3461TIP3    H234579   6.094   2.948   8.037 -1.0133 -1.0458  0.6348
 3462TIP3   OH234580   3.313   6.575   8.136  0.3459  0.5199 -0.4792
 3462TIP3    H134581   3.395   6.604   8.095  0.6550  0.6043  0.1984
 3462TIP3    H234582   3.262   6.540   8.063  0.3985  1.7724 -1.1475
 3463TIP3   OH234583   4.339   6.601   8.488  0.1352  0.2192 -0.0910
 3463TIP3    H134584   4.367   6.513   8.465  1.1562  0.5135 -0.0558
 3463TIP3    H234585   4.255   6.613   8.444 -0.1089 -0.8317  0.0645
 3464TIP3   OH234586   2.385   6.819   8.685 -0.2020  0.0080  0.9738
 3464TIP3    H134587   2.305   6.798   8.735 -0.8777 -2.6416 -1.0119
 3464TIP3    H234588   2.435   6.737   8.685  3.0317  1.7790  2.7792
 3465TIP3   OH234589   5.177   3.397   7.975 -0.3320 -0.6496  0.2305
 3465TIP3    H134590   5.216   3.337   8.039  1.7144  0.0978 -0.2615
 3465TIP3    H234591   5.096   3.353   7.948 -1.3740 -0.9276  3.3862
 3466TIP3   OH234592   4.931   1.945   7.970  0.4781  0.2180 -0.0161
 3466TIP3    H134593   4.927   1.871   8.030 -1.8958 -1.0766 -1.6216
 3466TIP3    H234594   5.021   1.944   7.937  1.2983 -0.1294  2.0715
 3467TIP3   OH234595   4.957   5.475   7.181 -0.1214 -0.2767  0.3055
 3467TIP3    H134596   5.005   5.398   7.213  0.0200  0.1624  1.1849
 3467TIP3    H234597   4.890   5.439   7.123  1.4623 -0.8994 -1.2337
 3468TIP3   OH234598   3.681   6.117   6.860 -0.0295 -0.6564 -0.6196
 3468TIP3    H134599   3.596   6.109   6.902  0.0425  0.9156 -0.1077
 3468TIP3    H234600   3.662   6.153   6.774  0.0733 -0.8734 -0.7339
 3469TIP3   OH234601   2.787   7.602   6.436 -0.6277 -0.5244 -0.2407
 3469TIP3    H134602   2.739   7.606   6.354 -0.5790 -0.3010 -0.2571
 3469TIP3    H234603   2.720   7.608   6.504 -0.8754 -2.5781 -0.2361
 3470TIP3   OH234604   2.458   0.170   9.042  0.3608  0.5213 -0.2695
 3470TIP3    H134605   2.415   0.092   9.075 -0.0452  0.6051 -0.5950
 3470TIP3    H234606   2.516   0.137   8.973  0.3289  0.4843 -0.2789
 3471TIP3   OH234607   1.363   3.579   8.626 -0.0790  0.0029 -0.5042
 3471TIP3    H134608   1.322   3.665   8.623 -0.4348 -0.1600 -0.3642
 3471TIP3    H234609   1.379   3.563   8.719  0.2446  0.0353 -0.5511
 3472TIP3   OH234610   6.112   0.235   7.004  0.1690 -0.1923  0.0966
 3472TIP3    H134611   6.163   0.185   6.940 -0.3786 -0.3272 -0.2460
 3472TIP3    H234612   6.118   0.184   7.085  0.1601 -0.4728 -0.0781
 3473TIP3   OH234613   0.620   1.771   7.607 -0.1391  0.1418 -0.2633
 3473TIP3    H134614   0.553   1.737   7.666 -0.6768 -0.5578 -1.2349
 3473TIP3    H234615   0.571   1.810   7.535  0.4976  0.6226 -0.4478
 3474TIP3   OH234616   2.132   4.455   8.355  0.0850 -0.0039 -0.4291
 3474TIP3    H134617   2.126   4.374   8.406 -0.9318  0.5784  0.3979
 3474TIP3    H234618   2.099   4.431   8.268  0.1126 -0.5542 -0.2920
 3475TIP3   OH234619   5.598   3.515   8.993 -0.1987 -0.0227  0.3638
 3475TIP3    H134620   5.599   3.546   8.903  0.5214  0.5792  0.5727
 3475TIP3    H234621   5.572   3.591   9.045 -0.9957 -0.4662  0.6392
 3476TIP3   OH234622   1.234   2.171   9.492 -0.1418 -0.2269 -0.5240
 3476TIP3    H134623   1.181   2.127   9.427  0.3278  0.1905 -1.2016
 3476TIP3    H234624   1.305   2.110   9.511  1.2848  0.7354 -2.4769
 3477TIP3   OH234625   2.368   5.939   8.749 -0.1913  0.2189 -0.2195
 3477TIP3    H134626   2.389   5.852   8.715  1.6898  0.3909  0.3598
 3477TIP3    H234627   2.320   5.982   8.678 -0.6833 -1.1050 -0.7110
 3478TIP3   OH234628   0.188   7.214   9.587 -0.1760 -0.9483  0.4075
 3478TIP3    H134629   0.125   7.285   9.603  1.3046  0.9827 -1.6505
 3478TIP3    H234630   0.135   7.141   9.556 -1.5477  0.1483  0.0767
 3479TIP3   OH234631   0.184   3.571   8.423 -0.4207  0.0797  0.3825
 3479TIP3    H134632   0.225   3.634   8.365 -0.4157 -0.6944 -0.4738
 3479TIP3    H234633   0.182   3.489   8.373 -0.5368 -0.5763  1.4129
 3480TIP3   OH234634   1.702   1.013   9.333 -0.1322 -0.4112  0.2211
 3480TIP3    H134635   1.663   1.100   9.326  0.2397 -0.2593 -0.0002
 3480TIP3    H234636   1.655   0.961   9.267 -0.7127 -0.5203  0.7091
 3481TIP3   OH234637   4.352   0.401   7.142 -0.8165 -0.0495  0.1183
 3481TIP3    H134638   4.417   0.471   7.144 -1.6209  0.6905  1.6637
 3481TIP3    H234639   4.382   0.343   7.073  1.4934  0.2508  0.8061
 3482TIP3   OH234640   1.121   3.843   7.970 -0.0624 -0.0773  0.0595
 3482TIP3    H134641   1.042   3.883   8.007  0.3384  0.4418  0.3691
 3482TIP3    H234642   1.131   3.761   8.019 -1.7791 -1.4125 -1.6485
 3483TIP3   OH234643   1.786   0.720   9.581 -0.0002  0.6421  0.1880
 3483TIP3    H134644   1.810   0.628   9.594 -0.0636  0.3344 -1.7017
 3483TIP3    H234645   1.691   0.722   9.595  0.0571  0.5049  0.6143
 3484TIP3   OH234646   4.808   2.017   8.955  0.4839 -0.1007 -0.4057
 3484TIP3    H134647   4.830   2.110   8.964 -0.6099  0.0655  0.8388
 3484TIP3    H234648   4.791   2.006   8.862  1.3307  0.7783 -0.6893
 3485TIP3   OH234649   2.066   4.268   8.539 -0.1086  0.2363  0.8740
 3485TIP3    H134650   2.017   4.308   8.610  0.0689 -0.4565  1.4000
 3485TIP3    H234651   2.025   4.182   8.527 -0.0990  0.3214  0.1780
 3486TIP3   OH234652   1.076   7.209   8.727  0.3278  0.3510  0.1316
 3486TIP3    H134653   1.051   7.121   8.754  2.1175 -0.1909  0.1410
 3486TIP3    H234654   1.056   7.264   8.803 -1.1108  0.0415  0.0060
 3487TIP3   OH234655   5.938   5.411   9.008 -0.6356 -0.3488 -0.2761
 3487TIP3    H134656   5.986   5.443   8.932 -0.0265  3.2068  1.4176
 3487TIP3    H234657   6.007   5.387   9.070 -1.1203 -1.0495 -0.0002
 3488TIP3   OH234658   0.022   4.306   6.995  0.2953  0.5249  0.4096
 3488TIP3    H134659  -0.032   4.235   6.963  1.1351 -0.5299  1.2688
 3488TIP3    H234660  -0.039   4.379   7.006 -0.9877 -0.6380  1.4057
 3489TIP3   OH234661   3.325   4.984   9.367 -0.2260 -0.6356  0.5261
 3489TIP3    H134662   3.282   5.069   9.377  0.6647  0.2014 -1.9201
 3489TIP3    H234663   3.419   5.005   9.365  0.1403 -1.9665  1.9597
 3490TIP3   OH234664   3.681   1.514   8.119  0.1504 -0.5059 -0.9533
 3490TIP3    H134665   3.754   1.558   8.075 -0.9081 -0.4698 -2.7734
 3490TIP3    H234666   3.605   1.569   8.100 -0.7413 -1.7374 -1.0756
 3491TIP3   OH234667   3.945   0.140   7.612 -0.7137 -0.5850  0.3111
 3491TIP3    H134668   4.012   0.207   7.624 -1.2896 -0.0334  0.4766
 3491TIP3    H234669   3.994   0.062   7.584 -0.0451 -0.0966  0.1019
 3492TIP3   OH234670   1.830   2.444   8.331  0.4151  0.2555  0.0240
 3492TIP3    H134671   1.803   2.486   8.413 -1.7548 -1.3108  0.2070
 3492TIP3    H234672   1.818   2.351   8.347  0.5629 -0.1294 -1.8658
 3493TIP3   OH234673   7.251   6.399   8.907  0.0736  0.1762  0.5676
 3493TIP3    H134674   7.222   6.394   8.816 -0.7249 -2.4923  0.9014
 3493TIP3    H234675   7.171   6.411   8.957  0.5840  2.5118  0.9426
 3494TIP3   OH234676   6.693   2.286   7.386 -0.3975  0.4879 -0.0194
 3494TIP3    H134677   6.686   2.357   7.449 -1.0663  1.0785 -0.7315
 3494TIP3    H234678   6.697   2.330   7.301  0.3228 -0.2924 -0.4049
 3495TIP3   OH234679   5.767   5.515   8.499 -0.0029  0.3123  0.1637
 3495TIP3    H134680   5.729   5.509   8.411  0.9601 -0.1832 -0.2323
 3495TIP3    H234681   5.845   5.460   8.496  1.2344  1.9382  0.6962
 3496TIP3   OH234682   0.455   3.191   7.511 -0.4256  0.6843 -0.1337
 3496TIP3    H134683   0.444   3.273   7.558  0.3629  0.4227  0.5333
 3496TIP3    H234684   0.549   3.185   7.495 -0.6607  0.7178 -1.6760
 3497TIP3   OH234685   0.496   1.673   7.823 -0.6025 -0.1048 -0.0978
 3497TIP3    H134686   0.506   1.615   7.899 -1.3685 -0.7632 -0.4756
 3497TIP3    H234687   0.479   1.759   7.860  1.5471  0.1200  0.4916
 3498TIP3   OH234688   5.051   3.158   7.902  0.6263 -0.3649 -1.0371
 3498TIP3    H134689   5.111   3.128   7.970 -0.5340 -0.1504  0.1058
 3498TIP3    H234690   5.000   3.081   7.879  0.6057 -0.2914 -1.2441
 3499TIP3   OH234691   0.134   0.986   7.419 -0.6446  0.8815 -0.3519
 3499TIP3    H134692   0.164   0.940   7.340 -0.5028 -1.3678  0.9136
 3499TIP3    H234693   0.049   1.023   7.394 -0.7938 -0.1397 -1.4515
 3500TIP3   OH234694   6.798   2.294   6.968 -0.1936  0.4782  0.2242
 3500TIP3    H134695   6.811   2.388   6.984 -1.1900  0.9634 -1.5401
 3500TIP3    H234696   6.804   2.285   6.873  1.1031 -1.4747  0.4312
 3501TIP3   OH234697   4.120   4.319   8.303 -0.2532  0.3624  0.3537
 3501TIP3    H134698   4.030   4.331   8.272 -0.8546 -0.0799  1.8456
 3501TIP3    H234699   4.155   4.248   8.248 -1.1643 -0.1710  0.4442
 3502TIP3   OH234700   7.178   3.662   7.445  0.2414 -0.0204  0.0207
 3502TIP3    H134701   7.240   3.734   7.456  0.4457 -0.0100 -1.0357
 3502TIP3    H234702   7.143   3.645   7.532  2.3263 -0.5647  0.7973
 3503TIP3   OH234703   6.090   7.522   7.520 -0.0393  0.3589  0.1397
 3503TIP3    H134704   6.059   7.440   7.481 -0.7494  0.7123 -0.0504
 3503TIP3    H234705   6.038   7.590   7.477  1.7538  1.0831 -1.0370
 3504TIP3   OH234706   0.551   3.932   9.020  0.3741 -0.3129  0.5586
 3504TIP3    H134707   0.484   3.941   9.087 -1.0382  1.7976 -1.0061
 3504TIP3    H234708   0.516   3.867   8.959  0.5958 -0.5221  0.6497
 3505TIP3   OH234709   3.651   1.894   8.819  0.5023  0.3883  0.5452
 3505TIP3    H134710   3.652   1.806   8.779 -1.8900 -0.1665  1.4874
 3505TIP3    H234711   3.653   1.954   8.745 -0.1521 -0.5415 -0.2557
 3506TIP3   OH234712   2.053   4.659   9.613  0.4349 -0.0224 -0.0042
 3506TIP3    H134713   2.071   4.571   9.646 -0.7104  0.4196  1.9524
 3506TIP3    H234714   2.113   4.715   9.662 -0.6143  0.5474  0.6539
 3507TIP3   OH234715   5.616   4.351   8.923 -0.2057 -0.3618 -0.9354
 3507TIP3    H134716   5.572   4.267   8.908  0.1961 -1.0771  1.4621
 3507TIP3    H234717   5.561   4.395   8.988  0.6029  0.4078 -0.7615
 3508TIP3   OH234718   1.656   4.815   8.963  0.5823 -0.0215 -0.6331
 3508TIP3    H134719   1.751   4.828   8.970  0.8062 -0.9805 -1.6767
 3508TIP3    H234720   1.643   4.721   8.972 -0.1663 -0.0172 -1.4793
 3509TIP3   OH234721   5.502   5.377   7.041 -0.0356  0.5758 -0.3374
 3509TIP3    H134722   5.558   5.300   7.049  2.0312  1.8206 -1.8777
 3509TIP3    H234723   5.487   5.405   7.131  0.7305 -0.5184  0.1554
 3510TIP3   OH234724   3.947   4.832   9.194  0.9136  0.1697 -0.1097
 3510TIP3    H134725   3.855   4.834   9.168 -0.2322 -0.5075  3.3575
 3510TIP3    H234726   3.959   4.745   9.233  2.2901  1.0712  1.6474
 3511TIP3   OH234727   0.064   7.558   7.822  0.3649 -0.0049 -0.2499
 3511TIP3    H134728   0.070   7.464   7.804 -1.6855 -0.0410 -1.0971
 3511TIP3    H234729  -0.001   7.564   7.893  1.3315  0.7371  0.6028
 3512TIP3   OH234730   1.187   6.765   9.833  0.3569  0.4356 -0.5555
 3512TIP3    H134731   1.266   6.801   9.872 -0.4651  2.8136 -0.9251
 3512TIP3    H234732   1.151   6.707   9.899  0.8537  1.6433  0.8214
 3513TIP3   OH234733   2.967   4.875   7.986  0.4561 -0.3373  0.3808
 3513TIP3    H134734   2.916   4.861   8.065  1.8415 -1.1962  1.1642
 3513TIP3    H234735   3.018   4.954   8.005 -1.5073  1.3441 -0.9337
 3514TIP3   OH234736   3.512   3.082   8.729  0.4180  0.6797 -0.3201
 3514TIP3    H134737   3.527   3.144   8.658 -1.2919  0.3531 -1.0142
 3514TIP3    H234738   3.473   3.006   8.687  1.6682 -0.5672  0.6368
 3515TIP3   OH234739   7.042   7.477   9.483  0.4756 -0.2197  0.0902
 3515TIP3    H134740   7.001   7.498   9.399  0.9488  2.5409  0.4543
 3515TIP3    H234741   6.998   7.534   9.546  1.1026 -1.2163  1.4682
 3516TIP3   OH234742   1.939   1.916   8.642 -0.4372 -0.0016  0.2130
 3516TIP3    H134743   1.993   1.837   8.643 -0.5012 -0.0365  0.9646
 3516TIP3    H234744   1.866   1.897   8.701 -0.4734  0.5987  0.3684
 3517TIP3   OH234745   0.552   1.049   7.902 -0.1078 -0.1789 -0.0679
 3517TIP3    H134746   0.461   1.022   7.909 -0.4470  0.4288 -1.8774
 3517TIP3    H234747   0.549   1.143   7.886  0.8359 -0.1595 -0.1957
 3518TIP3   OH234748   1.735   4.055   9.131  0.3936 -0.0593 -0.2408
 3518TIP3    H134749   1.709   4.071   9.040  0.5884 -0.3756 -0.3545
 3518TIP3    H234750   1.824   4.019   9.124  0.7970  0.8381  0.1300
 3519TIP3   OH234751   6.976   4.048   8.261  0.4808 -0.5212  0.2542
 3519TIP3    H134752   7.061   4.037   8.220  0.4522  3.0294 -1.0767
 3519TIP3    H234753   6.994   4.046   8.355  2.0925  0.1907 -0.0132
 3520TIP3   OH234754   0.616   4.169   8.358  0.2437  0.1049  0.0233
 3520TIP3    H134755   0.672   4.220   8.418  0.1754  0.9112 -0.5846
 3520TIP3    H234756   0.654   4.184   8.272  0.2911 -0.9880 -0.1547
 3521TIP3   OH234757   1.335   5.648   8.213 -0.1501  0.0457  0.1896
 3521TIP3    H134758   1.419   5.620   8.248 -0.2422  1.2726  1.4396
 3521TIP3    H234759   1.275   5.644   8.287 -0.8968  0.4522 -0.3754
 3522TIP3   OH234760   3.391   5.665   7.844 -0.0659  0.3330  0.0611
 3522TIP3    H134761   3.303   5.682   7.880  0.5168  0.2264  1.6088
 3522TIP3    H234762   3.443   5.641   7.920  1.4265  0.8397 -0.7722
 3523TIP3   OH234763   4.225   1.604   7.642  0.2920  0.5194 -0.0448
 3523TIP3    H134764   4.180   1.674   7.594  1.7634  2.0942  0.7363
 3523TIP3    H234765   4.169   1.588   7.719 -1.8637 -1.7336 -1.8971
 3524TIP3   OH234766   3.331   3.786   7.079 -0.2756 -0.5889 -0.0350
 3524TIP3    H134767   3.342   3.696   7.050 -0.0997 -0.7657  0.5601
 3524TIP3    H234768   3.282   3.829   7.009 -0.4224 -1.1644 -0.2847
 3525TIP3   OH234769   6.666   2.239   8.596 -0.1144 -0.4708 -0.0315
 3525TIP3    H134770   6.626   2.268   8.678 -0.4290 -0.6039 -0.1349
 3525TIP3    H234771   6.760   2.241   8.613 -0.1041  0.9116 -0.1227
 3526TIP3   OH234772   4.682   0.778   8.196  0.0116  0.1328  0.1528
 3526TIP3    H134773   4.629   0.702   8.175  0.4830 -0.3628  0.6932
 3526TIP3    H234774   4.767   0.741   8.221 -0.0292  0.7650  1.3077
 3527TIP3   OH234775   6.058   0.617   7.589 -0.4036 -0.1008 -0.0391
 3527TIP3    H134776   6.007   0.676   7.533 -2.0954  0.6265  2.1437
 3527TIP3    H234777   6.114   0.674   7.640  0.1882 -0.6476 -0.0602
 3528TIP3   OH234778   1.430   2.593   7.388  0.6643  0.1976 -0.2848
 3528TIP3    H134779   1.388   2.512   7.358  2.0363 -0.3933 -0.7369
 3528TIP3    H234780   1.463   2.572   7.475  0.1823  0.5874 -0.0094
 3529TIP3   OH234781   0.427   2.210   8.083 -0.1753 -0.1956  0.5383
 3529TIP3    H134782   0.421   2.129   8.133 -0.5265 -0.6319 -0.1943
 3529TIP3    H234783   0.517   2.213   8.053 -0.6332 -1.3305 -1.0668
 3530TIP3   OH234784   3.144   7.641   7.088 -0.0751 -0.1034 -0.3818
 3530TIP3    H134785   3.071   7.701   7.076 -0.1463 -0.0394  0.3513
 3530TIP3    H234786   3.117   7.561   7.042  0.1384  0.4984 -1.6015
 3531TIP3   OH234787   2.976   6.285   8.976 -0.0249 -0.0669 -0.0155
 3531TIP3    H134788   3.018   6.330   8.903 -1.9034 -0.7112 -1.5814
 3531TIP3    H234789   2.956   6.354   9.040 -1.5968  1.1784 -1.7504
 3532TIP3   OH234790   4.450   0.825   6.677 -0.2290 -0.2220 -0.1980
 3532TIP3    H134791   4.461   0.878   6.598 -0.7894 -0.5198 -0.4847
 3532TIP3    H234792   4.518   0.758   6.670  0.2539  0.2438 -0.0100
 3533TIP3   OH234793   2.667   5.090   8.457 -0.0446  0.4705 -0.3099
 3533TIP3    H134794   2.641   5.037   8.532 -0.1098 -1.0820 -1.3949
 3533TIP3    H234795   2.589   5.096   8.403  0.3894  0.2899 -0.9806
 3534TIP3   OH234796   5.631   4.360   7.948 -0.6847 -0.7120  0.5123
 3534TIP3    H134797   5.582   4.292   7.902 -1.0390 -0.1851  0.1047
 3534TIP3    H234798   5.570   4.432   7.958 -0.5024 -0.6690  1.4953
 3535TIP3   OH234799   0.779   6.565   7.742  0.2124  0.2527 -0.1679
 3535TIP3    H134800   0.856   6.616   7.718 -0.1387  2.3816  2.6562
 3535TIP3    H234801   0.812   6.476   7.754  1.0085 -0.2627 -4.4310
 3536TIP3   OH234802   7.286   4.915   8.825 -0.6812 -0.0994 -0.2261
 3536TIP3    H134803   7.248   4.926   8.737 -2.1221 -0.4104  0.3311
 3536TIP3    H234804   7.211   4.924   8.884  0.0455 -1.2002  0.9000
 3537TIP3   OH234805   3.024   1.497   7.933 -0.1837 -0.0602  0.0752
 3537TIP3    H134806   2.950   1.516   7.876  0.2176  0.0818 -0.4037
 3537TIP3    H234807   3.088   1.453   7.876  0.2408  0.1281  0.4000
 3538TIP3   OH234808   5.732   5.675   9.108 -0.2601 -0.2488 -0.1546
 3538TIP3    H134809   5.820   5.637   9.107  0.0253  0.3818  0.4524
 3538TIP3    H234810   5.677   5.607   9.070  0.1925 -1.4166  1.1634
 3539TIP3   OH234811   3.326   1.908   8.026 -0.4282  0.0844  0.3238
 3539TIP3    H134812   3.419   1.922   8.009 -0.1868 -1.4242  0.2479
 3539TIP3    H234813   3.288   1.894   7.939 -1.0160  2.0224  0.2092
 3540TIP3   OH234814   1.871   1.839   7.724 -0.5052  0.6862  0.0528
 3540TIP3    H134815   1.940   1.782   7.692 -0.8722 -1.5878  2.9629
 3540TIP3    H234816   1.912   1.893   7.791 -0.5624  2.7439 -1.4820
 3541TIP3   OH234817   3.282   2.381   8.277 -0.1161  0.2189 -0.0584
 3541TIP3    H134818   3.371   2.354   8.301 -0.4966 -2.5289 -1.3106
 3541TIP3    H234819   3.226   2.337   8.341 -0.6599  0.4825 -0.3489
 3542TIP3   OH234820   7.500   3.874   7.904  0.0008  0.3460  0.9480
 3542TIP3    H134821   7.454   3.889   7.986  0.9903  0.8489  1.4267
 3542TIP3    H234822   7.592   3.891   7.924  0.5337 -1.4229  0.2276
 3543TIP3   OH234823   3.134   1.991   8.179  0.2984  0.3860  0.4060
 3543TIP3    H134824   3.051   1.992   8.131 -0.1485  0.2528  1.1594
 3543TIP3    H234825   3.188   1.928   8.132  0.6181  1.7473 -1.1324
 3544TIP3   OH234826   6.429   2.415   9.129 -0.3192  0.0541 -0.3045
 3544TIP3    H134827   6.385   2.497   9.152 -2.5156 -1.5549  1.7254
 3544TIP3    H234828   6.363   2.365   9.080  0.3477 -1.1714 -0.0061
 3545TIP3   OH234829   2.636   3.939   8.675 -0.4433  0.0114 -0.6651
 3545TIP3    H134830   2.589   3.856   8.669 -0.3087 -0.2266  0.8988
 3545TIP3    H234831   2.687   3.931   8.756  1.8187  0.5018 -1.9473
 3546TIP3   OH234832   1.502   3.188   7.243 -0.2211 -0.3267  0.4632
 3546TIP3    H134833   1.449   3.267   7.239  0.5921  0.1919 -0.8140
 3546TIP3    H234834   1.446   3.120   7.204  0.2982  0.4057 -1.7104
 3547TIP3   OH234835   0.566   4.780   7.224 -0.0789 -0.3873  0.0052
 3547TIP3    H134836   0.530   4.789   7.312 -0.5800 -0.5078 -0.1830
 3547TIP3    H234837   0.575   4.869   7.191 -1.9194 -0.3943 -0.6206
 3548TIP3   OH234838   2.910   2.219   9.164 -0.5141 -0.4928  0.9971
 3548TIP3    H134839   2.880   2.268   9.240  1.1009 -0.1808  1.4847
 3548TIP3    H234840   2.869   2.133   9.173 -1.6266  0.0641  1.3255
 3549TIP3   OH234841   0.332   3.692   8.222 -0.7769 -0.3176 -0.4274
 3549TIP3    H134842   0.368   3.760   8.279 -2.8190 -0.4699  1.1466
 3549TIP3    H234843   0.397   3.622   8.224  0.8511  1.0665 -1.2108
 3550TIP3   OH234844   4.526   2.574   9.500 -0.1041 -0.5600  0.6096
 3550TIP3    H134845   4.572   2.653   9.527 -1.6606  0.3678  0.7079
 3550TIP3    H234846   4.446   2.607   9.458 -0.4983 -2.0804  0.1047
 3551TIP3   OH234847   1.209   6.553   8.152 -0.1502 -0.4926 -0.3332
 3551TIP3    H134848   1.142   6.515   8.209  0.8083 -0.2370  1.0121
 3551TIP3    H234849   1.255   6.617   8.208  0.7250 -0.1239 -1.4384
 3552TIP3   OH234850   4.505   3.101   7.936 -0.3055  0.6446  0.1678
 3552TIP3    H134851   4.484   3.035   7.871 -0.9069  0.2726  0.7352
 3552TIP3    H234852   4.436   3.094   8.002  0.0807  1.2690  0.6556
 3553TIP3   OH234853   6.676   4.560   8.763 -0.3551  0.0187  0.4208
 3553TIP3    H134854   6.616   4.607   8.821 -2.0460 -1.9104  0.3486
 3553TIP3    H234855   6.725   4.502   8.821 -0.5152 -0.3682  0.1726
 3554TIP3   OH234856   3.248   2.092   8.813  0.1258  0.3762 -0.4566
 3554TIP3    H134857   3.329   2.052   8.780 -0.5871 -0.4096 -1.3191
 3554TIP3    H234858   3.278   2.162   8.871  1.4368 -0.6158  0.1457
 3555TIP3   OH234859   3.994   1.189   6.716 -0.1228 -0.1148  0.2653
 3555TIP3    H134860   3.969   1.265   6.663 -1.0178  0.6871  1.7794
 3555TIP3    H234861   4.089   1.199   6.728 -0.3449  1.2160  1.1052
 3556TIP3   OH234862   0.671   1.317   7.932  0.5889  0.4552  0.3479
 3556TIP3    H134863   0.643   1.368   8.008  1.3849  0.1440  0.8596
 3556TIP3    H234864   0.767   1.315   7.938  0.6002 -0.6467  0.0350
 3557TIP3   OH234865   6.104   4.264   7.015  0.0093  0.4206 -0.7268
 3557TIP3    H134866   6.025   4.302   7.054  0.1806  0.4781 -0.4320
 3557TIP3    H234867   6.078   4.175   6.991 -0.3084  0.6250 -1.1455
 3558TIP3   OH234868   0.463   0.951   8.572 -0.1195 -0.5726 -0.0819
 3558TIP3    H134869   0.377   0.910   8.568 -1.1245  1.5556 -2.0967
 3558TIP3    H234870   0.446   1.044   8.589  1.7630 -0.0826 -0.5824
 3559TIP3   OH234871   1.800   2.797   8.769  0.2335  0.4352  0.9180
 3559TIP3    H134872   1.721   2.786   8.715  0.4786  1.5031  0.2989
 3559TIP3    H234873   1.771   2.778   8.858  0.0925 -2.5710  0.3330
 3560TIP3   OH234874   0.918   3.161   7.698 -0.5386 -1.0162  0.8563
 3560TIP3    H134875   0.984   3.225   7.724 -1.4213 -0.5655  2.0798
 3560TIP3    H234876   0.947   3.079   7.739 -0.1163 -1.1024  0.3953
 3561TIP3   OH234877   7.566   1.673   7.793 -0.0525  0.3052 -0.1725
 3561TIP3    H134878   7.531   1.762   7.790  0.6610  0.6042  0.1394
 3561TIP3    H234879   7.543   1.641   7.880  0.0269  0.3190 -0.1469
 3562TIP3   OH234880   4.807   2.537   8.352 -0.4720  0.6895  0.2507
 3562TIP3    H134881   4.858   2.596   8.297  1.1716 -0.3655  0.5922
 3562TIP3    H234882   4.814   2.574   8.440  1.2134 -0.3500  0.6075
 3563TIP3   OH234883   2.318   4.338   8.639 -0.4324  0.1983  0.1915
 3563TIP3    H134884   2.226   4.328   8.615 -0.4547 -1.1447  0.7893
 3563TIP3    H234885   2.352   4.249   8.644  1.4421  0.6926 -1.9955
 3564TIP3   OH234886   1.441   5.663   7.952  0.0641  0.1153 -0.2598
 3564TIP3    H134887   1.391   5.663   8.034 -0.1775 -2.1829 -0.3274
 3564TIP3    H234888   1.520   5.613   7.971  0.5246  0.4724 -1.1511
 3565TIP3   OH234889   4.987   2.935   8.400  0.0084  0.2206  0.9504
 3565TIP3    H134890   4.930   2.970   8.468  1.6953  2.6018  1.2605
 3565TIP3    H234891   5.072   2.924   8.442  1.2259  2.1945 -0.7846
 3566TIP3   OH234892   6.966   2.245   8.214 -0.2293 -0.4322  0.1456
 3566TIP3    H134893   6.949   2.182   8.284 -2.5659  2.0186  2.0125
 3566TIP3    H234894   7.060   2.241   8.201  0.0026 -2.5937  1.8143
 3567TIP3   OH234895   2.527   1.627   7.356 -0.3898  0.2604 -0.0124
 3567TIP3    H134896   2.513   1.674   7.439 -1.8256 -0.6855  0.3106
 3567TIP3    H234897   2.620   1.605   7.358  0.0068  1.7812  0.5036
 3568TIP3   OH234898   4.571   4.622   8.912 -0.3084  0.4455 -0.4859
 3568TIP3    H134899   4.576   4.654   9.002  0.8813 -1.2464  0.1059
 3568TIP3    H234900   4.484   4.582   8.906 -0.5827  0.9818 -0.2686
 3569TIP3   OH234901   1.227   0.510   8.252  0.3099  0.7008  0.1998
 3569TIP3    H134902   1.243   0.594   8.210 -0.3394 -0.0126 -1.5872
 3569TIP3    H234903   1.308   0.460   8.239  0.0589  0.4297 -0.3564
 3570TIP3   OH234904   2.668   2.082   9.451  0.2459 -0.6210 -0.0209
 3570TIP3    H134905   2.671   2.038   9.536  0.2035 -1.8733 -0.6468
 3570TIP3    H234906   2.719   2.026   9.393 -1.8331 -1.1607 -1.4383
 3571TIP3   OH234907   1.631   1.707   9.732 -0.1949  0.3249  0.2929
 3571TIP3    H134908   1.619   1.616   9.705 -0.1004 -0.0189  1.3668
 3571TIP3    H234909   1.604   1.709   9.823 -1.3354  1.6413 -0.0447
 3572TIP3   OH234910   3.222   6.213   8.188  0.6004 -0.2225 -0.3249
 3572TIP3    H134911   3.289   6.206   8.256 -0.4890 -2.0901  0.6160
 3572TIP3    H234912   3.213   6.125   8.153 -0.4701  0.2575 -1.3341
 3573TIP3   OH234913   4.260   6.989   7.102 -0.2334  0.2740 -0.3180
 3573TIP3    H134914   4.202   6.916   7.126 -0.7781  0.5132 -0.8540
 3573TIP3    H234915   4.261   7.046   7.179 -0.4617  0.0999 -0.1851
 3574TIP3   OH234916   5.887   5.709   8.837  0.3983 -0.3373  0.1593
 3574TIP3    H134917   5.928   5.724   8.752 -0.2010  0.7573  0.0500
 3574TIP3    H234918   5.795   5.694   8.817 -0.0462  1.4215  0.6925
 3575TIP3   OH234919   2.170   4.808   6.839 -0.1344 -0.3570 -0.4097
 3575TIP3    H134920   2.255   4.792   6.881 -0.9783 -1.2489  1.0320
 3575TIP3    H234921   2.190   4.811   6.745  1.8775  2.0708 -0.0020
 3576TIP3   OH234922   4.939   3.373   7.222 -0.4470 -0.1847  0.4979
 3576TIP3    H134923   4.855   3.380   7.176 -1.5371 -2.3855  2.0164
 3576TIP3    H234924   4.982   3.297   7.183 -0.0078 -0.2144  1.0258
 3577TIP3   OH234925   3.326   2.849   8.168  0.2458  0.5570 -0.1986
 3577TIP3    H134926   3.241   2.848   8.212 -1.3357 -1.2104 -2.9753
 3577TIP3    H234927   3.374   2.777   8.207  0.3897  1.3638  1.1688
 3578TIP3   OH234928   5.569   5.652   8.091  0.3444 -0.0281 -0.4393
 3578TIP3    H134929   5.581   5.728   8.147 -2.0000  0.6978 -0.8062
 3578TIP3    H234930   5.627   5.669   8.016  0.2770  1.1180 -0.2544
 3579TIP3   OH234931   6.675   0.895   7.957 -0.3204  0.6254  0.6393
 3579TIP3    H134932   6.629   0.942   8.027 -0.3365 -0.9723  1.7563
 3579TIP3    H234933   6.711   0.818   8.000  0.0596 -0.1814 -1.0465
 3580TIP3   OH234934   0.271   4.684   9.097 -0.2311  0.4717 -0.3872
 3580TIP3    H134935   0.195   4.739   9.078 -0.7710 -0.2961 -0.5163
 3580TIP3    H234936   0.234   4.597   9.113  0.4880  0.4043  1.0792
 3581TIP3   OH234937   6.082   5.664   8.362 -0.5782  0.6162  0.0405
 3581TIP3    H134938   6.136   5.590   8.390  1.2437  1.4459 -1.0869
 3581TIP3    H234939   6.026   5.628   8.294 -2.4274 -0.5413  2.0378
 3582TIP3   OH234940   0.608   3.187   7.856  0.5459 -0.0940  0.4026
 3582TIP3    H134941   0.550   3.230   7.919  1.1028 -0.4920  1.2102
 3582TIP3    H234942   0.667   3.134   7.910 -0.5900 -2.5144 -0.5444
 3583TIP3   OH234943   0.857   6.873   7.142 -0.2032 -0.2758  0.0785
 3583TIP3    H134944   0.926   6.930   7.110  1.6095 -2.2171  0.3063
 3583TIP3    H234945   0.869   6.791   7.094 -0.2360 -1.7517  2.4188
 3584TIP3   OH234946   2.707   7.411   7.347 -0.3317 -0.3580  0.7273
 3584TIP3    H134947   2.754   7.390   7.266 -0.8708  0.2759  0.2348
 3584TIP3    H234948   2.695   7.506   7.344  0.2570 -0.2227  1.9094
 3585TIP3   OH234949   0.272   1.116   9.735  0.2936 -0.4382 -0.5720
 3585TIP3    H134950   0.235   1.094   9.650  1.7547 -0.2979 -1.2619
 3585TIP3    H234951   0.298   1.208   9.727  0.9526 -0.5862 -0.1531
 3586TIP3   OH234952   1.573   4.211   6.698 -0.3888 -0.1115  0.5985
 3586TIP3    H134953   1.637   4.270   6.658  0.8874 -2.0829 -0.4163
 3586TIP3    H234954   1.516   4.185   6.626  2.2148 -4.0617 -0.3623
 3587TIP3   OH234955   6.176   5.867   8.055 -0.2323 -0.5028 -0.0160
 3587TIP3    H134956   6.146   5.826   7.974  1.0956 -0.5170 -0.5312
 3587TIP3    H234957   6.226   5.943   8.026 -0.3471 -0.0935  0.8319
 3588TIP3   OH234958   0.580   4.330   7.956 -0.5169 -0.4128 -0.5362
 3588TIP3    H134959   0.656   4.368   8.000 -0.4056 -1.2248  0.0105
 3588TIP3    H234960   0.515   4.320   8.025 -0.7532 -0.6460 -0.7890
 3589TIP3   OH234961   1.938   5.279   9.230 -0.4355  0.2509 -0.3548
 3589TIP3    H134962   1.914   5.359   9.184 -0.6613  0.2543 -0.2302
 3589TIP3    H234963   2.030   5.265   9.207 -0.0512  1.1670  0.5264
 3590TIP3   OH234964   0.949   1.340   7.921  0.0232  0.3139  0.3342
 3590TIP3    H134965   0.967   1.363   7.831 -0.3000 -1.9035 -0.3684
 3590TIP3    H234966   1.002   1.261   7.937 -0.4610  0.2517  1.8384
 3591TIP3   OH234967   0.508   2.777   6.954 -0.0635  0.0423 -0.6598
 3591TIP3    H134968   0.466   2.812   6.876 -0.4044  1.8029  0.2699
 3591TIP3    H234969   0.565   2.708   6.921 -1.9510 -0.8774 -2.1973
 3592TIP3   OH234970   3.458   1.293   7.678  0.1985 -0.1428 -0.1866
 3592TIP3    H134971   3.446   1.221   7.741 -0.0112 -1.6303 -1.8459
 3592TIP3    H234972   3.551   1.316   7.687 -0.2655  1.1287  2.0954
 3593TIP3   OH234973   6.368   6.824   7.754 -0.4759  0.6238 -0.1700
 3593TIP3    H134974   6.387   6.820   7.848  0.4732  0.6195 -0.3554
 3593TIP3    H234975   6.374   6.917   7.732 -3.4506  1.0189  0.3005
 3594TIP3   OH234976   2.318   1.416   6.484 -0.7669 -0.2724 -0.4702
 3594TIP3    H134977   2.227   1.445   6.481  0.0374  2.5857 -0.8181
 3594TIP3    H234978   2.353   1.457   6.563  0.8551  1.0680 -1.8038
 3595TIP3   OH234979   5.859   4.474   7.906 -0.4040  0.0262  0.7711
 3595TIP3    H134980   5.784   4.420   7.881 -0.0076  1.0880 -3.5867
 3595TIP3    H234981   5.935   4.420   7.885  0.0728  0.0141  2.4381
 3596TIP3   OH234982   3.847   4.157   7.795 -0.2399  0.3522 -0.1464
 3596TIP3    H134983   3.859   4.233   7.739  0.4384  0.6359  0.3750
 3596TIP3    H234984   3.922   4.100   7.776  0.1988  0.6184  0.7216
 3597TIP3   OH234985   7.119   1.695   8.798 -0.1143  0.7412  0.4762
 3597TIP3    H134986   7.052   1.739   8.745  0.4738 -0.4423 -1.3443
 3597TIP3    H234987   7.202   1.721   8.758  0.4856  1.2634  1.9860
 3598TIP3   OH234988   0.774   5.031   7.330 -1.3168 -0.0009  0.2367
 3598TIP3    H134989   0.683   5.025   7.299 -1.3726 -0.9000  0.5570
 3598TIP3    H234990   0.765   5.055   7.422 -1.2165  0.3087  0.1656
 3599TIP3   OH234991   4.734   1.065   8.386  0.5707 -0.2357 -0.7407
 3599TIP3    H134992   4.727   1.126   8.459  1.3532 -2.5555  1.4036
 3599TIP3    H234993   4.823   1.077   8.353  1.4673 -1.5248  1.0216
 3600TIP3   OH234994   5.834   3.741   8.078 -0.6823  1.0324 -0.0597
 3600TIP3    H134995   5.751   3.702   8.050  0.2860 -0.2120 -1.3257
 3600TIP3    H234996   5.809   3.804   8.146 -2.4785 -0.5168  0.7935
 3601TIP3   OH234997   5.123   3.220   8.552 -0.9069  0.7888  0.2267
 3601TIP3    H134998   5.178   3.280   8.501  0.2015 -0.7948 -0.5232
 3601TIP3    H234999   5.062   3.278   8.599  0.1950  2.4949 -0.3352
 3602TIP3   OH235000   0.123   0.576   6.706 -0.2247  0.7607  0.0667
 3602TIP3    H135001   0.077   0.594   6.624  1.1441 -0.2777 -0.9735
 3602TIP3    H235002   0.124   0.480   6.713  1.1969  0.7756  0.3785
 3603TIP3   OH235003   5.349   2.620   9.025 -0.2423 -0.2826 -0.0510
 3603TIP3    H135004   5.395   2.562   9.085  0.2989 -1.3024 -1.3834
 3603TIP3    H235005   5.283   2.564   8.984 -1.9873  0.8877  1.0161
 3604TIP3   OH235006   7.510   2.577   9.054  0.4769  0.1403  0.0410
 3604TIP3    H135007   7.492   2.524   9.131  2.6109  1.0115  1.2180
 3604TIP3    H235008   7.604   2.569   9.040  0.1020 -0.3433 -2.8029
 3605TIP3   OH235009   3.563   0.620   7.638  0.2070 -0.2285  0.5167
 3605TIP3    H135010   3.637   0.570   7.672  0.3129 -0.0673  0.5229
 3605TIP3    H235011   3.595   0.654   7.554 -0.6729 -2.2118 -0.7171
 3606TIP3   OH235012   3.921   4.547   6.941  0.3152  0.4060  0.4274
 3606TIP3    H135013   3.866   4.579   7.013  2.7352  1.2894  2.0274
 3606TIP3    H235014   3.942   4.626   6.891  2.4738  0.6637  1.6152
 3607TIP3   OH235015   3.407   2.562   8.658  0.1251  0.8920  0.4036
 3607TIP3    H135016   3.502   2.554   8.667  0.1394  0.8686  0.2333
 3607TIP3    H235017   3.377   2.472   8.642 -0.0483  0.7202  1.5587
 3608TIP3   OH235018   1.216   3.313   9.009  0.5656  0.0736 -0.4970
 3608TIP3    H135019   1.225   3.399   8.968  0.6451  0.0889 -0.4477
 3608TIP3    H235020   1.133   3.279   8.975  0.6666  0.0553 -0.7275
 3609TIP3   OH235021   5.340   7.289   8.524 -0.4862 -0.3348  0.1289
 3609TIP3    H135022   5.355   7.337   8.442 -1.7591  0.5743  0.3910
 3609TIP3    H235023   5.279   7.219   8.500 -0.8377 -0.0853  0.2739
 3610TIP3   OH235024   4.447   5.938   8.650 -0.3274  0.1194 -0.2447
 3610TIP3    H135025   4.541   5.944   8.635 -0.1166 -2.6793 -0.6756
 3610TIP3    H235026   4.439   5.916   8.743 -0.4489 -0.7146 -0.4409
 3611TIP3   OH235027   7.428   7.242   7.525  0.2570 -0.1457  0.2057
 3611TIP3    H135028   7.485   7.261   7.451  1.5952  1.9823  1.6799
 3611TIP3    H235029   7.388   7.326   7.547  2.0596  0.0295  3.5355
 3612TIP3   OH235030   3.771   6.295   8.754 -0.2882  0.0071 -0.1905
 3612TIP3    H135031   3.836   6.226   8.740 -1.1333 -0.9418  0.4799
 3612TIP3    H235032   3.701   6.275   8.692 -0.2130  0.7021 -0.5118
 3613TIP3   OH235033   3.083   1.274   9.309 -0.4056 -0.1120 -0.5406
 3613TIP3    H135034   3.042   1.230   9.384 -0.8257 -0.6701 -1.0849
 3613TIP3    H235035   3.054   1.365   9.315 -0.1172 -0.0652  0.1922
 3614TIP3   OH235036   1.550   4.458   7.854  0.1091 -0.1904  0.0564
 3614TIP3    H135037   1.618   4.506   7.807 -0.1874  1.6518  1.3883
 3614TIP3    H235038   1.584   4.368   7.859  1.4705  0.2176 -1.1005
 3615TIP3   OH235039   5.116   3.393   8.923 -0.1457  0.4247  0.7755
 3615TIP3    H135040   5.037   3.411   8.973 -0.1256  1.2155  0.5391
 3615TIP3    H235041   5.156   3.318   8.967 -0.8163  0.2710  1.1311
 3616TIP3   OH235042   4.733   6.746   8.559  0.4050  0.2337 -0.0287
 3616TIP3    H135043   4.681   6.665   8.559  0.0393  0.4185  1.9880
 3616TIP3    H235044   4.784   6.741   8.478 -2.6569  0.0076 -2.1448
 3617TIP3   OH235045   3.132   6.913   7.470 -0.0485 -0.0001  0.1865
 3617TIP3    H135046   3.085   6.852   7.527  0.0408  0.0273  0.2892
 3617TIP3    H235047   3.211   6.936   7.519 -0.2093  0.4000  0.2624
 3618TIP3   OH235048   4.634   6.906   7.763  0.4670  0.1948  0.5178
 3618TIP3    H135049   4.725   6.915   7.737  0.1037  0.2305 -0.8133
 3618TIP3    H235050   4.631   6.825   7.813  1.3034  0.4388  0.9805
 3619TIP3   OH235051   6.226   7.002   7.150 -0.0997 -0.9216  0.0210
 3619TIP3    H135052   6.296   7.044   7.099 -1.6522  1.3348 -0.3790
 3619TIP3    H235053   6.180   6.947   7.086 -1.3781  1.0658 -0.8557
 3620TIP3   OH235054   2.199   6.538   8.177 -0.0869 -0.3192  0.1275
 3620TIP3    H135055   2.206   6.452   8.136  0.6774 -1.0980  1.8112
 3620TIP3    H235056   2.246   6.597   8.118  1.3184 -1.4711  0.0517
 3621TIP3   OH235057   3.334   7.212   9.339  0.3699  0.1539  0.3675
 3621TIP3    H135058   3.341   7.118   9.353 -0.7123  0.1300  0.8719
 3621TIP3    H235059   3.298   7.246   9.421  0.4365  0.9643  0.0722
 3622TIP3   OH235060   0.419   4.540   7.650 -0.2552 -0.1847 -0.1554
 3622TIP3    H135061   0.500   4.489   7.652 -0.4310 -0.4456  0.2541
 3622TIP3    H235062   0.405   4.567   7.741 -0.8472 -0.4829 -0.1565
 3623TIP3   OH235063   2.486   0.257   8.282  0.3304 -0.1663  0.1807
 3623TIP3    H135064   2.512   0.165   8.270 -0.4889 -0.3764 -0.0372
 3623TIP3    H235065   2.405   0.252   8.332  1.0537  0.5097  1.4610
 3624TIP3   OH235066   3.588   5.442   8.971  0.0527 -0.5246 -0.7804
 3624TIP3    H135067   3.511   5.494   8.947  0.2511 -0.2478 -0.8196
 3624TIP3    H235068   3.557   5.387   9.043  0.1193  0.4027 -0.0088
 3625TIP3   OH235069   7.223   5.162   7.664 -0.6629 -0.2702 -0.2356
 3625TIP3    H135070   7.172   5.223   7.610  0.6460  0.2247 -0.9505
 3625TIP3    H235071   7.309   5.204   7.673  0.4094 -2.1880 -1.0917
 3626TIP3   OH235072   0.440   6.212   7.127  0.3600 -0.0048  0.1508
 3626TIP3    H135073   0.521   6.180   7.087  1.9507  2.2101  1.3248
 3626TIP3    H235074   0.434   6.303   7.097 -0.8517  0.3226  1.3123
 3627TIP3   OH235075   1.265   1.605   7.377  0.8029 -0.2766 -0.2025
 3627TIP3    H135076   1.180   1.562   7.371  1.4427 -1.3817 -1.9619
 3627TIP3    H235077   1.326   1.546   7.333  2.0392  1.6036 -1.1815
 3628TIP3   OH235078   2.304   4.308   6.976 -0.3257  0.0024 -0.0645
 3628TIP3    H135079   2.365   4.311   6.902 -0.0140  0.3759  0.2082
 3628TIP3    H235080   2.235   4.247   6.947 -0.1777  0.1003 -0.6372
 3629TIP3   OH235081   4.222   7.341   7.522 -0.6212 -0.1189  0.4360
 3629TIP3    H135082   4.155   7.358   7.588 -1.6589  3.0180 -1.2368
 3629TIP3    H235083   4.305   7.350   7.568 -1.3188  0.0013  1.7108
 3630TIP3   OH235084   5.379   1.918   7.683  0.2311 -0.3188  0.1448
 3630TIP3    H135085   5.436   1.844   7.703  0.2146 -0.0034  1.4355
 3630TIP3    H235086   5.348   1.901   7.594  3.3702  0.1688 -1.1814
 3631TIP3   OH235087   2.500   2.763   8.851  0.0519 -0.1751 -0.0942
 3631TIP3    H135088   2.415   2.798   8.878  0.0425 -0.0629 -0.2675
 3631TIP3    H235089   2.564   2.823   8.889  0.0439 -0.1043 -0.1912
 3632TIP3   OH235090   1.708   3.300   8.290 -0.8986 -0.2396  0.0851
 3632TIP3    H135091   1.734   3.220   8.245  0.2948 -0.1659  0.6059
 3632TIP3    H235092   1.623   3.279   8.330 -1.3294 -0.7291 -1.0435
 3633TIP3   OH235093   1.398   2.254   6.763  0.3380 -0.0785  0.2170
 3633TIP3    H135094   1.324   2.308   6.792 -0.0141 -0.9299  0.9328
 3633TIP3    H235095   1.396   2.178   6.821  1.9372  0.0076  0.4254
 3634TIP3   OH235096   7.094   1.128   8.657  0.6834  0.1572 -0.1863
 3634TIP3    H135097   7.005   1.095   8.667  1.0105 -1.3888 -1.8238
 3634TIP3    H235098   7.087   1.222   8.676 -1.3244  0.1203 -0.5042
 3635TIP3   OH235099   0.472   4.212   7.196 -0.4006  0.0546 -0.0401
 3635TIP3    H135100   0.469   4.175   7.284 -0.3001  0.8977  0.3264
 3635TIP3    H235101   0.484   4.306   7.210  1.9086 -0.0408 -0.9697
 3636TIP3   OH235102   1.877   0.987   9.527 -0.6898 -0.4661  0.0350
 3636TIP3    H135103   1.815   0.997   9.455 -1.7352 -0.1229  0.9516
 3636TIP3    H235104   1.863   0.898   9.559 -0.2840 -0.5915 -0.1301
 3637TIP3   OH235105   3.541   7.295   7.139 -0.1350 -0.0997 -0.6558
 3637TIP3    H135106   3.461   7.342   7.164 -1.5304 -1.8939 -1.4857
 3637TIP3    H235107   3.565   7.333   7.054  0.7417  1.3809  0.2054
 3638TIP3   OH235108   2.602   7.161   7.129  0.4030  0.3657  0.3716
 3638TIP3    H135109   2.635   7.089   7.184 -0.1303 -0.5937 -0.5257
 3638TIP3    H235110   2.664   7.166   7.057  0.2304  0.5473  0.2363
 3639TIP3   OH235111   6.858   7.445   8.903  0.3079 -0.3553  0.0414
 3639TIP3    H135112   6.806   7.487   8.834 -1.2038 -0.3800  1.1201
 3639TIP3    H235113   6.817   7.360   8.916  1.3334 -0.8468  0.1422
 3640TIP3   OH235114   0.124   2.979   7.708 -0.8012 -0.1690 -0.4765
 3640TIP3    H135115   0.131   2.957   7.801  1.7112  0.0980 -0.5486
 3640TIP3    H235116   0.124   3.074   7.705  1.0326 -0.1413 -0.7925
 3641TIP3   OH235117   5.512   6.101   7.705 -0.5560  0.2372 -0.1165
 3641TIP3    H135118   5.434   6.110   7.651 -0.1374  2.5855 -0.4498
 3641TIP3    H235119   5.582   6.082   7.643 -0.5989 -0.2968 -0.0038
 3642TIP3   OH235120   5.509   5.892   6.596 -0.0563 -0.7257 -0.0940
 3642TIP3    H135121   5.591   5.922   6.555 -0.6864  3.7572  1.3570
 3642TIP3    H235122   5.440   5.931   6.542 -1.0715 -0.5424  1.2869
 3643TIP3   OH235123   3.767   6.795   8.767  0.7406 -0.3301 -0.0335
 3643TIP3    H135124   3.860   6.802   8.744  0.8793  1.6752  0.9309
 3643TIP3    H235125   3.734   6.724   8.712  2.8858 -1.2802 -0.2147
 3644TIP3   OH235126   7.092   3.620   7.699 -0.0201 -0.1475 -0.2790
 3644TIP3    H135127   7.139   3.631   7.781 -2.3188  0.6579  1.0085
 3644TIP3    H235128   7.046   3.537   7.709 -2.2230  1.0798  0.3273
 3645TIP3   OH235129   2.671   5.944   8.901  0.2854  0.3005 -0.5374
 3645TIP3    H135130   2.589   5.898   8.916  0.2343  0.0870 -1.3923
 3645TIP3    H235131   2.646   6.034   8.881  0.3903  0.7509  1.2204
 3646TIP3   OH235132   1.085   4.801   9.398  0.1730 -0.1697  0.5539
 3646TIP3    H135133   1.165   4.830   9.440 -0.0777  0.1566  0.8119
 3646TIP3    H235134   1.068   4.865   9.329 -0.3781  0.3158  1.1216
 3647TIP3   OH235135   0.109   5.748   8.951  0.8499  0.5555 -0.5852
 3647TIP3    H135136   0.107   5.821   8.890  0.1135  1.9286  1.0154
 3647TIP3    H235137   0.130   5.787   9.036  2.1060 -1.3249  0.0441
 3648TIP3   OH235138   7.508   6.631   8.729  0.3602  0.7116 -0.0695
 3648TIP3    H135139   7.526   6.595   8.643 -1.0925 -0.0986 -0.0665
 3648TIP3    H235140   7.451   6.707   8.712 -0.8041 -0.0781  0.2137
 3649TIP3   OH235141   1.789   3.118   7.285  0.2632 -0.0207 -0.3027
 3649TIP3    H135142   1.781   3.199   7.336 -1.0909 -1.1940  1.5041
 3649TIP3    H235143   1.701   3.102   7.253  0.6000 -0.6023 -0.9530
 3650TIP3   OH235144   5.141   1.919   8.649  0.1926  0.5550 -0.5598
 3650TIP3    H135145   5.130   1.984   8.718 -2.1336 -0.5855  0.2527
 3650TIP3    H235146   5.054   1.910   8.610  0.2186 -2.5213 -0.1678
 3651TIP3   OH235147   6.175   4.150   7.513  0.3502 -0.5936  0.4756
 3651TIP3    H135148   6.204   4.069   7.555  1.2712 -0.2886  0.4514
 3651TIP3    H235149   6.175   4.129   7.419  0.7104 -0.5317  0.4606
 3652TIP3   OH235150   4.620   2.794   8.460 -0.3681 -0.5917  0.1212
 3652TIP3    H135151   4.533   2.766   8.489  0.8488 -2.3482  2.4547
 3652TIP3    H235152   4.680   2.732   8.501  2.2172  2.2303  1.0297
 3653TIP3   OH235153   1.351   5.265   8.119 -0.4235 -0.3030  0.5769
 3653TIP3    H135154   1.420   5.331   8.125 -0.2287 -0.5861  1.8283
 3653TIP3    H235155   1.289   5.289   8.188  0.2200 -2.0382  1.8476
 3654TIP3   OH235156   7.238   4.377   7.464 -0.5430 -0.0138  0.3170
 3654TIP3    H135157   7.212   4.304   7.407 -0.1754 -0.3552  0.5717
 3654TIP3    H235158   7.310   4.419   7.417 -1.9202  1.3112 -0.6767
 3655TIP3   OH235159   5.819   2.228   7.879  0.3734  0.6158  0.2833
 3655TIP3    H135160   5.753   2.247   7.814 -0.0121 -0.8749  0.2017
 3655TIP3    H235161   5.903   2.239   7.833  0.1091 -0.3766 -0.4780
 3656TIP3   OH235162   2.570   5.552   7.031 -0.1569  0.0950 -0.1354
 3656TIP3    H135163   2.491   5.534   6.980  0.3970  1.3865 -1.5244
 3656TIP3    H235164   2.550   5.634   7.077 -0.7422 -1.1745  2.0104
 3657TIP3   OH235165   5.139   7.181   7.698 -0.2927  0.0729  0.0013
 3657TIP3    H135166   5.131   7.172   7.793 -2.5669  1.5510  0.0098
 3657TIP3    H235167   5.142   7.091   7.666  2.0846 -0.4819  1.5108
 3658TIP3   OH235168   5.052   7.564   7.671 -0.5258  0.2491  0.1886
 3658TIP3    H135169   5.122   7.543   7.610 -0.0944 -0.6472  0.9628
 3658TIP3    H235170   5.000   7.484   7.676 -0.8277  0.4704  0.6370
 3659TIP3   OH235171   3.967   0.178   8.270 -0.6620  0.1241  0.3706
 3659TIP3    H135172   3.980   0.153   8.361 -0.7315 -0.4526  0.2270
 3659TIP3    H235173   4.030   0.249   8.255  0.3290 -0.7017  0.4917
 3660TIP3   OH235174   0.455   5.064   7.593  0.0646 -0.6623  0.6818
 3660TIP3    H135175   0.491   5.129   7.533 -1.0202 -0.4496  0.2391
 3660TIP3    H235176   0.426   5.114   7.669 -0.9371 -0.5949  0.2632
 3661TIP3   OH235177   0.553   0.996   7.023 -0.1259 -0.1793 -0.6037
 3661TIP3    H135178   0.486   0.981   6.957 -1.9167 -0.8249  1.2791
 3661TIP3    H235179   0.610   1.063   6.985 -1.7269  0.2484 -2.3335
 3662TIP3   OH235180   2.868   1.939   7.031  0.0376 -0.3332  0.0179
 3662TIP3    H135181   2.947   1.950   7.083 -0.7713 -0.1119  1.2320
 3662TIP3    H235182   2.816   2.017   7.048 -1.5972 -1.6240  1.3577
 3663TIP3   OH235183   7.102   2.804   8.934 -0.2409  0.5820  0.5668
 3663TIP3    H135184   7.011   2.807   8.964  0.1153 -0.3744  1.8089
 3663TIP3    H235185   7.153   2.797   9.015  0.8653 -0.1690 -0.1852
 3664TIP3   OH235186   1.477   2.907   7.713  0.0400  0.4388 -0.1514
 3664TIP3    H135187   1.536   2.875   7.646  2.2560  0.4396  1.6879
 3664TIP3    H235188   1.425   2.831   7.738  0.9559 -0.1928 -0.1320
 3665TIP3   OH235189   6.128   5.320   9.415 -0.1565  0.2017  0.1438
 3665TIP3    H135190   6.127   5.347   9.323 -1.4288 -0.0393  0.0589
 3665TIP3    H235191   6.097   5.398   9.462  0.8129  0.4346  0.4181
 3666TIP3   OH235192   2.209   3.726   6.626 -0.4018 -0.3909 -0.1943
 3666TIP3    H135193   2.213   3.771   6.541 -2.3464  0.7856  0.2780
 3666TIP3    H235194   2.223   3.633   6.604  0.5342  0.0503 -1.5989
 3667TIP3   OH235195   5.485   0.483   8.993  0.3411 -0.3448 -0.5003
 3667TIP3    H135196   5.520   0.562   8.952  1.6464 -0.9873 -0.6527
 3667TIP3    H235197   5.552   0.455   9.055 -0.9241 -0.2934  0.9415
 3668TIP3   OH235198   4.313   6.805   7.898  0.1395 -0.3177 -0.5410
 3668TIP3    H135199   4.288   6.786   7.808  0.7836 -0.2595 -0.7364
 3668TIP3    H235200   4.273   6.734   7.949 -1.0526  0.1823 -0.7404
 3669TIP3   OH235201   7.611   6.608   8.259 -0.5064 -0.0036  0.2278
 3669TIP3    H135202   7.683   6.561   8.216 -1.6483 -0.4801 -1.2311
 3669TIP3    H235203   7.618   6.698   8.228 -0.9630 -0.2130 -0.5000
 3670TIP3   OH235204   1.442   4.439   8.312 -0.0289 -0.7837  0.2358
 3670TIP3    H135205   1.483   4.413   8.394  0.8690  0.6674  0.2843
 3670TIP3    H235206   1.363   4.485   8.338 -1.3820 -2.9278  0.1612
 3671TIP3   OH235207   6.204   4.157   8.819  0.3035  0.5081  0.2478
 3671TIP3    H135208   6.156   4.200   8.748  0.1068 -0.6398 -0.3441
 3671TIP3    H235209   6.147   4.084   8.844  0.3201  0.9704  1.6803
 3672TIP3   OH235210   7.572   4.984   7.294  0.3016  0.3848 -0.2162
 3672TIP3    H135211   7.637   4.960   7.228  0.8094  0.6816  0.1650
 3672TIP3    H235212   7.544   4.900   7.332 -1.5990  0.0186 -2.2571
 3673TIP3   OH235213   2.310   7.279   9.446 -0.3571 -0.3745 -0.0226
 3673TIP3    H135214   2.245   7.212   9.464 -2.0868  0.8600 -1.3917
 3673TIP3    H235215   2.368   7.239   9.380  0.5484 -1.5896  1.4406
 3674TIP3   OH235216   5.410   4.931   8.046  0.2720  0.3052  0.3287
 3674TIP3    H135217   5.450   4.908   8.129  0.4934  0.1267  0.1746
 3674TIP3    H235218   5.328   4.882   8.044 -0.1322  0.9461  0.8004
 3675TIP3   OH235219   0.088   1.320   8.720 -0.0408  0.3380  0.7560
 3675TIP3    H135220   0.178   1.351   8.715  0.2821 -0.7471 -1.1270
 3675TIP3    H235221   0.039   1.378   8.661 -0.4033  0.3260  1.0370
 3676TIP3   OH235222   4.623   1.759   7.524  0.6162  0.3063 -0.1085
 3676TIP3    H135223   4.587   1.701   7.591  0.8569  0.2379 -0.0369
 3676TIP3    H235224   4.717   1.745   7.529  0.7412  1.2876  0.4395
 3677TIP3   OH235225   2.591   3.062   8.005  0.2056 -0.3600 -0.2959
 3677TIP3    H135226   2.601   3.152   7.972  1.0083 -0.2930  0.1103
 3677TIP3    H235227   2.679   3.035   8.029 -0.4803  0.3045  3.6154
 3678TIP3   OH235228   6.345   6.374   7.119 -0.2026  0.5577  0.7775
 3678TIP3    H135229   6.256   6.340   7.118  0.7629 -2.1398  0.2363
 3678TIP3    H235230   6.364   6.388   7.212 -0.4348 -1.0959  1.1011
 3679TIP3   OH235231   7.637   1.452   8.524 -0.1461  0.1859  0.5295
 3679TIP3    H135232   7.584   1.430   8.447 -1.2533  0.7503  1.0998
 3679TIP3    H235233   7.599   1.534   8.556  3.2934  2.6419 -1.0710
 3680TIP3   OH235234   4.505   4.791   7.654  0.4180  0.2065 -0.3554
 3680TIP3    H135235   4.500   4.701   7.620 -0.1099  0.3337 -0.6314
 3680TIP3    H235236   4.476   4.784   7.745  1.2367 -0.0380 -0.1050
 3681TIP3   OH235237   4.037   3.551   8.126  0.5750 -0.0789  0.2060
 3681TIP3    H135238   4.019   3.613   8.055 -0.4316  0.2195  0.7010
 3681TIP3    H235239   4.028   3.602   8.206 -1.0012 -0.9995  0.6529
 3682TIP3   OH235240   4.939   4.754   8.630 -0.5933  0.8608 -0.8036
 3682TIP3    H135241   4.910   4.696   8.559 -0.0696  1.8931 -1.8924
 3682TIP3    H235242   4.866   4.754   8.692 -1.1050  0.0103 -1.3753
 3683TIP3   OH235243   6.155   2.669   7.853  0.7129 -0.0684 -0.8289
 3683TIP3    H135244   6.105   2.712   7.784  1.6074  0.1051 -1.3794
 3683TIP3    H235245   6.089   2.623   7.906 -0.1245  1.0387 -0.8974
 3684TIP3   OH235246   5.197   5.006   8.895 -0.2757  0.5393 -0.2019
 3684TIP3    H135247   5.159   5.072   8.836  2.0577  2.1247 -0.1048
 3684TIP3    H235248   5.171   5.034   8.982 -0.2079  0.6877 -0.2283
 3685TIP3   OH235249   6.342   2.839   7.318 -0.8028  0.5842 -0.3850
 3685TIP3    H135250   6.426   2.818   7.277 -1.3931  2.3395 -2.6669
 3685TIP3    H235251   6.366   2.872   7.405  0.6152 -1.5977  0.1507
 3686TIP3   OH235252   4.339   3.728   8.068 -0.0668 -0.2164 -0.3314
 3686TIP3    H135253   4.367   3.820   8.074  0.5070 -0.3889 -0.3140
 3686TIP3    H235254   4.416   3.678   8.095  0.4846 -0.8097 -2.7892
 3687TIP3   OH235255   7.645   0.107   8.862  0.1024  0.2105  0.3936
 3687TIP3    H135256   7.738   0.127   8.846 -0.1036  1.3819  0.5662
 3687TIP3    H235257   7.647   0.032   8.921  0.9304 -0.2578 -0.2097
 3688TIP3   OH235258   2.699   3.373   7.415  0.1364 -0.3228 -0.1662
 3688TIP3    H135259   2.736   3.338   7.495  0.1092  0.4501  0.1919
 3688TIP3    H235260   2.624   3.316   7.397  0.7953 -1.1762 -0.2625
 3689TIP3   OH235261   6.705   6.847   7.655 -0.2612 -0.0523  0.3816
 3689TIP3    H135262   6.660   6.868   7.574 -2.3224  1.8074  1.8760
 3689TIP3    H235263   6.756   6.925   7.675  1.2084 -0.9590  0.3051
 3690TIP3   OH235264   0.086   3.572   7.587  0.2135  0.4522  0.5193
 3690TIP3    H135265   0.017   3.630   7.620 -1.5103 -2.0805  1.6886
 3690TIP3    H235266   0.144   3.630   7.537 -0.7211  3.3576  2.5036
 3691TIP3   OH235267   3.399   2.089   8.527  0.1499 -0.2834  0.2960
 3691TIP3    H135268   3.393   1.994   8.530  1.6846 -0.5039 -1.4389
 3691TIP3    H235269   3.323   2.117   8.476  0.1110 -0.6518  0.1539
 3692TIP3   OH235270   7.053   2.581   8.485  0.0498  0.0464 -0.3397
 3692TIP3    H135271   6.974   2.623   8.519  1.4540  1.7678  1.0224
 3692TIP3    H235272   7.044   2.584   8.390 -1.3401  0.5679 -0.2085
 3693TIP3   OH235273   7.561   6.024   8.227 -0.2260  0.5590 -1.0963
 3693TIP3    H135274   7.564   6.044   8.320 -0.1220 -0.2003 -0.9303
 3693TIP3    H235275   7.482   5.970   8.217  0.3159 -0.2211 -1.2678
 3694TIP3   OH235276   2.615   5.510   7.435  0.1219 -0.0889 -0.2628
 3694TIP3    H135277   2.631   5.576   7.502  0.7609  1.4506 -1.8392
 3694TIP3    H235278   2.594   5.430   7.483  2.1636  0.5272  1.7757
 3695TIP3   OH235279   0.858   3.187   7.083  0.0604 -0.6649  0.0592
 3695TIP3    H135280   0.775   3.142   7.070 -0.6570  0.6898 -0.2454
 3695TIP3    H235281   0.834   3.270   7.125  1.3672 -0.6950  0.9292
 3696TIP3   OH235282   3.852   0.382   7.400  0.2013  0.7122  0.3731
 3696TIP3    H135283   3.885   0.320   7.336 -2.3435  0.4938 -0.8457
 3696TIP3    H235284   3.925   0.443   7.415  1.0590  0.4957 -2.3727
 3697TIP3   OH235285   3.036   6.392   8.093 -0.6274 -0.0287 -0.0173
 3697TIP3    H135286   2.976   6.343   8.036 -0.8417  0.3171 -0.0978
 3697TIP3    H235287   3.089   6.326   8.135 -1.2851 -0.3645  0.2916
 3698TIP3   OH235288   5.385   2.188   7.753  0.0169  0.3225  0.2705
 3698TIP3    H135289   5.436   2.230   7.684  2.1902 -0.7386  1.1252
 3698TIP3    H235290   5.376   2.097   7.725 -3.0762  0.8390 -0.7074
 3699TIP3   OH235291   1.242   1.464   8.559 -0.5279 -0.3769 -0.0057
 3699TIP3    H135292   1.211   1.524   8.627  0.2031  0.9250 -0.7961
 3699TIP3    H235293   1.187   1.482   8.483  1.3343  1.1913 -1.0761
 3700TIP3   OH235294   3.209   2.372   8.634  0.4342  0.2949 -0.1021
 3700TIP3    H135295   3.144   2.304   8.652 -0.1152  1.0933  1.0886
 3700TIP3    H235296   3.289   2.339   8.674  0.3182  0.0976 -0.0295
 3701TIP3   OH235297   6.395   5.926   8.550  0.3805 -0.4294 -0.3155
 3701TIP3    H135298   6.453   6.001   8.541 -2.1917  1.6619 -0.7779
 3701TIP3    H235299   6.347   5.923   8.467  1.1004 -3.2904 -0.7279
 3702TIP3   OH235300   6.365   1.331   8.271  0.0354 -0.6079  0.5554
 3702TIP3    H135301   6.281   1.314   8.229  0.1926 -1.2836  0.5067
 3702TIP3    H235302   6.424   1.265   8.235  0.4898 -0.3901  0.8884
 3703TIP3   OH235303   1.125   5.728   8.767 -0.1206 -0.8638  0.0898
 3703TIP3    H135304   1.188   5.794   8.797 -1.8422 -0.2326  2.6750
 3703TIP3    H235305   1.058   5.779   8.722 -0.3475 -1.1208  0.1387
 3704TIP3   OH235306   6.228   6.977   7.999 -0.6745  0.3712 -1.0389
 3704TIP3    H135307   6.267   7.052   8.043  1.7361 -1.2268 -0.2573
 3704TIP3    H235308   6.173   6.936   8.066 -0.1074  0.1354 -0.7081
 3705TIP3   OH235309   4.709   5.483   7.038  0.5397  0.2506 -0.7026
 3705TIP3    H135310   4.630   5.511   7.084  1.2767  0.1160  0.7086
 3705TIP3    H235311   4.740   5.562   6.993 -0.8005  0.1152 -1.9254
 3706TIP3   OH235312   6.760   0.111   8.690  0.3670 -0.1072  0.1084
 3706TIP3    H135313   6.739   0.172   8.620  0.4660  1.4926  1.4371
 3706TIP3    H235314   6.726   0.027   8.659  0.8284  0.4348 -2.0519
 3707TIP3   OH235315   2.106   6.312   7.745  0.4639 -0.0548 -0.2216
 3707TIP3    H135316   2.080   6.370   7.674  1.6121  0.7333 -0.0319
 3707TIP3    H235317   2.068   6.351   7.824  2.1751  1.1309  0.0640
 3708TIP3   OH235318   7.175   1.040   9.218 -0.0982 -0.0843 -0.9783
 3708TIP3    H135319   7.257   1.068   9.260  0.5769 -1.9435 -0.9600
 3708TIP3    H235320   7.145   1.117   9.170  1.7897  0.5964 -1.1558
 3709TIP3   OH235321   7.307   1.088   6.873  0.5752 -0.3468  0.1652
 3709TIP3    H135322   7.293   0.994   6.862 -1.3191 -0.1088  0.1337
 3709TIP3    H235323   7.231   1.128   6.831  1.4736  1.2178 -0.0297
 3710TIP3   OH235324   5.980   4.069   8.509 -0.0896  0.0248 -0.3084
 3710TIP3    H135325   6.036   4.034   8.440 -0.8092  1.0293 -1.4399
 3710TIP3    H235326   6.026   4.147   8.539 -0.3013  0.1989 -0.4296
 3711TIP3   OH235327   4.330   7.061   8.405  0.2833  0.1009 -0.5933
 3711TIP3    H135328   4.399   6.997   8.391 -0.2661 -0.6880  0.2341
 3711TIP3    H235329   4.253   7.024   8.361 -0.4415 -0.5744  1.1606
 3712TIP3   OH235330   5.122   6.903   7.957 -0.1270 -0.5915 -0.6403
 3712TIP3    H135331   5.091   6.821   7.997 -0.5699  0.3592  1.0587
 3712TIP3    H235332   5.136   6.880   7.865 -2.4415 -2.0014 -0.7411
 3713TIP3   OH235333   1.115   2.902   9.420 -0.0631 -0.3611 -0.0480
 3713TIP3    H135334   1.126   2.954   9.498 -0.4774 -1.5783  0.8609
 3713TIP3    H235335   1.020   2.902   9.404 -0.0477 -0.6499 -0.1585
 3714TIP3   OH235336   1.240   4.499   9.258  0.6634 -0.0190  0.4470
 3714TIP3    H135337   1.236   4.535   9.170 -0.1622 -0.3055  0.3592
 3714TIP3    H235338   1.329   4.518   9.288  0.5425  1.2559  0.0523
 3715TIP3   OH235339   2.828   1.423   9.061  0.1854 -0.0188  0.5413
 3715TIP3    H135340   2.769   1.350   9.081  2.2867 -1.9984 -0.0327
 3715TIP3    H235341   2.829   1.476   9.141 -1.1509 -0.7993  1.1009
 3716TIP3   OH235342   1.242   1.067   8.533  0.1590  0.1920  0.2633
 3716TIP3    H135343   1.157   1.106   8.518 -0.1703 -0.8723 -0.7581
 3716TIP3    H235344   1.286   1.127   8.594 -0.8067  1.4247 -0.2267
 3717TIP3   OH235345   5.615   0.353   8.265 -0.3841 -1.0324  0.0507
 3717TIP3    H135346   5.635   0.339   8.358  1.6912  1.8148  0.1713
 3717TIP3    H235347   5.524   0.381   8.264 -0.4348 -1.0853  1.2508
 3718TIP3   OH235348   3.143   2.490   8.032  0.5594  0.2229  0.1109
 3718TIP3    H135349   3.238   2.505   8.027  0.3938  1.5278  0.4622
 3718TIP3    H235350   3.121   2.449   7.948  1.2384  1.1481 -0.5391
 3719TIP3   OH235351   5.341   2.107   8.249 -0.1924 -0.5152  0.6808
 3719TIP3    H135352   5.405   2.091   8.179 -0.8163  0.4411 -0.1499
 3719TIP3    H235353   5.261   2.133   8.202 -1.1524 -1.5619  1.7021
 3720TIP3   OH235354   0.240   5.819   8.674  0.3044 -0.3008 -0.3889
 3720TIP3    H135355   0.196   5.747   8.631 -0.8336 -0.6639  1.2852
 3720TIP3    H235356   0.177   5.891   8.673  1.1603  0.4706 -1.4051
 3721TIP3   OH235357   3.487   0.847   7.276 -0.5477 -0.2480  0.9111
 3721TIP3    H135358   3.477   0.852   7.371  1.4303 -0.6668  1.1778
 3721TIP3    H235359   3.559   0.786   7.262  0.4853  1.2627 -0.7644
 3722TIP3   OH235360   5.087   4.453   7.873 -0.7826 -0.1560 -0.3898
 3722TIP3    H135361   5.041   4.451   7.789  0.9057  0.2821 -1.3629
 3722TIP3    H235362   5.142   4.532   7.869  2.2412 -2.1103 -0.5367
 3723TIP3   OH235363   3.199   3.957   6.888  0.0475  0.5653  0.1938
 3723TIP3    H135364   3.227   4.029   6.831 -2.0601  1.4819  0.2653
 3723TIP3    H235365   3.193   3.882   6.829 -0.0979  1.0211 -0.3790
 3724TIP3   OH235366   4.335   5.248   9.074  0.2637  0.2220 -0.3587
 3724TIP3    H135367   4.413   5.199   9.048  0.5138  0.7241 -0.5648
 3724TIP3    H235368   4.364   5.339   9.081 -0.0909  0.2883  0.4593
 3725TIP3   OH235369   6.770   5.746   7.654  0.4601  0.2051 -0.3267
 3725TIP3    H135370   6.697   5.763   7.594  0.4056 -1.2209 -0.7117
 3725TIP3    H235371   6.755   5.806   7.728 -1.7959 -0.8374  0.1633
 3726TIP3   OH235372   3.413   7.056   8.594  0.2494  0.4021  0.3105
 3726TIP3    H135373   3.361   7.083   8.518  0.3502  1.2729  0.5437
 3726TIP3    H235374   3.453   6.974   8.567  0.1471  0.6175 -0.5253
 3727TIP3   OH235375   7.363   2.947   8.235  0.0093  0.5770  0.4800
 3727TIP3    H135376   7.449   2.918   8.267 -0.7259 -1.8087  0.4651
 3727TIP3    H235377   7.360   2.917   8.144 -0.7489  0.8492  0.4119
 3728TIP3   OH235378   1.982   6.856   9.778  0.2367 -0.3963 -0.6748
 3728TIP3    H135379   1.900   6.859   9.727  1.0756 -1.9493 -2.2412
 3728TIP3    H235380   1.963   6.907   9.857 -1.2919  1.7701 -2.3136
 3729TIP3   OH235381   7.380   1.152   9.417  0.0763  0.4444  0.2634
 3729TIP3    H135382   7.309   1.187   9.471 -0.4867  0.5453 -0.5306
 3729TIP3    H235383   7.405   1.224   9.360 -0.0548  0.0347 -0.3287
 3730TIP3   OH235384   1.905   5.045   9.369 -0.3416 -0.1252 -0.2536
 3730TIP3    H135385   1.954   5.107   9.316  1.0393 -2.0191 -1.3342
 3730TIP3    H235386   1.819   5.085   9.381 -0.0177  1.2672 -2.2147
 3731TIP3   OH235387   2.281   3.770   9.141  0.0620  0.3259 -0.0559
 3731TIP3    H135388   2.364   3.782   9.187  1.4747 -3.1149 -1.3505
 3731TIP3    H235389   2.248   3.859   9.126  3.3471  1.8296  0.7693
 3732TIP3   OH235390   5.192   0.543   7.051  0.2383 -0.8538  0.1523
 3732TIP3    H135391   5.122   0.589   7.006  2.3944  1.7196 -0.8507
 3732TIP3    H235392   5.212   0.468   6.995  0.5541  0.3408 -1.3977
 3733TIP3   OH235393   0.784   1.778   7.047 -0.1742  0.5799  0.0079
 3733TIP3    H135394   0.716   1.723   7.085 -0.8239  1.4954  0.2204
 3733TIP3    H235395   0.801   1.845   7.114  0.5455  0.6891 -0.2681
 3734TIP3   OH235396   0.158   6.527   9.506  0.8531 -0.1291 -0.4121
 3734TIP3    H135397   0.217   6.588   9.461  1.5535 -1.4827 -1.4206
 3734TIP3    H235398   0.209   6.446   9.513 -0.1157 -0.6612  0.7104
 3735TIP3   OH235399   0.830   6.191   8.464  0.1338 -0.1902  0.1043
 3735TIP3    H135400   0.776   6.122   8.426 -3.4121  0.4229  3.4426
 3735TIP3    H235401   0.797   6.272   8.425 -0.8768  0.1286  1.5571
 3736TIP3   OH235402   7.118   5.755   8.240  0.4298 -0.6087  0.4258
 3736TIP3    H135403   7.078   5.808   8.309 -0.8163 -0.9629 -0.0039
 3736TIP3    H235404   7.087   5.666   8.258  2.2621 -1.1802  0.9724
 3737TIP3   OH235405   2.158   6.189   8.351 -0.4270 -0.3036  0.3000
 3737TIP3    H135406   2.125   6.244   8.280 -0.8602 -1.9169 -0.8258
 3737TIP3    H235407   2.136   6.100   8.324  2.7259 -1.3193  0.6351
 3738TIP3   OH235408   6.103   7.422   8.505  0.2515 -0.0216 -0.6707
 3738TIP3    H135409   6.189   7.451   8.475  0.7890 -1.7116 -0.8926
 3738TIP3    H235410   6.044   7.442   8.433  0.2908  1.7995 -0.2404
 3739TIP3   OH235411   0.063   1.070   7.103 -0.3073 -0.0626 -0.1459
 3739TIP3    H135412   0.157   1.071   7.083 -0.1110  3.9094  0.2712
 3739TIP3    H235413   0.021   1.057   7.018  0.6499  2.0909 -1.0100
 3740TIP3   OH235414   5.326   6.932   7.103 -0.5175 -0.3157 -0.1865
 3740TIP3    H135415   5.339   7.013   7.053 -2.0591  0.3881  0.4865
 3740TIP3    H235416   5.411   6.887   7.098  0.0757  0.8543 -1.4120
 3741TIP3   OH235417   0.386   2.002   8.249 -0.5392  0.0305  0.1543
 3741TIP3    H135418   0.362   1.914   8.218  1.8989 -0.9138  0.7136
 3741TIP3    H235419   0.408   1.989   8.341 -1.6722  1.5797  0.6853
 3742TIP3   OH235420   1.352   0.811   8.497  0.4263 -0.4348  0.0451
 3742TIP3    H135421   1.348   0.906   8.510 -0.0401 -0.5249  0.6020
 3742TIP3    H235422   1.300   0.775   8.569 -1.0622 -1.0356 -1.2611
 3743TIP3   OH235423   0.061   4.481   9.158 -0.1208 -0.3582  0.1930
 3743TIP3    H135424  -0.030   4.513   9.161  0.1392  0.3321  2.1701
 3743TIP3    H235425   0.055   4.388   9.179 -0.3839 -0.2921  0.4235
 3744TIP3   OH235426   1.048   4.314   8.530 -0.1854 -0.1822 -0.2253
 3744TIP3    H135427   1.107   4.254   8.485  3.1763  1.1463  2.0714
 3744TIP3    H235428   0.988   4.256   8.579  1.7204 -1.7093  0.4242
 3745TIP3   OH235429   5.491   2.437   6.951 -0.3837  0.1244 -0.4199
 3745TIP3    H135430   5.469   2.404   6.864 -1.3742 -0.4867  0.0527
 3745TIP3    H235431   5.426   2.506   6.968 -1.3679 -1.0064  0.5726
 3746TIP3   OH235432   1.218   7.033   8.580  0.3486 -0.0783  0.0389
 3746TIP3    H135433   1.144   6.973   8.569  0.9856 -0.6337 -1.4104
 3746TIP3    H235434   1.177   7.116   8.607 -0.7940 -0.3916 -0.6471
 3747TIP3   OH235435   0.302   2.717   9.397 -0.0325 -0.6069  0.3672
 3747TIP3    H135436   0.289   2.691   9.488  0.1705  0.4001  0.6936
 3747TIP3    H235437   0.334   2.638   9.354  1.0065 -0.7958  1.4265
 3748TIP3   OH235438   0.384   1.304   7.266  0.0461  0.0816 -0.0075
 3748TIP3    H135439   0.458   1.279   7.210 -0.9935  0.3760 -1.5589
 3748TIP3    H235440   0.420   1.372   7.323  0.8131  0.6668 -1.1532
 3749TIP3   OH235441   5.056   7.650   9.209 -0.0897  0.5075  0.1616
 3749TIP3    H135442   5.125   7.594   9.173 -0.7863  0.2338 -0.8033
 3749TIP3    H235443   5.001   7.671   9.134 -1.2693  0.4125  0.9784
 3750TIP3   OH235444   3.055   3.703   8.606 -0.5573 -0.2665 -0.4234
 3750TIP3    H135445   2.999   3.779   8.590  0.8250  0.8487 -0.2040
 3750TIP3    H235446   3.001   3.644   8.658 -1.2803  1.1200  0.4738
 3751TIP3   OH235447   2.815   3.754   7.133 -0.1284  0.3535 -0.0272
 3751TIP3    H135448   2.874   3.694   7.087  1.3023  0.1532  1.9393
 3751TIP3    H235449   2.833   3.739   7.226 -2.3381  1.2786  0.6131
 3752TIP3   OH235450   0.949   2.912   7.350 -0.1091  0.5905 -0.4910
 3752TIP3    H135451   0.988   2.993   7.381  1.0304 -0.4110  0.8173
 3752TIP3    H235452   0.866   2.905   7.397 -0.2644  1.0366 -0.6926
 3753TIP3   OH235453   0.765   6.442   8.781 -0.4789  0.6362 -0.7138
 3753TIP3    H135454   0.763   6.346   8.773 -1.1816  0.5448  0.3850
 3753TIP3    H235455   0.850   6.460   8.821 -0.1133  0.5187 -1.4284
 3754TIP3   OH235456   2.367   5.379   7.223  0.1567 -0.1710  0.2809
 3754TIP3    H135457   2.454   5.403   7.256 -0.4295 -1.1053  2.6326
 3754TIP3    H235458   2.367   5.412   7.133  3.1615 -0.6528 -0.0151
 3755TIP3   OH235459   1.800   3.975   7.099  0.1374 -0.1535  0.1961
 3755TIP3    H135460   1.779   3.997   7.190 -0.5022 -1.4849  0.3920
 3755TIP3    H235461   1.880   4.024   7.081 -1.2246  2.3878  0.5475
 3756TIP3   OH235462   6.521   6.368   8.427  0.2273 -0.5917  0.4374
 3756TIP3    H135463   6.445   6.407   8.469  1.0988  0.2139  1.3376
 3756TIP3    H235464   6.594   6.425   8.453  0.8310 -0.0687 -2.1169
 3757TIP3   OH235465   0.289   3.606   7.252  0.8355 -0.0826  0.5126
 3757TIP3    H135466   0.371   3.655   7.246  1.2287 -0.8203 -0.8097
 3757TIP3    H235467   0.225   3.668   7.285  1.7742  0.7045  0.8934
 3758TIP3   OH235468   0.238   2.248   6.898 -0.6506 -0.3202  0.0177
 3758TIP3    H135469   0.232   2.153   6.905 -1.1950 -0.2509  0.6287
 3758TIP3    H235470   0.150   2.276   6.875 -0.7504  0.1042  0.8646
 3759TIP3   OH235471   3.885   5.615   6.699  0.5305  0.3697  0.3684
 3759TIP3    H135472   3.967   5.573   6.675  0.8755 -0.0744  2.2311
 3759TIP3    H235473   3.896   5.706   6.674  2.0547  0.5613  1.6352
 3760TIP3   OH235474   5.369   5.360   8.787 -0.0930  0.4191 -0.3082
 3760TIP3    H135475   5.281   5.367   8.823 -0.5682  0.3365 -1.4262
 3760TIP3    H235476   5.385   5.265   8.782 -0.4809  0.3955 -1.3496
 3761TIP3   OH235477   0.163   5.824   6.966  0.5617  0.3076 -0.4015
 3761TIP3    H135478   0.089   5.779   7.007  0.3055  0.8433 -0.2523
 3761TIP3    H235479   0.237   5.806   7.024  0.1174  1.3996  0.5746
 3762TIP3   OH235480   2.384   0.900   9.373  0.2676  0.0907 -0.3855
 3762TIP3    H135481   2.348   0.986   9.394 -1.5870 -0.2476 -1.9789
 3762TIP3    H235482   2.311   0.840   9.384  1.4568 -1.2882  0.4004
 3763TIP3   OH235483   5.236   1.702   7.030  0.3357 -0.0575  1.0383
 3763TIP3    H135484   5.258   1.782   7.078  1.5397  0.7508 -0.7463
 3763TIP3    H235485   5.198   1.733   6.948  0.7414 -1.3193  0.3495
 3764TIP3   OH235486   2.890   3.731   6.802  0.2035 -0.6667 -0.7398
 3764TIP3    H135487   2.905   3.659   6.864 -1.7579  0.0542  0.6847
 3764TIP3    H235488   2.972   3.737   6.753  1.6093 -1.7703  1.2804
 3765TIP3   OH235489   7.177   5.395   9.473 -0.4231 -0.4222 -0.3250
 3765TIP3    H135490   7.101   5.374   9.418 -1.3453  0.3648  0.6258
 3765TIP3    H235491   7.156   5.479   9.513  1.1120 -0.0212 -0.3028
 3766TIP3   OH235492   2.097   1.055   9.311  0.0165 -0.0663  0.7113
 3766TIP3    H135493   2.025   1.062   9.374  0.2843 -1.8532  1.2738
 3766TIP3    H235494   2.055   1.034   9.228 -0.2974  1.7557  0.3821
 3767TIP3   OH235495   5.978   1.288   8.302  0.2697  0.0002  0.5157
 3767TIP3    H135496   6.061   1.241   8.297 -0.0661 -0.6049  0.4985
 3767TIP3    H235497   5.915   1.222   8.331  0.0123  0.7251  1.6753
 3768TIP3   OH235498   3.678   4.020   9.232 -0.4152  0.2416 -0.2651
 3768TIP3    H135499   3.770   4.035   9.255 -0.4739  1.1508 -0.5633
 3768TIP3    H235500   3.662   3.928   9.254 -0.0483  0.6427  1.8531
 3769TIP3   OH235501   5.233   4.011   7.894 -0.1056  0.0327 -0.3688
 3769TIP3    H135502   5.254   4.095   7.852  1.2332  0.1506  0.4702
 3769TIP3    H235503   5.276   3.945   7.840 -1.3117 -0.1589 -1.1334
 3770TIP3   OH235504   4.196   3.186   8.635  0.1470  0.1191  0.0921
 3770TIP3    H135505   4.110   3.197   8.595  0.1045 -0.0302  0.1435
 3770TIP3    H235506   4.230   3.275   8.642  0.3443  0.1084 -0.6838
 3771TIP3   OH235507   7.639   4.963   8.367 -0.1272 -0.2527 -0.2239
 3771TIP3    H135508   7.692   4.924   8.437  1.2513 -0.1259 -1.1470
 3771TIP3    H235509   7.702   4.982   8.297 -1.4627 -0.4607 -1.5425
 3772TIP3   OH235510   3.450   6.562   9.343 -0.0617 -0.9188  0.2367
 3772TIP3    H135511   3.430   6.650   9.373 -2.0368 -0.5691 -1.8784
 3772TIP3    H235512   3.546   6.557   9.345  0.2097  1.9397 -1.2934
 3773TIP3   OH235513   7.670   0.083   7.639 -0.0576 -0.1460 -0.1756
 3773TIP3    H135514   7.699   0.008   7.690  0.9752  0.4770  0.1845
 3773TIP3    H235515   7.744   0.145   7.642 -1.3439  1.4296  0.6073
 3774TIP3   OH235516   5.214   0.215   8.649  0.0654  0.2607  0.1815
 3774TIP3    H135517   5.133   0.266   8.650 -0.1919 -0.1053 -0.6653
 3774TIP3    H235518   5.251   0.226   8.737 -0.3788  1.2639  0.2583
 3775TIP3   OH235519   6.423   4.249   8.646 -0.1360 -0.3393 -0.0559
 3775TIP3    H135520   6.381   4.333   8.668 -0.7101 -0.5039 -0.4895
 3775TIP3    H235521   6.357   4.183   8.669 -0.0724 -0.6088 -0.6483
 3776TIP3   OH235522   5.131   7.139   8.960 -0.2083 -0.1180  0.0570
 3776TIP3    H135523   5.155   7.205   8.895 -1.7602 -0.5688 -1.0482
 3776TIP3    H235524   5.193   7.067   8.947 -0.3714 -0.1114 -0.8065
 3777TIP3   OH235525   7.286   2.362   7.172  0.0203 -0.1173 -0.6377
 3777TIP3    H135526   7.229   2.429   7.134 -1.0446 -1.5844 -1.7601
 3777TIP3    H235527   7.342   2.334   7.100  0.6630 -0.2528 -0.1014
 3778TIP3   OH235528   1.978   3.449   6.588 -0.1930 -0.0767  0.4241
 3778TIP3    H135529   2.070   3.430   6.606  0.3998  1.8284 -0.3586
 3778TIP3    H235530   1.964   3.417   6.499 -0.2696 -0.3112  0.5205
 3779TIP3   OH235531   0.347   0.461   6.479  0.0335  0.1342 -0.4456
 3779TIP3    H135532   0.269   0.446   6.425 -2.6416 -1.9493  3.5318
 3779TIP3    H235533   0.356   0.556   6.482 -2.3857  0.4344 -1.0217
 3780TIP3   OH235534   0.776   5.588   8.064  0.4347 -0.0830 -0.5273
 3780TIP3    H135535   0.705   5.575   8.002  0.7770 -0.6020 -0.8139
 3780TIP3    H235536   0.750   5.666   8.114 -0.6058 -0.5980 -0.2388
 3781TIP3   OH235537   2.186   4.434   7.193 -0.2735  0.4132 -0.7919
 3781TIP3    H135538   2.203   4.384   7.113 -2.0098 -0.3954 -0.7055
 3781TIP3    H235539   2.217   4.522   7.173  1.8226 -0.4087 -1.3505
 3782TIP3   OH235540   6.260   6.861   7.375  0.6132  0.4766 -0.0372
 3782TIP3    H135541   6.231   6.907   7.297  0.1710 -0.5473 -0.4981
 3782TIP3    H235542   6.200   6.786   7.382  1.1713  0.0969  0.8049
 3783TIP3   OH235543   5.131   0.302   7.746 -0.1120  0.1903  0.3176
 3783TIP3    H135544   5.072   0.236   7.781  1.1467 -1.6055 -0.7518
 3783TIP3    H235545   5.171   0.342   7.824 -0.1119 -1.0775  0.9931
 3784TIP3   OH235546   6.904   4.697   9.116 -0.3947  0.0784 -0.1011
 3784TIP3    H135547   6.976   4.757   9.132  0.6259 -1.0048 -0.4816
 3784TIP3    H235548   6.847   4.744   9.055 -0.0963  1.0025  0.3094
 3785TIP3   OH235549   3.613   7.134   8.073  0.2414 -0.0106  0.0885
 3785TIP3    H135550   3.620   7.169   8.162  0.5490 -0.4633  0.2451
 3785TIP3    H235551   3.538   7.180   8.035 -0.0605 -0.0130  0.6705
 3786TIP3   OH235552   3.195   5.827   7.605 -0.4053  0.3460  0.2850
 3786TIP3    H135553   3.221   5.738   7.582  0.1024  0.0590  1.8498
 3786TIP3    H235554   3.277   5.875   7.616 -0.6257  0.5905  0.9589
 3787TIP3   OH235555   5.551   0.446   7.834  0.2800 -0.2216  0.8139
 3787TIP3    H135556   5.545   0.364   7.785 -2.9155  0.8580 -0.9058
 3787TIP3    H235557   5.630   0.488   7.801 -0.5914 -0.5312 -1.9551
 3788TIP3   OH235558   7.031   0.239   8.681  0.1431 -0.6415  0.0259
 3788TIP3    H135559   6.954   0.250   8.625 -1.0428  0.6511  1.7867
 3788TIP3    H235560   7.006   0.169   8.742  1.3508 -1.9185 -0.8819
 3789TIP3   OH235561   1.522   1.734   9.041 -0.1240  0.2423  0.1657
 3789TIP3    H135562   1.550   1.814   9.084 -0.3595 -0.4756  1.7001
 3789TIP3    H235563   1.437   1.757   9.003  0.2393  0.9771 -0.2299
 3790TIP3   OH235564   5.456   2.001   9.085 -0.0278  0.1413  0.7705
 3790TIP3    H135565   5.534   1.997   9.030 -0.7051  0.3051 -0.2098
 3790TIP3    H235566   5.405   2.073   9.050 -0.5709  0.1228  1.4943
 3791TIP3   OH235567   5.620   0.897   9.268 -0.1240 -0.0427 -0.1542
 3791TIP3    H135568   5.674   0.974   9.251 -0.0613 -0.2731 -1.0595
 3791TIP3    H235569   5.602   0.900   9.362  0.7124  0.5200 -0.0067
 3792TIP3   OH235570   4.656   3.642   8.609  0.3660 -0.2032 -0.1828
 3792TIP3    H135571   4.569   3.606   8.591  0.9269 -0.8767 -1.7134
 3792TIP3    H235572   4.695   3.656   8.522  1.2651  1.4376  0.4252
 3793TIP3   OH235573   6.939   6.496   7.119 -0.0542  0.8454  0.4520
 3793TIP3    H135574   6.847   6.491   7.143  0.3524  1.0447  2.1643
 3793TIP3    H235575   6.964   6.405   7.103 -0.7198  0.8642 -0.8304
 3794TIP3   OH235576   3.087   1.380   7.589 -0.3632 -0.4741  0.2215
 3794TIP3    H135577   3.140   1.407   7.663 -1.1896  0.1284  0.6070
 3794TIP3    H235578   3.041   1.302   7.620 -0.0649 -0.7267  0.0410
 3795TIP3   OH235579   3.422   6.961   7.869  0.7807  0.2412  0.5299
 3795TIP3    H135580   3.338   6.916   7.865  0.3947  0.9350  0.7020
 3795TIP3    H235581   3.400   7.051   7.895  1.4519  0.7666 -0.6446
 3796TIP3   OH235582   3.355   6.789   7.654  0.2911  0.2243  0.1840
 3796TIP3    H135583   3.294   6.822   7.720 -0.0594  0.4639 -0.2532
 3796TIP3    H235584   3.389   6.707   7.692 -1.1379 -0.5025 -0.0226
 3797TIP3   OH235585   1.679   3.787   8.891  0.2369 -0.0864  0.1078
 3797TIP3    H135586   1.773   3.805   8.886  0.2242  0.3260  1.1647
 3797TIP3    H235587   1.645   3.814   8.806  0.7634  1.6684  0.4291
 3798TIP3   OH235588   3.373   1.060   8.456  0.4275 -0.0973 -0.1687
 3798TIP3    H135589   3.374   1.142   8.406  0.5536  0.1754  0.2813
 3798TIP3    H235590   3.418   0.997   8.399  0.7505  0.2627 -0.3184
 3799TIP3   OH235591   0.917   6.705   8.685 -0.2838 -0.3625  0.2540
 3799TIP3    H135592   0.910   6.646   8.760 -1.2419  0.4197  0.8023
 3799TIP3    H235593   0.916   6.792   8.724 -1.4759  0.0741 -0.7061
 3800TIP3   OH235594   6.697   6.705   9.332  0.7117  0.6580  0.2097
 3800TIP3    H135595   6.764   6.740   9.391 -1.3764  1.0799  2.4671
 3800TIP3    H235596   6.618   6.754   9.353 -1.4042 -2.6785  0.7618
 3801TIP3   OH235597   2.939   4.218  26.822 -0.4804 -0.0408  0.4096
 3801TIP3    H135598   2.955   4.258  26.908  1.6528  0.5937 -0.2096
 3801TIP3    H235599   2.884   4.281  26.776 -0.2767  0.4050  0.7631
 3802TIP3   OH235600   6.804   4.229   7.756  0.5852 -0.8566  0.2631
 3802TIP3    H135601   6.877   4.285   7.779  1.7607 -3.3451  3.3108
 3802TIP3    H235602   6.739   4.244   7.824 -0.4737 -0.8963 -0.7024
 3803TIP3   OH235603   2.819   1.063   8.212 -0.7813 -0.4674 -0.0010
 3803TIP3    H135604   2.874   1.064   8.291 -0.1505  0.8079 -0.4386
 3803TIP3    H235605   2.875   1.098   8.143 -0.9627 -2.5493 -1.3090
 3804TIP3   OH235606   5.439   6.308   9.188 -0.1926 -0.1072  0.2664
 3804TIP3    H135607   5.420   6.314   9.094  1.1883 -0.5719 -0.0682
 3804TIP3    H235608   5.375   6.366   9.229 -0.3656  0.6562 -1.0294
 3805TIP3   OH235609   2.672   0.906   8.449  0.2019 -0.3403 -0.2828
 3805TIP3    H135610   2.686   0.821   8.490  3.9377 -0.7547 -1.9967
 3805TIP3    H235611   2.704   0.969   8.513  0.3288 -0.4815 -0.2077
 3806TIP3   OH235612   0.880   3.510   9.334 -0.2043  0.5211 -0.2805
 3806TIP3    H135613   0.890   3.601   9.359 -0.6165  0.7188 -0.8142
 3806TIP3    H235614   0.924   3.503   9.249  0.2592  0.1071 -0.0116
 3807TIP3   OH235615   7.571   4.431   8.835  0.2734  0.1762 -0.3703
 3807TIP3    H135616   7.634   4.500   8.816  0.8087 -0.1554  0.1710
 3807TIP3    H235617   7.516   4.425   8.756  1.2631  0.0892 -1.0654
 3808TIP3   OH235618   5.428   4.817   8.315 -0.1564  0.2504  0.9983
 3808TIP3    H135619   5.501   4.845   8.371  0.2347  1.4947 -0.0673
 3808TIP3    H235620   5.355   4.805   8.376  0.5070  0.5932  1.9001
 3809TIP3   OH235621   5.193   2.308   8.071  0.0748  0.4561 -0.3931
 3809TIP3    H135622   5.111   2.339   8.110 -0.9460 -1.1413 -1.1677
 3809TIP3    H235623   5.215   2.374   8.005 -1.5832  0.0256 -1.4295
 3810TIP3   OH235624   4.347   4.547   8.752 -0.1633  0.0864 -0.0506
 3810TIP3    H135625   4.322   4.529   8.662 -1.2296  1.5738 -0.0870
 3810TIP3    H235626   4.306   4.631   8.773 -0.4301 -0.4863  2.0129
 3811TIP3   OH235627   4.311   1.027   8.034 -0.2515 -0.4700  0.0468
 3811TIP3    H135628   4.279   1.107   8.077 -0.9427 -0.4369 -0.5035
 3811TIP3    H235629   4.370   0.988   8.097  0.8323  0.9667 -0.0258
 3812TIP3   OH235630   5.917   4.752   8.694  0.0558  0.0080 -0.8927
 3812TIP3    H135631   5.895   4.690   8.764  1.2767 -0.5654 -0.9816
 3812TIP3    H235632   5.883   4.836   8.724  1.3967 -0.0212  0.8846
 3813TIP3   OH235633   1.006   5.425   6.675  0.4469 -0.1597 -0.0919
 3813TIP3    H135634   1.075   5.462   6.619  0.6238  0.7573  0.6969
 3813TIP3    H235635   1.049   5.353   6.722  0.2543 -1.0415 -1.2276
 3814TIP3   OH235636   0.651   6.771   7.969 -0.4821 -0.2985  0.5220
 3814TIP3    H135637   0.726   6.727   7.929 -0.7155  2.5308 -3.7097
 3814TIP3    H235638   0.684   6.805   8.052  1.5225 -2.7228  0.8391
 3815TIP3   OH235639   5.962   1.021   7.429 -0.3110 -0.4415  0.4323
 3815TIP3    H135640   6.057   1.019   7.413  0.1013 -0.7714  2.5878
 3815TIP3    H235641   5.938   1.112   7.414 -0.1242 -0.7409 -2.2239
 3816TIP3   OH235642   7.329   3.828   7.685  0.1548 -0.9747  0.1613
 3816TIP3    H135643   7.269   3.754   7.697  0.2947 -1.2418 -0.7141
 3816TIP3    H235644   7.366   3.844   7.772  0.8285 -2.5424  0.1942
 3817TIP3   OH235645   3.954   1.953   8.734 -0.2580 -0.0355  0.2519
 3817TIP3    H135646   3.928   2.042   8.758 -1.0451 -0.0367 -0.5279
 3817TIP3    H235647   4.049   1.957   8.726 -0.4387  1.4661 -2.4298
 3818TIP3   OH235648   6.320   7.089   7.641  0.4706  0.1322 -0.3323
 3818TIP3    H135649   6.267   7.132   7.708  0.5434 -0.8803  0.3962
 3818TIP3    H235650   6.273   7.106   7.559 -2.6932 -3.0827  0.5513
 3819TIP3   OH235651   0.165   6.607   7.652  0.4002 -0.4916  0.2326
 3819TIP3    H135652   0.095   6.669   7.676  0.9628  0.1514  0.2525
 3819TIP3    H235653   0.237   6.663   7.624  0.5838 -1.1718 -0.7064
 3820TIP3   OH235654   4.482   0.447   7.760 -0.1773  0.0709 -0.7884
 3820TIP3    H135655   4.507   0.517   7.699 -0.5005  0.0580 -0.9379
 3820TIP3    H235656   4.565   0.415   7.795 -0.0913  1.4168  0.2904
 3821TIP3   OH235657   1.225   6.808   8.101 -0.0312 -0.2127 -0.5010
 3821TIP3    H135658   1.223   6.714   8.085  0.9444 -0.3646  0.2158
 3821TIP3    H235659   1.138   6.839   8.074 -0.6276 -1.4317 -0.0075
 3822TIP3   OH235660   5.949   3.033   8.306  0.0922  0.0820  0.0840
 3822TIP3    H135661   5.952   3.000   8.216  2.6359  0.4889 -0.0462
 3822TIP3    H235662   5.937   3.128   8.296  0.7905  0.1811  0.1345
 3823TIP3   OH235663   7.512   6.592   8.008 -0.0451 -0.0944 -0.1024
 3823TIP3    H135664   7.467   6.511   7.986 -0.5328  0.5130 -1.4326
 3823TIP3    H235665   7.578   6.566   8.073 -1.0763 -1.3053  0.5009
 3824TIP3   OH235666   1.255   7.239   6.982 -0.2011  0.3783 -0.2768
 3824TIP3    H135667   1.180   7.186   6.956 -0.0463  0.3362 -0.6424
 3824TIP3    H235668   1.280   7.205   7.068 -0.1063 -0.1331 -0.5056
 3825TIP3   OH235669   2.257   6.428   9.402  0.2960 -0.2009  0.3925
 3825TIP3    H135670   2.264   6.460   9.492  0.1762 -0.1808  0.3940
 3825TIP3    H235671   2.348   6.428   9.370  0.1974  1.1584  0.0389
 3826TIP3   OH235672   1.802   1.785   7.386  0.1758 -0.6383  0.0267
 3826TIP3    H135673   1.814   1.732   7.465  1.6330  0.3167  0.4884
 3826TIP3    H235674   1.890   1.798   7.352 -0.2843  0.2826 -0.8768
 3827TIP3   OH235675   3.687   1.042   7.713  0.0216  0.1867 -0.6680
 3827TIP3    H135676   3.679   1.002   7.800  2.7571 -0.3321 -0.5675
 3827TIP3    H235677   3.698   1.135   7.730 -0.1855  0.1851 -0.5151
 3828TIP3   OH235678   3.140   1.884   7.330  0.3504  1.0014  0.3726
 3828TIP3    H135679   3.227   1.843   7.323 -0.2882 -0.2560 -0.5789
 3828TIP3    H235680   3.102   1.873   7.243 -2.5557 -2.7003  1.8506
 3829TIP3   OH235681   1.893   3.998   8.551 -0.2232 -0.4384 -0.1233
 3829TIP3    H135682   1.815   4.053   8.545 -0.1688 -0.1101  1.5649
 3829TIP3    H235683   1.860   3.909   8.537 -0.9712 -0.3284  0.7783
 3830TIP3   OH235684   7.376   0.352   8.237 -0.2259  0.0620 -0.3531
 3830TIP3    H135685   7.302   0.302   8.272  0.3630  0.9276  2.3588
 3830TIP3    H235686   7.448   0.289   8.235 -0.6412 -0.4246 -1.7355
 3831TIP3   OH235687   6.283   5.641   9.120 -0.4503  0.0948 -0.0355
 3831TIP3    H135688   6.353   5.703   9.100  0.2797 -0.6901  0.0400
 3831TIP3    H235689   6.326   5.571   9.169 -0.7334 -1.6744 -2.1408
 3832TIP3   OH235690   7.396   3.943   8.139 -0.1561 -0.5172  0.3527
 3832TIP3    H135691   7.302   3.922   8.133 -0.7345  1.6713  1.0591
 3832TIP3    H235692   7.423   3.904   8.222 -1.0217  0.7130  1.2592
 3833TIP3   OH235693   6.519   4.854   8.616  0.0510  0.1706  0.0801
 3833TIP3    H135694   6.460   4.781   8.596  0.4126 -0.6034  1.6475
 3833TIP3    H235695   6.576   4.861   8.539 -0.8838 -0.2837 -0.6694
 3834TIP3   OH235696   3.713   5.145   8.901 -0.0904 -0.4524 -0.0472
 3834TIP3    H135697   3.707   5.190   8.817 -0.2110 -0.5513 -0.0913
 3834TIP3    H235698   3.714   5.215   8.966  1.8429 -0.2752 -0.2097
 3835TIP3   OH235699   3.102   6.245   9.234  0.5646 -0.0940 -0.5415
 3835TIP3    H135700   3.142   6.328   9.260  0.4454  0.5166 -2.1537
 3835TIP3    H235701   3.043   6.269   9.162  1.3680 -1.7114 -1.7945
 3836TIP3   OH235702   2.309   7.578   9.093 -0.0274  0.6552  0.5413
 3836TIP3    H135703   2.262   7.535   9.165 -2.0399 -0.5486 -1.3884
 3836TIP3    H235704   2.240   7.614   9.038  1.4019  0.6634 -1.3206
 3837TIP3   OH235705   2.696   3.409   9.233  0.0601 -0.5542 -0.3415
 3837TIP3    H135706   2.666   3.468   9.302  1.8562  0.9903 -0.7678
 3837TIP3    H235707   2.681   3.322   9.267  1.4573  0.1477  2.3209
 3838TIP3   OH235708   0.603   2.533   7.458  0.0925 -0.0747  0.5449
 3838TIP3    H135709   0.510   2.557   7.461 -0.4205 -1.7747 -0.5733
 3838TIP3    H235710   0.643   2.601   7.403 -0.9220 -0.5339 -0.8213
 3839TIP3   OH235711   4.302   5.603   7.768 -0.0525 -0.0213 -0.1400
 3839TIP3    H135712   4.326   5.527   7.715 -1.2139  0.8315 -1.9742
 3839TIP3    H235713   4.210   5.590   7.788  0.4743 -0.5663  2.1715
 3840TIP3   OH235714   5.646   5.087   7.469  0.0452 -0.3052  0.1518
 3840TIP3    H135715   5.601   5.004   7.454  0.6218 -0.6150  0.0995
 3840TIP3    H235716   5.585   5.137   7.523  0.3636 -1.4136  1.6310
 3841TIP3   OH235717   1.616   0.715   8.506 -0.1652  0.0229  0.1008
 3841TIP3    H135718   1.530   0.756   8.519  0.3450  1.1717  0.0607
 3841TIP3    H235719   1.604   0.624   8.529 -0.9605  0.5616  1.9873
 3842TIP3   OH235720   4.858   5.994   7.897 -0.3224 -0.0854  0.5067
 3842TIP3    H135721   4.825   6.029   7.814 -1.2418 -2.3643 -0.1783
 3842TIP3    H235722   4.952   5.989   7.886 -0.2331  1.4232  0.3783
 3843TIP3   OH235723   4.575   7.080   9.540 -0.3749 -0.4791  0.1436
 3843TIP3    H135724   4.609   7.141   9.475 -2.6333  1.3923  0.5743
 3843TIP3    H235725   4.546   7.135   9.612 -2.2225 -2.0489  0.7040
 3844TIP3   OH235726   2.839   6.721   6.715  0.2012  0.5124  0.0165
 3844TIP3    H135727   2.926   6.708   6.753 -0.0014 -1.3066 -0.0510
 3844TIP3    H235728   2.843   6.676   6.630 -0.5118  1.2624 -0.4290
 3845TIP3   OH235729   0.923   0.160   8.925  0.5574 -0.0264  0.0808
 3845TIP3    H135730   0.925   0.102   8.849 -1.7001 -2.4889  1.7102
 3845TIP3    H235731   0.848   0.217   8.910  0.2623 -0.3459  0.3223
 3846TIP3   OH235732   5.163   6.063   7.183 -0.3406  0.4335  0.4340
 3846TIP3    H135733   5.200   6.007   7.252 -0.6329  1.2289  1.2536
 3846TIP3    H235734   5.203   6.148   7.197 -1.3382  0.9178  0.3944
 3847TIP3   OH235735   4.272   0.196   8.705  0.5402  0.0529 -0.2636
 3847TIP3    H135736   4.257   0.136   8.777 -0.5427  0.9033  0.2550
 3847TIP3    H235737   4.362   0.226   8.716  0.2487  0.5080  1.0102
 3848TIP3   OH235738   0.581   6.587   8.953 -0.1627  0.1935 -0.0582
 3848TIP3    H135739   0.632   6.563   8.875  1.0468  0.7630  0.5404
 3848TIP3    H235740   0.637   6.646   9.001 -1.2866  0.6023  0.7922
 3849TIP3   OH235741   5.420   1.505   8.421  0.3635  0.3302  0.0215
 3849TIP3    H135742   5.500   1.494   8.473  0.8208  2.5097 -0.0865
 3849TIP3    H235743   5.364   1.560   8.476 -0.7653 -0.5604 -0.2169
 3850TIP3   OH235744   3.256   0.998   7.580 -0.1002 -0.4571 -0.1729
 3850TIP3    H135745   3.335   1.046   7.556 -0.2087  0.1545  0.6353
 3850TIP3    H235746   3.253   0.924   7.520  1.2281 -0.6447 -0.0344
 3851TIP3   OH235747   5.478   2.267   7.178 -0.5049 -0.1995 -0.6182
 3851TIP3    H135748   5.495   2.333   7.112 -1.0364 -1.1994 -1.7911
 3851TIP3    H235749   5.520   2.188   7.144 -1.9036 -1.0622 -0.4182
 3852TIP3   OH235750   0.223   4.703   8.394  0.1600 -0.4084 -0.0343
 3852TIP3    H135751   0.216   4.691   8.300  0.3669  1.8791 -0.3809
 3852TIP3    H235752   0.250   4.617   8.427  1.0520 -0.9966 -2.1591
 3853TIP3   OH235753   1.705   1.064   8.323  0.0074  0.0907  0.3347
 3853TIP3    H135754   1.680   1.096   8.409  0.3682 -0.2428  0.5676
 3853TIP3    H235755   1.731   1.142   8.275  0.2577  0.2204  0.6794
 3854TIP3   OH235756   6.899   0.347   7.592  0.9530 -0.6890 -0.3091
 3854TIP3    H135757   6.892   0.256   7.564  1.4025 -0.3641 -1.5287
 3854TIP3    H235758   6.939   0.393   7.518 -1.1534  0.9037 -0.5588
 3855TIP3   OH235759   2.809   4.672   8.615 -0.1217 -0.0195  0.0663
 3855TIP3    H135760   2.838   4.736   8.679 -0.6177  0.2362  0.0362
 3855TIP3    H235761   2.761   4.723   8.550 -0.6302 -0.4329  0.1108
 3856TIP3   OH235762   5.844   0.474   8.158  0.1140 -0.2871 -0.1838
 3856TIP3    H135763   5.752   0.452   8.172 -0.4319  2.1828  0.5070
 3856TIP3    H235764   5.874   0.409   8.094 -2.3380 -0.6147 -1.1264
 3857TIP3   OH235765   4.425   0.388   8.039  0.4858  0.3809 -0.9374
 3857TIP3    H135766   4.447   0.417   7.951 -2.3659  0.0265 -1.8597
 3857TIP3    H235767   4.404   0.295   8.029 -0.8386  0.5660 -0.1074
 3858TIP3   OH235768   4.413   2.287   9.549 -0.3205  0.0659  0.4826
 3858TIP3    H135769   4.478   2.349   9.581 -0.1066 -0.0509  0.2717
 3858TIP3    H235770   4.351   2.341   9.499 -0.2104  0.1285  0.4139
 3859TIP3   OH235771   4.721   5.390   7.854  0.2225 -0.0176 -0.3991
 3859TIP3    H135772   4.787   5.343   7.803 -0.3416 -0.4330 -0.7517
 3859TIP3    H235773   4.685   5.455   7.793  2.8506  2.7813  0.7921
 3860TIP3   OH235774   3.300   5.352   7.759  0.2093  0.2111  0.5737
 3860TIP3    H135775   3.265   5.278   7.808  1.0577 -0.9426 -0.5159
 3860TIP3    H235776   3.273   5.429   7.810 -1.2159 -0.7886  1.3968
 3861TIP3   OH235777   6.204   2.826   8.394  0.2203  0.0788 -0.0210
 3861TIP3    H135778   6.260   2.845   8.319  0.3810 -1.2603 -0.2639
 3861TIP3    H235779   6.181   2.912   8.429  1.2456  0.6865 -0.7819
 3862TIP3   OH235780   2.069   0.490   8.287 -0.3649  0.1656  0.2031
 3862TIP3    H135781   2.091   0.568   8.236  0.2620  0.1818  0.4781
 3862TIP3    H235782   2.021   0.524   8.363 -0.5769  0.2291  0.0377
 3863TIP3   OH235783   2.080   3.375   7.917 -0.1744  0.0621 -0.2022
 3863TIP3    H135784   2.129   3.438   7.863  3.6077 -0.4031  2.3138
 3863TIP3    H235785   2.046   3.427   7.990 -1.1431 -0.0969 -0.5233
 3864TIP3   OH235786   7.130   1.311   9.165  0.3443  0.3675 -0.0604
 3864TIP3    H135787   7.199   1.377   9.163  0.9235 -0.1930  0.6294
 3864TIP3    H235788   7.053   1.357   9.201  1.2481  0.2520  2.1795
 3865TIP3   OH235789   3.274   5.699   8.696 -0.7089  0.2409  0.6071
 3865TIP3    H135790   3.299   5.785   8.731  0.4700 -0.3319  1.2259
 3865TIP3    H235791   3.347   5.673   8.640 -0.2479 -1.0977  1.7765
 3866TIP3   OH235792   1.863   4.234   8.306 -0.0906 -0.4138 -0.0734
 3866TIP3    H135793   1.806   4.202   8.375 -0.5910 -1.6839 -1.0301
 3866TIP3    H235794   1.844   4.328   8.300  0.9212  0.0293  2.3393
 3867TIP3   OH235795   7.608   2.735   7.366 -0.5863 -0.4737  0.5139
 3867TIP3    H135796   7.618   2.796   7.440  0.1370 -1.9068  1.6603
 3867TIP3    H235797   7.686   2.679   7.371 -0.0014  0.0106 -1.9746
 3868TIP3   OH235798   1.166   4.211   6.650 -0.3564 -0.2104 -0.2095
 3868TIP3    H135799   1.161   4.275   6.720  0.1054  0.7306 -1.0066
 3868TIP3    H235800   1.251   4.228   6.608 -1.1861  0.1552 -1.8269
 3869TIP3   OH235801   4.968   5.302   8.176  0.3801  0.1792 -0.9710
 3869TIP3    H135802   4.900   5.366   8.196  1.7807  1.5982 -0.6121
 3869TIP3    H235803   4.920   5.219   8.166 -1.2195  0.7507  1.0945
 3870TIP3   OH235804   1.123   2.460   8.194  0.1934 -0.1141 -0.1265
 3870TIP3    H135805   1.183   2.518   8.146  0.9697 -2.2893 -1.9695
 3870TIP3    H235806   1.164   2.448   8.280  0.3345  1.5287  0.0593
 3871TIP3   OH235807   5.531   5.877   8.733 -0.3826  0.1911  0.9784
 3871TIP3    H135808   5.447   5.849   8.697 -0.0869 -0.9107  1.1259
 3871TIP3    H235809   5.517   5.877   8.828 -0.5615  1.1799  0.9698
 3872TIP3   OH235810   0.320   2.779   8.613  0.2620 -0.0942 -0.2967
 3872TIP3    H135811   0.323   2.698   8.664 -0.0313  0.0226 -0.0872
 3872TIP3    H235812   0.382   2.765   8.541 -0.7032 -0.9870 -0.9818
 3873TIP3   OH235813   5.991   4.049   8.176  0.1304 -0.5804 -0.2160
 3873TIP3    H135814   6.062   3.989   8.198  1.2408 -0.1309 -2.2986
 3873TIP3    H235815   6.004   4.069   8.083 -1.6667  0.9450 -0.2085
 3874TIP3   OH235816   0.005   3.381   7.369 -0.3531  0.1727  0.2071
 3874TIP3    H135817   0.019   3.461   7.420  0.1937  0.1950  0.0330
 3874TIP3    H235818   0.063   3.316   7.409  0.3889  0.3008 -0.6142
 3875TIP3   OH235819   2.166   4.800   6.570 -0.5006  0.7802 -0.3863
 3875TIP3    H135820   2.223   4.770   6.499  1.5405  2.0784  0.6118
 3875TIP3    H235821   2.127   4.882   6.537 -1.1301  0.3585 -0.7222
 3876TIP3   OH235822   1.986   6.427   9.370  0.4106 -0.4308 -0.0043
 3876TIP3    H135823   1.975   6.489   9.442  1.7403 -1.1325  0.8324
 3876TIP3    H235824   2.080   6.425   9.353  0.3368 -1.7947 -0.3936
 3877TIP3   OH235825   3.396   0.213   9.294  0.2939 -0.4266 -0.0535
 3877TIP3    H135826   3.402   0.130   9.247  0.0524  0.1736 -1.1936
 3877TIP3    H235827   3.303   0.235   9.292  0.0916 -0.9793  1.8132
 3878TIP3   OH235828   7.652   3.201   8.518  0.0569 -0.3661  0.5169
 3878TIP3    H135829   7.630   3.282   8.472 -1.1012 -1.3548 -0.7572
 3878TIP3    H235830   7.597   3.202   8.596 -1.1585 -0.6744 -0.3227
 3879TIP3   OH235831   3.869   0.975   7.123  0.4763 -0.1979 -0.2095
 3879TIP3    H135832   3.820   1.024   7.058 -0.7108  0.5570  1.2047
 3879TIP3    H235833   3.950   0.950   7.078  0.0280  0.9345 -1.7179
 3880TIP3   OH235834   3.081   3.778   7.647 -0.2333 -0.2822  0.5086
 3880TIP3    H135835   3.167   3.815   7.667  0.4193 -1.0459 -0.7070
 3880TIP3    H235836   3.035   3.847   7.599 -0.0117 -0.1212  0.5308
 3881TIP3   OH235837   5.393   6.286   8.098 -0.0557  0.0022 -0.1384
 3881TIP3    H135838   5.473   6.289   8.045 -0.0670 -0.3595 -0.1795
 3881TIP3    H235839   5.373   6.192   8.106 -0.2524  0.0715  0.2053
 3882TIP3   OH235840   6.054   3.303   7.865 -0.7364  0.9350 -0.0661
 3882TIP3    H135841   5.996   3.346   7.803 -0.7935  0.1280 -0.5897
 3882TIP3    H235842   6.095   3.232   7.815 -1.1507 -0.0430  0.9330
 3883TIP3   OH235843   3.476   0.547   8.261 -0.4369  0.5021  0.3785
 3883TIP3    H135844   3.535   0.483   8.302  0.1856  1.1582  0.5290
 3883TIP3    H235845   3.511   0.559   8.173  0.3854  1.7646  0.8441
 3884TIP3   OH235846   0.110   6.164   6.594 -0.5288 -0.3091  0.0050
 3884TIP3    H135847   0.185   6.160   6.535 -0.1685 -0.3560  0.4597
 3884TIP3    H235848   0.102   6.075   6.628 -0.0668 -0.0430  0.8407
 3885TIP3   OH235849   4.813   7.304   7.903  0.0708  0.5272  0.0755
 3885TIP3    H135850   4.760   7.235   7.945 -0.3213  0.7212 -0.0924
 3885TIP3    H235851   4.888   7.257   7.867  0.1171  0.2731  0.4928
 3886TIP3   OH235852   4.203   5.310   8.004  0.0062 -0.0956 -0.1405
 3886TIP3    H135853   4.235   5.363   8.077 -1.4143 -0.2026  0.5923
 3886TIP3    H235854   4.165   5.374   7.943  1.2550  0.0007 -0.8437
 3887TIP3   OH235855   3.089   5.843   9.145 -0.4161  0.2013  0.1349
 3887TIP3    H135856   3.063   5.871   9.233 -2.3197  1.2326 -0.6969
 3887TIP3    H235857   3.030   5.890   9.086 -0.1352 -1.5322 -1.6421
 3888TIP3   OH235858   2.229   3.931   6.873  0.6460  0.3546 -0.0204
 3888TIP3    H135859   2.238   4.009   6.818  1.2841  1.1169  1.1306
 3888TIP3    H235860   2.217   3.860   6.811  0.2476  1.3327 -1.1127
 3889TIP3   OH235861   3.394   2.091   7.503  0.3878  0.0391  0.0062
 3889TIP3    H135862   3.428   2.006   7.531  3.5387  1.1922  0.0527
 3889TIP3    H235863   3.346   2.124   7.579 -0.9380 -1.6584 -0.0371
 3890TIP3   OH235864   0.466   5.116   8.123 -0.5898  0.4115  0.6280
 3890TIP3    H135865   0.485   5.194   8.176  2.7848 -1.1537  2.0557
 3890TIP3    H235866   0.438   5.050   8.186  0.8397 -0.7085  0.1633
 3891TIP3   OH235867   7.278   4.358   7.720  0.0326 -0.2400  0.0212
 3891TIP3    H135868   7.257   4.343   7.628 -0.2109 -0.8188  0.1661
 3891TIP3    H235869   7.325   4.279   7.747 -0.2754 -0.2631  0.5056
 3892TIP3   OH235870   1.954   5.466   6.990 -0.1437  0.3047 -0.8027
 3892TIP3    H135871   1.860   5.484   6.998 -0.2923 -1.0991  1.2037
 3892TIP3    H235872   1.958   5.390   6.932 -0.5869 -1.8750  1.8557
 3893TIP3   OH235873   3.162   4.816   8.695 -0.3543  0.3357  0.0743
 3893TIP3    H135874   3.156   4.872   8.772  2.7112  1.0558 -0.0985
 3893TIP3    H235875   3.213   4.740   8.723  0.9309  0.6677 -1.1999
 3894TIP3   OH235876   0.323   3.350   9.180  0.0080  0.1798  0.1370
 3894TIP3    H135877   0.384   3.337   9.252  0.8709 -0.9333 -0.7612
 3894TIP3    H235878   0.268   3.271   9.180  0.0441  0.1465 -0.4293
 3895TIP3   OH235879   5.316   2.652   9.348 -0.4438 -0.6905  0.8257
 3895TIP3    H135880   5.249   2.659   9.280 -0.8216  0.1116  1.2784
 3895TIP3    H235881   5.269   2.626   9.427 -0.3201  0.4429  1.2881
 3896TIP3   OH235882   3.789   1.083   9.504  0.2979 -0.5294 -0.0701
 3896TIP3    H135883   3.875   1.044   9.489  0.3788  0.0435 -1.2638
 3896TIP3    H235884   3.781   1.089   9.599  0.6904 -2.5040  0.1165
 3897TIP3   OH235885   0.906   5.081   8.761 -0.3993 -0.4452 -0.2094
 3897TIP3    H135886   0.957   5.011   8.803 -0.9099 -0.6978  0.0012
 3897TIP3    H235887   0.965   5.156   8.759 -0.2206 -0.5553  0.5829
 3898TIP3   OH235888   5.185   1.664   7.379 -0.0113  0.4371 -0.3038
 3898TIP3    H135889   5.240   1.635   7.306 -0.4272 -1.4434  0.0897
 3898TIP3    H235890   5.208   1.605   7.451 -0.4760  1.4988  0.7374
 3899TIP3   OH235891   3.918   3.260   9.663  0.2389  0.0128 -0.1430
 3899TIP3    H135892   3.844   3.205   9.639  0.7268 -0.1919 -1.2674
 3899TIP3    H235893   3.994   3.202   9.657  0.5471  0.3297  0.5456
 3900TIP3   OH235894   6.795   0.571   7.739 -0.1974 -0.3453  0.2946
 3900TIP3    H135895   6.796   0.482   7.704 -1.1754 -0.2500 -0.0026
 3900TIP3    H235896   6.798   0.560   7.834 -0.2533 -0.6972  0.2561
 3901TIP3   OH235897   2.526   6.096   6.721 -0.8189 -0.0030 -0.3340
 3901TIP3    H135898   2.580   6.017   6.727 -0.2759  0.2360 -1.7625
 3901TIP3    H235899   2.576   6.155   6.665 -2.4988  0.2806 -1.5951
 3902TIP3   OH235900   1.285   4.360   7.391 -0.4037  0.4828  1.5286
 3902TIP3    H135901   1.344   4.426   7.356  1.2979 -0.7770  1.8987
 3902TIP3    H235902   1.206   4.368   7.338  0.5958  1.3072  0.0963
 3903TIP3   OH235903   3.413   6.063   6.909 -0.4986 -0.2316 -0.1683
 3903TIP3    H135904   3.349   6.060   6.838  0.4443 -0.3388 -1.0274
 3903TIP3    H235905   3.369   6.021   6.983 -1.4221 -0.2850 -0.7345
 3904TIP3   OH235906   6.518   5.841   8.023  0.3015 -0.0647 -0.2846
 3904TIP3    H135907   6.475   5.917   8.063  0.8815 -0.0009  0.2385
 3904TIP3    H235908   6.546   5.788   8.097  2.6142  0.7242 -0.4962
 3905TIP3   OH235909   3.566   6.542   8.716 -0.1264 -0.6953 -0.4803
 3905TIP3    H135910   3.603   6.456   8.736  2.8166  0.2142 -1.5725
 3905TIP3    H235911   3.532   6.535   8.627  0.3727 -0.6792 -0.6760
 3906TIP3   OH235912   3.696   4.056   7.201  0.1262 -0.5810  0.3853
 3906TIP3    H135913   3.737   4.099   7.276  2.0375  1.3909 -1.5999
 3906TIP3    H235914   3.710   3.963   7.216  2.0630 -0.1644  1.6640
 3907TIP3   OH235915   2.657   4.662   7.798 -0.0902  0.5646 -0.1223
 3907TIP3    H135916   2.585   4.664   7.860  1.9603 -0.4565  2.4643
 3907TIP3    H235917   2.682   4.754   7.787  1.7822  0.6954  3.6108
 3908TIP3   OH235918   5.628   1.040   8.627 -0.3782 -0.1219 -0.4793
 3908TIP3    H135919   5.551   0.998   8.664  0.1407 -1.2207 -0.6056
 3908TIP3    H235920   5.660   1.098   8.696 -0.6665 -0.5093 -0.0206
 3909TIP3   OH235921   3.428   4.068   7.222 -0.2016 -0.5158  0.1834
 3909TIP3    H135922   3.438   4.161   7.205 -0.5252 -0.4739  0.2185
 3909TIP3    H235923   3.513   4.030   7.200  0.0033 -0.1797  0.3971
 3910TIP3   OH235924   4.055   5.701   8.499  0.0578  0.0695 -0.0388
 3910TIP3    H135925   4.035   5.752   8.421  0.9809 -0.3566 -0.5731
 3910TIP3    H235926   3.975   5.649   8.515 -0.2798  0.4602 -0.4541
 3911TIP3   OH235927   7.043   5.348   7.087  0.6438  0.0940  0.4740
 3911TIP3    H135928   7.056   5.439   7.060 -0.7093 -0.0387 -0.7463
 3911TIP3    H235929   7.060   5.297   7.008  1.3165 -0.7222  1.1301
 3912TIP3   OH235930   2.256   7.510   6.942 -0.1026  0.0204  0.5702
 3912TIP3    H135931   2.225   7.465   7.020 -3.0361  1.0705  0.1187
 3912TIP3    H235932   2.230   7.453   6.869 -0.6090  0.7088  0.1974
 3913TIP3   OH235933   5.047   2.476   8.919  0.5855  0.2715 -0.7947
 3913TIP3    H135934   5.002   2.549   8.964  0.3575  0.2079 -0.9210
 3913TIP3    H235935   5.109   2.519   8.860  0.2459  0.3697 -1.0829
 3914TIP3   OH235936   5.597   5.909   7.065  0.0260 -0.1435 -0.1088
 3914TIP3    H135937   5.558   5.965   6.998 -1.3297 -0.6585  0.2041
 3914TIP3    H235938   5.619   5.828   7.019  2.1094  0.6279 -0.5907
 3915TIP3   OH235939   4.058   4.890   8.946 -0.0938 -0.2395  0.1091
 3915TIP3    H135940   4.080   4.977   8.980  1.7176 -0.6626  0.1423
 3915TIP3    H235941   4.029   4.841   9.023 -1.7415  0.4726 -0.0094
 3916TIP3   OH235942   7.072   0.600   7.217  0.5418 -0.2437 -0.1592
 3916TIP3    H135943   7.064   0.682   7.266 -1.4817 -0.0446 -0.7403
 3916TIP3    H235944   7.112   0.627   7.134  0.3808  0.0794 -0.1367
 3917TIP3   OH235945   4.467   6.955   8.082 -0.0539 -0.3489 -0.0219
 3917TIP3    H135946   4.476   6.900   8.160  0.1093 -1.3013 -0.6858
 3917TIP3    H235947   4.437   6.894   8.014  1.4071  0.0869 -1.1192
 3918TIP3   OH235948   6.320   4.525   8.009  0.1493 -0.2599 -0.0681
 3918TIP3    H135949   6.260   4.553   7.940 -0.2406 -0.5998  0.1281
 3918TIP3    H235950   6.294   4.435   8.028  0.6465 -0.3708  0.1018
 3919TIP3   OH235951   0.068   5.360   7.353 -0.1701 -0.3777  0.2899
 3919TIP3    H135952   0.082   5.321   7.266  1.6061 -0.0255  0.3756
 3919TIP3    H235953   0.125   5.437   7.354  1.1853 -1.3076  2.3404
 3920TIP3   OH235954   1.353   3.157   7.695  0.4070  1.0790  0.1395
 3920TIP3    H135955   1.376   3.065   7.704 -0.5053  0.7184 -0.9212
 3920TIP3    H235956   1.431   3.197   7.656 -1.0241 -0.4961 -5.2430
 3921TIP3   OH235957   4.888   2.947   7.899 -0.6884 -0.5394  0.0009
 3921TIP3    H135958   4.804   2.901   7.896 -0.2960 -1.5788  2.6327
 3921TIP3    H235959   4.953   2.879   7.917  0.4434  0.5223  0.0720
 3922TIP3   OH235960   5.849   4.076   9.123 -0.2624  0.5550 -0.1681
 3922TIP3    H135961   5.759   4.065   9.155 -0.2099 -1.3088 -0.5249
 3922TIP3    H235962   5.882   3.987   9.115  1.8721  1.2299  0.6027
 3923TIP3   OH235963   3.604   4.544   7.971 -0.8086  0.5483 -0.2700
 3923TIP3    H135964   3.547   4.521   8.045 -1.2564  0.9630 -0.4720
 3923TIP3    H235965   3.691   4.517   7.998 -1.2239 -0.9353 -0.3147
 3924TIP3   OH235966   3.069   5.516   8.700 -0.4990 -0.3361  0.5351
 3924TIP3    H135967   3.048   5.510   8.793  0.9405 -2.4212  0.8064
 3924TIP3    H235968   3.139   5.581   8.695 -0.1245 -0.6932  1.0179
 3925TIP3   OH235969   6.221   0.027   6.856  0.0505 -0.3521 -1.0297
 3925TIP3    H135970   6.146  -0.027   6.832 -0.1205 -0.6125  0.0202
 3925TIP3    H235971   6.252   0.064   6.773 -1.1337 -0.3623 -1.4988
 3926TIP3   OH235972   4.498   4.304   8.305  0.1505 -0.2121  0.4165
 3926TIP3    H135973   4.460   4.351   8.231  0.6885 -1.0736 -0.4366
 3926TIP3    H235974   4.579   4.265   8.270 -0.3585 -1.9052  0.9993
 3927TIP3   OH235975   5.050   5.688   7.952  0.0434  0.2533  0.1429
 3927TIP3    H135976   5.006   5.684   8.037  0.2628 -2.1422  0.1974
 3927TIP3    H235977   4.987   5.650   7.891  2.0237 -3.7155  0.3011
 3928TIP3   OH235978   5.626   3.427   7.582 -0.3199 -0.2030  0.2895
 3928TIP3    H135979   5.557   3.419   7.648  0.3781 -0.8631  0.9578
 3928TIP3    H235980   5.626   3.344   7.536 -0.6167  0.1560 -0.3696
 3929TIP3   OH235981   0.983   0.459   9.114  0.5553 -0.0916 -0.1441
 3929TIP3    H135982   0.894   0.485   9.090  1.0561  2.8425  0.7440
 3929TIP3    H235983   0.974   0.422   9.202  0.1827  0.2322 -0.0415
 3930TIP3   OH235984   2.573   6.774   8.399 -0.0179 -0.3158  0.3047
 3930TIP3    H135985   2.599   6.728   8.479 -1.0530 -1.5141 -0.0053
 3930TIP3    H235986   2.538   6.704   8.343 -0.7039  0.7318 -0.5961
 3931TIP3   OH235987   6.367   2.598   8.030 -0.4369  0.0357  0.3910
 3931TIP3    H135988   6.302   2.647   7.979  1.2196  2.4517  0.4020
 3931TIP3    H235989   6.379   2.516   7.982 -0.2331  1.4627 -2.2058
 3932TIP3   OH235990   3.854   1.259   7.906  0.3478 -0.3660 -0.0111
 3932TIP3    H135991   3.871   1.185   7.964 -2.3263 -0.2934  0.9901
 3932TIP3    H235992   3.893   1.334   7.952  1.2564 -0.8071 -0.0275
 3933TIP3   OH235993   0.132   3.910   7.583 -0.2836  0.0929  0.3529
 3933TIP3    H135994   0.085   3.990   7.608  1.7776  1.2964  0.5964
 3933TIP3    H235995   0.156   3.870   7.667  1.3281  0.8934  0.3209
 3934TIP3   OH235996   3.645   3.178   8.328  0.5523 -0.2099 -0.3613
 3934TIP3    H135997   3.622   3.250   8.270  3.3770 -0.2565 -1.7149
 3934TIP3    H235998   3.704   3.124   8.276  2.5624 -0.7257  2.2649
 3935TIP3   OH235999   7.103   2.551   8.207 -0.1091 -0.1259 -0.1977
 3935TIP3    H136000   7.056   2.470   8.187  0.3344 -0.4611  0.1017
 3935TIP3    H236001   7.129   2.585   8.121 -2.4907  1.0575 -0.5359
 3936TIP3   OH236002   3.613   0.316   7.086  0.2027  0.0522  1.1513
 3936TIP3    H136003   3.534   0.268   7.060  1.2167 -0.5929 -0.9714
 3936TIP3    H236004   3.603   0.402   7.046  1.1076 -0.4530 -0.2244
 3937TIP3   OH236005   0.971   7.327   8.968  0.5562 -0.0248  0.0394
 3937TIP3    H136006   1.000   7.255   9.023  1.4580  2.0324  2.4689
 3937TIP3    H236007   0.931   7.389   9.029 -1.0178  1.1543 -2.0645
 3938TIP3   OH236008   0.033   0.990   7.699  0.4586 -0.4419  0.2659
 3938TIP3    H136009   0.091   0.996   7.623  0.8395  0.4244  0.6033
 3938TIP3    H236010  -0.054   1.011   7.665  0.2486 -2.1473 -0.3239
 3939TIP3   OH236011   7.121   5.961   6.729  0.2130  0.3441 -0.0425
 3939TIP3    H136012   7.051   6.014   6.691 -0.1048 -0.4016 -0.5174
 3939TIP3    H236013   7.078   5.907   6.795  0.4813  0.4662  0.2340
 3940TIP3   OH236014   6.256   5.776   8.751  0.2396  0.2475 -0.1798
 3940TIP3    H136015   6.172   5.820   8.754  0.3390  0.4164  0.2078
 3940TIP3    H236016   6.301   5.815   8.676  0.7169  1.5271  0.7370
 3941TIP3   OH236017   1.633   2.473   8.857 -0.3824  0.2790 -0.0534
 3941TIP3    H136018   1.562   2.521   8.900  0.1925  0.5867  0.5804
 3941TIP3    H236019   1.593   2.435   8.779 -0.7209  2.3465 -0.9564
 3942TIP3   OH236020   3.085   4.871   8.423  0.1634 -0.4228 -0.2110
 3942TIP3    H136021   3.091   4.831   8.509  1.0444 -0.9058 -0.4855
 3942TIP3    H236022   3.160   4.836   8.375  0.0923  0.4006 -0.9402
 3943TIP3   OH236023   5.054   4.033   8.250 -0.0894 -0.0642  0.0874
 3943TIP3    H136024   5.089   4.121   8.258 -0.3675 -0.0484  1.2488
 3943TIP3    H236025   5.126   3.982   8.212  0.7598  0.2510  1.2208
 3944TIP3   OH236026   5.465   3.092   7.803 -0.1012  0.1362  0.8564
 3944TIP3    H136027   5.449   3.157   7.871 -1.1101  1.2290 -0.3676
 3944TIP3    H236028   5.388   3.097   7.746  0.1626 -1.5904  0.2927
 3945TIP3   OH236029   4.433   0.808   7.716  0.4863  0.6354 -0.1415
 3945TIP3    H136030   4.354   0.845   7.677 -0.5741 -1.1181  0.2295
 3945TIP3    H236031   4.413   0.803   7.810  0.9719  0.0433 -0.0608
 3946TIP3   OH236032   2.529   5.046   7.573 -0.0725 -0.0842 -0.2853
 3946TIP3    H136033   2.563   5.002   7.651  2.3132 -0.7622 -1.6064
 3946TIP3    H236034   2.528   4.978   7.505 -0.0292  0.9882 -1.3970
 3947TIP3   OH236035   5.643   4.797   6.484 -0.2049 -0.0929  0.1927
 3947TIP3    H136036   5.655   4.708   6.517 -3.4704 -0.7315 -0.0179
 3947TIP3    H236037   5.712   4.848   6.527  3.6957 -3.0729 -1.8494
 3948TIP3   OH236038   6.101   0.335   7.811  0.2003  0.4454  0.5062
 3948TIP3    H136039   6.035   0.277   7.850  0.6956  0.8414  2.0228
 3948TIP3    H236040   6.058   0.421   7.807  0.3948  0.5645  0.8948
 3949TIP3   OH236041   5.208   4.825   8.478 -0.0838  0.1357 -0.2565
 3949TIP3    H136042   5.146   4.877   8.530 -0.3633 -0.2372 -0.2121
 3949TIP3    H236043   5.152   4.773   8.420  0.2421  0.8771 -1.2504
 3950TIP3   OH236044   0.780   5.647   6.697 -0.0724 -0.3573  0.8358
 3950TIP3    H136045   0.839   5.577   6.667 -0.2972  0.6450 -2.3885
 3950TIP3    H236046   0.692   5.612   6.680 -0.1832  0.9309 -1.8133
 3951TIP3   OH236047   6.780   5.232   7.812 -0.6696 -0.1066  0.2386
 3951TIP3    H136048   6.762   5.203   7.901  0.1069  1.1387  0.8261
 3951TIP3    H236049   6.820   5.156   7.769  2.2745  0.2952  2.0162
 3952TIP3   OH236050   6.977   4.831   7.253  0.3254  0.5783 -0.1081
 3952TIP3    H136051   6.891   4.857   7.220  0.2744  1.0167  0.3533
 3952TIP3    H236052   7.029   4.817   7.175 -0.1997  0.1980 -0.3938
 3953TIP3   OH236053   6.527   0.320   8.952  0.0514 -0.0721 -0.6015
 3953TIP3    H136054   6.560   0.360   9.032  0.2939 -1.1476 -0.1493
 3953TIP3    H236055   6.598   0.264   8.922 -0.9985 -1.7681 -0.0825
 3954TIP3   OH236056   0.206   1.164   6.561 -0.4323 -0.3145  0.0044
 3954TIP3    H136057   0.140   1.230   6.541 -0.3872 -0.5856 -1.1378
 3954TIP3    H236058   0.289   1.211   6.559 -0.4747 -0.2361  0.0840
 3955TIP3   OH236059   2.996   3.691   7.958 -0.6048  0.6650 -0.0325
 3955TIP3    H136060   2.986   3.780   7.923  0.9272  0.8831  0.0302
 3955TIP3    H236061   3.050   3.646   7.894 -0.8423 -0.0445  0.2589
 3956TIP3   OH236062   0.978   2.860   6.324  0.3307  0.5439 -0.0139
 3956TIP3    H136063   0.982   2.765   6.338  0.6737  0.3227 -1.4966
 3956TIP3    H236064   0.892   2.876   6.287  0.4552  0.7559 -0.2131
 3957TIP3   OH236065   3.520   6.022   8.801  0.0834  0.0967 -0.4083
 3957TIP3    H136066   3.502   6.066   8.883 -0.8717 -0.4591 -0.3058
 3957TIP3    H236067   3.528   6.093   8.736  2.5173  0.6678  0.4039
 3958TIP3   OH236068   2.656   6.835   7.148 -0.5475 -0.3425 -0.2261
 3958TIP3    H136069   2.575   6.786   7.159 -0.2523 -0.7081  0.4059
 3958TIP3    H236070   2.699   6.830   7.234  0.1855 -0.2394 -0.5778
 3959TIP3   OH236071   3.381   1.125   7.868  1.0263  0.0851  0.2671
 3959TIP3    H136072   3.333   1.051   7.831  1.1550 -0.5732  1.3802
 3959TIP3    H236073   3.386   1.106   7.962  0.9179  1.5810  0.6009
 3960TIP3   OH236074   4.080   4.381   7.104  0.7663 -0.4127  0.2646
 3960TIP3    H136075   4.029   4.405   7.026  0.8708  1.0057  0.6219
 3960TIP3    H236076   4.127   4.460   7.128  0.1072 -0.5732  2.2745
 3961TIP3   OH236077   3.054   6.250   8.519 -0.2290  0.6835 -0.3498
 3961TIP3    H136078   3.129   6.197   8.549 -0.2498  1.0825  0.4330
 3961TIP3    H236079   2.978   6.209   8.561 -0.2918  1.0989 -0.0636
 3962TIP3   OH236080   0.264   4.134   8.551 -0.6087  0.2183 -0.3578
 3962TIP3    H136081   0.249   4.046   8.585 -1.4603  0.6088  0.3011
 3962TIP3    H236082   0.273   4.188   8.629  0.5124  0.6342 -0.7521
 3963TIP3   OH236083   1.175   7.333   8.484 -0.3402 -0.1269  0.1918
 3963TIP3    H136084   1.123   7.304   8.559 -0.8398  0.4797  0.0917
 3963TIP3    H236085   1.116   7.390   8.435  0.6175  1.1475  0.4517
 3964TIP3   OH236086   0.231   7.361   8.940 -1.0551 -0.0146 -0.0451
 3964TIP3    H136087   0.317   7.367   8.982 -0.1639 -0.1469 -1.7501
 3964TIP3    H236088   0.222   7.269   8.915 -1.5809  0.0464 -0.0951
 3965TIP3   OH236089   0.657   2.462   6.545  0.1238 -0.0563  0.6020
 3965TIP3    H136090   0.565   2.484   6.528 -0.0074 -0.0926  1.2403
 3965TIP3    H236091   0.706   2.508   6.476 -0.3288  0.4089  0.5855
 3966TIP3   OH236092   1.392   3.238   8.707  0.6591 -0.0547 -0.0872
 3966TIP3    H136093   1.330   3.174   8.671  0.4618  0.6860 -1.0935
 3966TIP3    H236094   1.343   3.283   8.775  0.1871  0.2840 -0.6399
 3967TIP3   OH236095   0.127   7.029   8.571  0.0709  0.4024  0.1182
 3967TIP3    H136096   0.122   6.940   8.535  0.5821 -0.4432  2.0095
 3967TIP3    H236097   0.062   7.030   8.641  2.3652  0.3104  2.4198
 3968TIP3   OH236098   1.386   2.610   8.884 -0.3865 -0.4566  0.0237
 3968TIP3    H136099   1.298   2.586   8.915  0.0676 -1.6184  0.4753
 3968TIP3    H236100   1.395   2.702   8.907 -1.1474 -0.5631  0.8133
 3969TIP3   OH236101   5.508   1.662   7.637 -0.0100 -0.3131 -0.1298
 3969TIP3    H136102   5.592   1.699   7.611  0.6245 -0.3676  1.7247
 3969TIP3    H236103   5.523   1.626   7.724 -1.1674 -3.0681 -0.9497
 3970TIP3   OH236104   6.053   5.814   9.337 -0.3307 -0.1189  0.5229
 3970TIP3    H136105   5.969   5.813   9.382 -0.3533 -0.9909  0.4915
 3970TIP3    H236106   6.034   5.783   9.249 -0.1757  0.9242  0.1125
 3971TIP3   OH236107   2.448   2.765   9.312 -0.2544 -0.5827  0.0186
 3971TIP3    H136108   2.485   2.816   9.384 -0.8951 -1.2748  0.8565
 3971TIP3    H236109   2.466   2.818   9.234 -0.3129  0.6020  0.7807
 3972TIP3   OH236110   3.719   0.937   8.264  0.4110  0.0555  0.0136
 3972TIP3    H136111   3.702   1.016   8.213  1.0720  0.8547  0.9961
 3972TIP3    H236112   3.814   0.935   8.275  0.4804 -1.2925 -0.6304
 3973TIP3   OH236113   6.407   4.181   8.308  0.3397  0.2288  0.2362
 3973TIP3    H136114   6.399   4.103   8.253  1.1593 -0.8156  1.5165
 3973TIP3    H236115   6.342   4.242   8.273 -2.4117 -2.0744  0.9278
 3974TIP3   OH236116   7.060   6.715   9.184  0.4457  0.8353  0.0255
 3974TIP3    H136117   7.041   6.804   9.213  0.9371  0.5537  1.2999
 3974TIP3    H236118   6.991   6.662   9.223  1.0912  0.4556  0.6929
 3975TIP3   OH236119   7.092   5.563   6.909 -0.2039  0.4772  0.1602
 3975TIP3    H136120   7.062   5.650   6.882 -2.1418 -0.4088 -0.7028
 3975TIP3    H236121   7.113   5.519   6.827  2.7754  0.7306  0.6715
 3976TIP3   OH236122   1.976   3.021   8.996 -0.1858  0.5401 -0.6370
 3976TIP3    H136123   1.924   2.948   8.964 -2.7807  2.3124 -0.8077
 3976TIP3    H236124   1.915   3.095   8.997  1.4894  2.0747  2.2040
 3977TIP3   OH236125   5.541   2.713   8.373 -0.2441 -0.4239  0.3234
 3977TIP3    H136126   5.565   2.725   8.281  0.8825 -0.6635  0.5830
 3977TIP3    H236127   5.445   2.703   8.371 -0.6650  2.7611 -0.4805
 3978TIP3   OH236128   2.526   4.455   7.079  0.2658 -0.1976  0.2687
 3978TIP3    H136129   2.537   4.438   7.172  1.5460 -1.5882 -0.0864
 3978TIP3    H236130   2.451   4.402   7.053  1.7640 -2.3206 -0.0274
 3979TIP3   OH236131   2.602   4.033   6.743  0.3875 -0.0624  0.1947
 3979TIP3    H136132   2.617   3.996   6.830 -1.6119 -1.1966  0.1124
 3979TIP3    H236133   2.646   3.972   6.683 -1.1333 -1.2298  0.2106
 3980TIP3   OH236134   0.095   2.102   9.719  0.6365  0.0405  0.2111
 3980TIP3    H136135   0.172   2.102   9.775  0.5365 -1.0421  0.3652
 3980TIP3    H236136   0.063   2.012   9.721 -1.8801  0.8795  1.8239
 3981TIP3   OH236137   4.050   0.372   7.162 -0.4859  0.0275  0.4984
 3981TIP3    H136138   4.143   0.398   7.163  0.0893 -1.9105  0.4987
 3981TIP3    H236139   4.051   0.280   7.187 -2.4188 -0.0880  0.2462
 3982TIP3   OH236140   0.564   0.113   9.522 -0.0692  0.5094  0.5502
 3982TIP3    H136141   0.536   0.121   9.431  1.5352  0.9888  0.0659
 3982TIP3    H236142   0.594   0.201   9.546  0.7882  0.0860  1.0851
 3983TIP3   OH236143   0.788   1.278   7.249 -0.2473 -0.0915  0.4773
 3983TIP3    H136144   0.725   1.295   7.179 -1.4381 -0.9840  1.2926
 3983TIP3    H236145   0.735   1.269   7.328  0.9790 -0.1211  1.3394
 3984TIP3   OH236146   1.168   0.296   7.927 -0.2485 -0.0371  0.1043
 3984TIP3    H136147   1.094   0.264   7.875 -1.4941  3.0512 -0.2375
 3984TIP3    H236148   1.236   0.231   7.914 -2.0449 -1.7177 -1.6675
 3985TIP3   OH236149   0.340   4.006   6.763 -0.2587 -0.4908  0.1147
 3985TIP3    H136150   0.269   4.071   6.759 -0.6191 -0.8475  0.5443
 3985TIP3    H236151   0.419   4.058   6.774 -0.7385 -0.1849  2.5317
 3986TIP3   OH236152   5.398   2.928   8.767  0.1691  0.0304 -0.1678
 3986TIP3    H136153   5.360   3.015   8.755  2.0755  0.7211 -1.6202
 3986TIP3    H236154   5.467   2.940   8.831  0.1516 -0.5080 -0.0414
 3987TIP3   OH236155   3.859   4.650   7.842 -0.3099  0.3359  0.0105
 3987TIP3    H136156   3.774   4.683   7.870 -0.4516  1.0286 -1.1424
 3987TIP3    H236157   3.850   4.554   7.842 -0.5991  0.3559  1.3070
 3988TIP3   OH236158   2.956   2.509   9.458  0.0773  0.4270 -0.5914
 3988TIP3    H136159   2.892   2.465   9.402  0.9472 -0.9320 -0.5653
 3988TIP3    H236160   2.928   2.490   9.547  2.0878 -2.8558 -0.4768
 3989TIP3   OH236161   2.122   2.810   8.518  0.3475 -0.1141  0.3836
 3989TIP3    H136162   2.101   2.866   8.592  0.9043  0.0287  0.4351
 3989TIP3    H236163   2.212   2.782   8.533  0.9491  0.9989 -0.8961
 3990TIP3   OH236164   2.545   5.713   9.168  0.1764 -0.6302 -0.3140
 3990TIP3    H136165   2.570   5.743   9.256 -1.1686 -1.2032  0.2885
 3990TIP3    H236166   2.464   5.759   9.149 -0.0597 -1.2566 -0.8457
 3991TIP3   OH236167   5.493   6.818   7.840 -0.4341 -0.0636  0.3291
 3991TIP3    H136168   5.549   6.760   7.789 -0.0888  2.4003 -2.3410
 3991TIP3    H236169   5.407   6.809   7.799 -0.4373  1.0636  0.0692
 3992TIP3   OH236170   5.610   5.218   8.462 -0.3146 -0.1106  0.0659
 3992TIP3    H136171   5.699   5.183   8.468  0.2352  1.4195  2.2433
 3992TIP3    H236172   5.610   5.271   8.383  0.3670 -0.9986 -0.5480
 3993TIP3   OH236173   5.956   4.877   9.145 -0.2544  0.1629 -0.2577
 3993TIP3    H136174   5.864   4.902   9.142 -0.3889 -0.1381  0.8949
 3993TIP3    H236175   5.957   4.792   9.189  0.7094  0.9619  1.3489
 3994TIP3   OH236176   0.633   2.776   6.435 -0.5331  0.2405  0.4942
 3994TIP3    H136177   0.665   2.799   6.348  0.3835 -0.5190  0.6104
 3994TIP3    H236178   0.558   2.834   6.449 -0.6722  0.4013 -0.7742
 3995TIP3   OH236179   2.158   4.898   8.040  0.0889  0.3634  0.2418
 3995TIP3    H136180   2.167   4.915   8.134 -0.1645  0.2888  0.2807
 3995TIP3    H236181   2.229   4.837   8.020 -0.6280 -0.6420  0.6574
 3996TIP3   OH236182   1.210   6.081   8.468  0.2952  0.2307  0.5367
 3996TIP3    H136183   1.185   6.083   8.376  0.0857  0.5530  0.5988
 3996TIP3    H236184   1.210   6.173   8.494  1.6597  0.2610  0.5066
 3997TIP3   OH236185   1.569   2.910   6.725 -0.1916  0.2277  0.2760
 3997TIP3    H136186   1.615   2.962   6.791 -0.6468  0.3530  0.5058
 3997TIP3    H236187   1.503   2.970   6.690 -0.6016 -0.1327  0.4154
 3998TIP3   OH236188   2.765   4.425   9.015 -0.0870  0.3087 -0.5441
 3998TIP3    H136189   2.855   4.458   9.020  0.2446 -0.5169 -0.8915
 3998TIP3    H236190   2.717   4.497   8.974  0.7192  0.1915 -1.7493
 3999TIP3   OH236191   7.471   2.967   7.277  0.1602  0.1006 -0.1884
 3999TIP3    H136192   7.413   2.995   7.348 -0.8314 -1.3035 -0.4009
 3999TIP3    H236193   7.498   2.878   7.301  1.1319  0.2126 -0.7839
 4000TIP3   OH236194   5.894   7.225   8.545 -0.1503 -0.1177  0.0772
 4000TIP3    H136195   5.924   7.180   8.466  0.7474 -0.7193  0.7363
 4000TIP3    H236196   5.955   7.298   8.556 -0.3801  0.0673  0.1163
 4001TIP3   OH236197   1.399   3.953   9.237  0.5044  0.7719  1.1197
 4001TIP3    H136198   1.446   3.872   9.215 -0.3113  0.6946 -0.4695
 4001TIP3    H236199   1.453   3.993   9.306  1.8818 -0.2347  0.6881
 4002TIP3   OH236200   1.353   0.080   7.894  0.3770  0.4030  0.4787
 4002TIP3    H136201   1.312  -0.002   7.867  0.6608  0.2915  0.3867
 4002TIP3    H236202   1.387   0.117   7.813 -0.6606  1.1288  0.3498
 4003TIP3   OH236203   4.614   0.918   7.534 -0.1998 -0.0711 -0.6494
 4003TIP3    H136204   4.604   0.887   7.444 -0.7685  0.9037 -0.9450
 4003TIP3    H236205   4.548   0.869   7.583  1.0349 -1.6341 -0.4551
 4004TIP3   OH236206   1.281   2.652   9.329 -0.1327  0.8165  0.4525
 4004TIP3    H136207   1.301   2.582   9.391  1.2795  1.2150  0.4882
 4004TIP3    H236208   1.253   2.725   9.383 -2.1391  0.1506  0.3835
 4005TIP3   OH236209   7.035   5.531   8.342 -0.4476 -0.3861 -0.7593
 4005TIP3    H136210   6.964   5.549   8.403  0.0823 -0.8571  0.0045
 4005TIP3    H236211   7.010   5.449   8.300  0.7860 -1.9312  1.3184
 4006TIP3   OH236212   6.013   5.406   8.000 -0.1806  0.0858 -0.6545
 4006TIP3    H136213   5.965   5.333   8.039 -0.6662  1.3144  1.1611
 4006TIP3    H236214   6.105   5.390   8.024 -0.6271  1.6339  2.5986
 4007TIP3   OH236215   5.851   4.149   7.748 -0.6711  0.2856 -0.0490
 4007TIP3    H136216   5.802   4.159   7.667  0.1465  1.0389 -0.4596
 4007TIP3    H236217   5.803   4.083   7.797 -0.9045 -0.5305 -1.3437
 4008TIP3   OH236218   3.111   3.520   7.752 -0.2078  0.2333 -0.1335
 4008TIP3    H136219   3.202   3.544   7.770 -0.0155  0.4165 -1.2918
 4008TIP3    H236220   3.076   3.594   7.704 -0.8250 -0.0527 -0.1304
 4009TIP3   OH236221   2.413   3.440   8.882 -0.4149  0.2979 -0.2016
 4009TIP3    H136222   2.325   3.431   8.918  0.6761 -0.4206  2.4770
 4009TIP3    H236223   2.428   3.535   8.879 -1.0066  0.4040  0.0396
 4010TIP3   OH236224   3.552   2.439   9.405 -0.4457  0.4124  0.4184
 4010TIP3    H136225   3.522   2.525   9.435  0.1482  0.4627  0.8897
 4010TIP3    H236226   3.483   2.409   9.347 -1.2984  0.6299  1.2939
 4011TIP3   OH236227   0.571   3.404   8.781 -0.3117  0.0719 -0.4446
 4011TIP3    H136228   0.570   3.308   8.783 -1.7813  0.0491  2.3420
 4011TIP3    H236229   0.596   3.430   8.870 -0.3411  2.2870 -1.0210
 4012TIP3   OH236230   7.444   5.804   8.616  0.2560  0.5368 -0.2125
 4012TIP3    H136231   7.397   5.887   8.624  0.4885  0.4783  3.0816
 4012TIP3    H236232   7.382   5.745   8.572 -1.7845  1.2074  1.6152
 4013TIP3   OH236233   6.932   3.319   9.244 -0.0030  0.0097  0.3612
 4013TIP3    H136234   6.957   3.263   9.317 -1.1525 -0.7705  0.1803
 4013TIP3    H236235   6.848   3.356   9.270 -0.3752 -0.1964 -0.5064
 4014TIP3   OH236236   7.475   7.278   7.991 -0.1018  0.1901 -0.3769
 4014TIP3    H136237   7.459   7.193   8.033 -0.8087  0.4950  0.0060
 4014TIP3    H236238   7.449   7.342   8.057 -0.4081  0.6935 -0.9733
 4015TIP3   OH236239   1.852   7.377   7.548  0.4633 -0.0469  0.2860
 4015TIP3    H136240   1.947   7.367   7.548  0.4803 -0.0782 -1.1497
 4015TIP3    H236241   1.834   7.427   7.628  1.8469  1.2760 -0.1581
 4016TIP3   OH236242   7.226   4.636   7.815 -0.0610 -0.4155 -0.3388
 4016TIP3    H136243   7.261   4.547   7.820 -2.3838 -1.3469  1.4746
 4016TIP3    H236244   7.205   4.649   7.723  1.4861 -1.2272 -0.8381
 4017TIP3   OH236245   2.891   6.569   8.244  0.3757  0.3275 -0.3128
 4017TIP3    H136246   2.934   6.639   8.292  0.3967 -0.9215  1.6330
 4017TIP3    H236247   2.962   6.519   8.204  0.4835  0.4096 -0.2232
 4018TIP3   OH236248   4.873   2.268   8.969  0.0118 -0.1027 -0.0390
 4018TIP3    H136249   4.790   2.316   8.980  0.9180  2.0158 -1.6363
 4018TIP3    H236250   4.940   2.337   8.966  1.4244 -1.4429 -2.3768
 4019TIP3   OH236251   1.376   5.721   8.959  0.2984  0.0916  0.6502
 4019TIP3    H136252   1.403   5.813   8.967  2.1699 -0.3160 -0.3790
 4019TIP3    H236253   1.422   5.689   8.881 -1.1089 -1.4644  0.3987
 4020TIP3   OH236254   6.987   3.316   8.585  0.1017 -0.0757  0.6155
 4020TIP3    H136255   7.036   3.236   8.600  0.5368  0.6635  3.9036
 4020TIP3    H236256   6.896   3.287   8.578  0.5799 -1.1738 -2.7649
 4021TIP3   OH236257   7.002   5.227   8.701 -0.3562  0.2386 -0.5854
 4021TIP3    H136258   7.001   5.156   8.765  2.3163 -0.8073 -1.5168
 4021TIP3    H236259   6.945   5.196   8.631  0.1774 -0.6891 -0.6334
 4022TIP3   OH236260   1.994   4.282   9.005  0.0821  0.2979 -0.2165
 4022TIP3    H136261   2.036   4.196   8.996 -0.4246  0.0976 -0.7419
 4022TIP3    H236262   2.064   4.345   8.985  0.0121 -0.0496 -1.7049
 4023TIP3   OH236263   6.500   5.467   8.178  0.3447  0.4375  0.3913
 4023TIP3    H136264   6.514   5.556   8.209  0.1092  0.4689  0.4082
 4023TIP3    H236265   6.579   5.446   8.128 -0.7981  1.7233 -2.1479
 4024TIP3   OH236266   7.346   6.057   9.424  0.1052 -0.0822  0.1103
 4024TIP3    H136267   7.298   6.016   9.496 -0.7183  1.6369  0.5960
 4024TIP3    H236268   7.339   5.994   9.352  0.8741 -1.8073  1.4530
 4025TIP3   OH236269   1.139   1.525   9.516  0.0467  0.3639 -0.6749
 4025TIP3    H136270   1.132   1.431   9.506  1.8642  0.2357 -1.2412
 4025TIP3    H236271   1.128   1.541   9.610 -1.0735 -0.3070 -0.6860
 4026TIP3   OH236272   4.962   3.893   7.959  0.6263  0.3834 -0.4473
 4026TIP3    H136273   4.894   3.958   7.979  0.1766 -0.1740 -0.1559
 4026TIP3    H236274   5.044   3.940   7.974  0.3887  1.7140 -2.7320
 4027TIP3   OH236275   0.610   7.536   6.958  0.3545 -0.0682  0.4724
 4027TIP3    H136276   0.634   7.578   6.876 -3.7680  0.3369 -0.7748
 4027TIP3    H236277   0.541   7.474   6.935  0.0903 -1.0808  3.4596
 4028TIP3   OH236278   6.110   4.924   7.675  0.3611 -0.0463 -0.3461
 4028TIP3    H136279   6.123   4.859   7.607  3.0380 -0.0344  0.0622
 4028TIP3    H236280   6.028   4.968   7.651 -0.6530 -2.4027 -1.5169
 4029TIP3   OH236281   6.516   1.343   9.226  0.4157  0.3331  0.3516
 4029TIP3    H136282   6.433   1.306   9.257  0.2394  0.8973  0.5540
 4029TIP3    H236283   6.532   1.419   9.283  0.4699  0.9289 -0.4490
 4030TIP3   OH236284   5.928   7.041   8.317 -0.5903 -0.1967 -0.6128
 4030TIP3    H136285   5.896   6.975   8.378 -0.7912 -1.5075 -2.0500
 4030TIP3    H236286   5.849   7.074   8.273 -0.2915 -1.1072 -1.9025
 4031TIP3   OH236287   7.284   6.957   8.928  0.2597  0.3254 -0.4156
 4031TIP3    H136288   7.275   6.862   8.943 -1.3517  0.7146  1.5447
 4031TIP3    H236289   7.348   6.985   8.992  1.2524  0.5090 -1.4542
 4032TIP3   OH236290   1.817   1.425   6.972  0.5275 -0.3393 -0.3554
 4032TIP3    H136291   1.812   1.441   7.066 -0.4499 -1.9399 -0.1025
 4032TIP3    H236292   1.908   1.399   6.957  0.0350 -3.0428  0.7316
 4033TIP3   OH236293   3.498   7.024   7.120 -0.3026  0.6146 -0.3627
 4033TIP3    H136294   3.414   7.022   7.166  0.1373 -2.0841  0.5212
 4033TIP3    H236295   3.522   7.116   7.118 -2.6485  1.3284  0.5146
 4034TIP3   OH236296   0.542   1.419   7.699  0.0735 -0.6657  0.1736
 4034TIP3    H136297   0.592   1.367   7.762  1.6501  0.6347  0.0810
 4034TIP3    H236298   0.536   1.506   7.739  0.3664 -0.0442 -1.0800
 4035TIP3   OH236299   3.321   3.590   8.977 -0.0623  0.2176  0.1827
 4035TIP3    H136300   3.263   3.664   8.958 -3.3033 -1.8350  1.1637
 4035TIP3    H236301   3.267   3.513   8.960  2.2022 -1.8878  1.8427
 4036TIP3   OH236302   4.585   7.392   9.154 -0.6115  0.0570 -0.1512
 4036TIP3    H136303   4.623   7.367   9.239  1.5089 -1.1987 -1.3928
 4036TIP3    H236304   4.641   7.463   9.123 -1.0640  0.1546 -0.7552
 4037TIP3   OH236305   0.671   6.003   9.273  0.0263 -0.4171 -0.0633
 4037TIP3    H136306   0.726   6.032   9.201 -0.4918 -1.5390 -0.9429
 4037TIP3    H236307   0.627   5.925   9.240 -1.0583 -0.3317  1.0863
 4038TIP3   OH236308   3.781   0.127   7.163 -0.1848 -0.0887 -0.0821
 4038TIP3    H136309   3.721   0.087   7.226 -0.3011  0.2963  0.0548
 4038TIP3    H236310   3.730   0.196   7.121  0.3612  0.6927  0.5145
 4039TIP3   OH236311   0.355   4.321   8.775  0.7640 -0.5866 -0.1483
 4039TIP3    H136312   0.438   4.367   8.788  0.5296 -0.5874  1.6044
 4039TIP3    H236313   0.323   4.304   8.863 -2.7751  2.3835 -0.6032
 4040TIP3   OH236314   1.267   3.241   9.378 -0.1699 -0.1572  0.1783
 4040TIP3    H136315   1.249   3.296   9.301 -0.9797 -0.1312  0.3821
 4040TIP3    H236316   1.225   3.286   9.450 -1.7232 -1.5497  0.1830
 4041TIP3   OH236317   1.810   4.943   7.491 -0.2708  0.4431  0.3835
 4041TIP3    H136318   1.890   4.986   7.460 -0.9525  2.6507  1.4581
 4041TIP3    H236319   1.796   4.980   7.578 -2.1434 -0.3559  0.4604
 4042TIP3   OH236320   0.971   1.273   7.053 -0.2828  0.1139  0.7140
 4042TIP3    H136321   0.929   1.274   7.140  0.4566  0.3350  1.0693
 4042TIP3    H236322   0.900   1.296   6.993 -0.3074  2.2142  1.4690
 4043TIP3   OH236323   0.928   1.297   8.634 -0.3007  0.0580 -0.6463
 4043TIP3    H136324   1.004   1.315   8.690 -1.1406  1.5281  0.0966
 4043TIP3    H236325   0.858   1.277   8.696 -1.1163  1.1857 -1.1680
 4044TIP3   OH236326   6.951   7.399   9.203 -0.2598 -0.2341 -0.2848
 4044TIP3    H136327   6.903   7.359   9.130 -1.9923  0.5742  0.3540
 4044TIP3    H236328   6.937   7.493   9.192  0.3752 -0.0384  0.4904
 4045TIP3   OH236329   3.842   3.992   7.442  0.2615  0.3986  0.5658
 4045TIP3    H136330   3.786   3.947   7.505 -0.6079  2.0667  1.0403
 4045TIP3    H236331   3.931   3.983   7.477  0.3127 -2.0404 -0.0490
 4046TIP3   OH236332   2.292   6.648   7.697  0.4548 -0.0901  0.1637
 4046TIP3    H136333   2.198   6.630   7.704  0.8832 -1.7872  2.3580
 4046TIP3    H236334   2.308   6.655   7.603 -1.6912 -0.7226 -0.2956
 4047TIP3   OH236335   3.498   5.225   7.594  0.5286  0.0592  0.1229
 4047TIP3    H136336   3.430   5.251   7.657 -1.0479 -0.8217 -1.1348
 4047TIP3    H236337   3.451   5.217   7.511  2.2048 -0.5955 -0.8035
 4048TIP3   OH236338   3.215   5.952   8.058  0.2573 -0.1895 -0.3389
 4048TIP3    H136339   3.260   5.984   7.979 -0.1783 -0.7432 -0.8211
 4048TIP3    H236340   3.203   5.859   8.042  0.9653 -0.4935  0.7835
 4049TIP3   OH236341   7.458   4.831   7.953  0.1575  0.1954 -0.4500
 4049TIP3    H136342   7.379   4.830   8.007  0.2280 -1.0004 -0.3396
 4049TIP3    H236343   7.426   4.847   7.864 -0.2053 -0.0964 -0.3775
 4050TIP3   OH236344   2.462   6.224   8.119  0.1163  0.4955  0.1015
 4050TIP3    H136345   2.485   6.317   8.126 -0.8768  1.2159 -3.9433
 4050TIP3    H236346   2.389   6.213   8.180  0.3337  2.3173  0.7708
 4051TIP3   OH236347   0.056   3.913   7.087  0.5868 -0.6494  0.2533
 4051TIP3    H136348   0.026   3.924   6.997 -0.3708  2.0100  0.8024
 4051TIP3    H236349   0.133   3.968   7.095  0.2017 -0.2115  1.2296
 4052TIP3   OH236350   0.114   1.862   7.742  0.5721 -0.4641  0.2548
 4052TIP3    H136351   0.020   1.857   7.757  0.3857  0.8240 -0.3109
 4052TIP3    H236352   0.123   1.924   7.669  1.7975 -1.3605 -0.3999
 4053TIP3   OH236353   4.188   5.945   8.556 -0.4707  0.3346 -0.2856
 4053TIP3    H136354   4.155   5.880   8.618  1.1862 -0.7618 -0.4937
 4053TIP3    H236355   4.279   5.959   8.582  0.1526  0.1443 -2.2027
 4054TIP3   OH236356   3.323   0.263   8.222  0.1077  0.0723  0.1118
 4054TIP3    H136357   3.329   0.357   8.240  0.5611  0.0766 -0.0433
 4054TIP3    H236358   3.288   0.226   8.303 -0.9593  0.4785 -0.1403
 4055TIP3   OH236359   3.146   6.689   9.055 -0.1443  0.0934  0.1203
 4055TIP3    H136360   3.135   6.778   9.090 -2.0839 -0.7362  1.8351
 4055TIP3    H236361   3.092   6.689   8.975  1.4785  0.9818 -1.0309
 4056TIP3   OH236362   3.141   6.798   8.748 -0.3890 -0.1203 -0.4309
 4056TIP3    H136363   3.220   6.805   8.802 -1.1362 -1.5688  0.9367
 4056TIP3    H236364   3.162   6.732   8.683 -0.1634  0.1838 -0.6700
 4057TIP3   OH236365   1.821   6.248   6.658  0.4296 -0.5191  0.1067
 4057TIP3    H136366   1.734   6.239   6.697  0.6050  1.5276  1.1241
 4057TIP3    H236367   1.807   6.301   6.579  0.7572 -0.0882  0.3343
 4058TIP3   OH236368   1.961   1.921   9.161 -0.5169  0.6830  0.3329
 4058TIP3    H136369   2.026   1.979   9.200  0.2880 -0.7177  1.1547
 4058TIP3    H236370   1.904   1.897   9.234  0.6628 -1.5067  0.6049
 4059TIP3   OH236371   1.265   3.805   6.988 -0.1988  0.6397 -0.6061
 4059TIP3    H136372   1.192   3.743   6.988  0.7871 -0.5869 -2.1555
 4059TIP3    H236373   1.247   3.864   6.915 -0.0174  0.8094 -0.5147
 4060TIP3   OH236374   1.533   5.576   6.722 -0.1346  0.1282  0.2315
 4060TIP3    H136375   1.493   5.663   6.724 -0.7052 -0.1312  2.4027
 4060TIP3    H236376   1.460   5.516   6.707  0.2009 -0.0327 -0.8547
 4061TIP3   OH236377   4.011   5.831   7.721  0.0453 -0.1275 -0.0442
 4061TIP3    H136378   4.079   5.828   7.788 -0.7710  0.3795  0.8182
 4061TIP3    H236379   3.993   5.924   7.709 -1.2086 -0.2852  0.4759
 4062TIP3   OH236380   4.019   6.796   8.614 -0.0623  0.3066 -0.0340
 4062TIP3    H136381   3.995   6.807   8.522 -1.9340  1.3683  0.5313
 4062TIP3    H236382   4.114   6.809   8.616  0.0953 -0.2509 -1.8623
 4063TIP3   OH236383   1.734   6.670   7.781  0.1871  0.0215 -0.0256
 4063TIP3    H136384   1.662   6.607   7.781  1.4380 -1.4862  0.0815
 4063TIP3    H236385   1.693   6.754   7.801 -1.3958 -0.9606  1.0828
 4064TIP3   OH236386   3.145   4.936   7.132  0.3118 -0.3152  0.7146
 4064TIP3    H136387   3.170   4.854   7.177  0.8134 -1.1960 -1.0787
 4064TIP3    H236388   3.147   4.914   7.039 -3.2794  0.6932  0.2445
 4065TIP3   OH236389   2.381   1.393   8.328 -0.1551  0.5327 -0.0230
 4065TIP3    H136390   2.420   1.328   8.269 -1.3448  0.8901 -1.2442
 4065TIP3    H236391   2.371   1.471   8.273 -2.6509  0.4279  0.1946
 4066TIP3   OH236392   6.791   3.747   9.152  0.5106 -0.1790 -0.1367
 4066TIP3    H136393   6.780   3.689   9.227  0.3329 -0.3743 -0.3112
 4066TIP3    H236394   6.742   3.826   9.175  0.7730 -0.0906  0.1110
 4067TIP3   OH236395   1.821   1.260   7.708  0.0163  0.0573 -0.5198
 4067TIP3    H136396   1.875   1.212   7.771 -3.1114 -1.6615  1.0570
 4067TIP3    H236397   1.831   1.210   7.626  1.2967  0.1946 -0.4782
 4068TIP3   OH236398   0.662   7.484   7.994 -0.1824  0.1484  0.1333
 4068TIP3    H136399   0.652   7.544   7.920  0.2597 -0.7690 -0.6942
 4068TIP3    H236400   0.756   7.465   7.997  0.1527  1.7352  2.2206
 4069TIP3   OH236401   4.672   3.508   7.493  0.0220 -0.1536  0.3806
 4069TIP3    H136402   4.748   3.502   7.550  0.5164  1.5451 -0.0363
 4069TIP3    H236403   4.655   3.602   7.485 -1.1193 -0.4272 -0.8313
 4070TIP3   OH236404   1.594   6.755   9.191  0.5478 -0.3319 -0.2329
 4070TIP3    H136405   1.545   6.787   9.268  0.8597  0.8404 -0.4976
 4070TIP3    H236406   1.664   6.820   9.179  0.1751 -0.1982 -1.8377
 4071TIP3   OH236407   0.468   5.014   8.561  0.3661  0.3693 -0.0585
 4071TIP3    H136408   0.429   4.947   8.618 -0.4796  0.7417 -0.1933
 4071TIP3    H236409   0.411   5.090   8.571  1.2721  1.0549  0.0274
 4072TIP3   OH236410   0.159   5.491   7.102 -0.5696  0.5409  0.1117
 4072TIP3    H136411   0.105   5.412   7.091  1.5637 -0.8330 -1.3839
 4072TIP3    H236412   0.099   5.563   7.086 -2.3348 -0.8052  0.2740
 4073TIP3   OH236413   5.361   7.013   6.778  0.4226  0.1209  0.1493
 4073TIP3    H136414   5.374   7.082   6.843  1.4653  0.8921 -0.8277
 4073TIP3    H236415   5.303   7.053   6.713  3.1422  1.1627 -1.8300
 4074TIP3   OH236416   4.698   3.344   7.075 -0.1011 -0.1990  0.6948
 4074TIP3    H136417   4.631   3.344   7.144 -1.8087 -1.4306 -0.8674
 4074TIP3    H236418   4.652   3.371   6.996  1.1514 -1.4130 -0.5124
 4075TIP3   OH236419   0.408   2.461   8.225  0.1421 -0.3424  0.1474
 4075TIP3    H136420   0.399   2.385   8.168  0.2274 -0.0879 -0.2048
 4075TIP3    H236421   0.318   2.484   8.249 -0.0709  0.8618 -1.6172
 4076TIP3   OH236422   1.716   6.344   7.855  0.1767  0.0620  0.1731
 4076TIP3    H136423   1.644   6.392   7.895  1.6058  0.3622  2.5779
 4076TIP3    H236424   1.734   6.272   7.915  0.9747 -0.8531 -1.1038
 4077TIP3   OH236425   6.058   5.631   7.287  0.4999  0.5498 -0.0820
 4077TIP3    H136426   6.106   5.608   7.207 -0.6587 -0.4118 -0.5390
 4077TIP3    H236427   5.969   5.600   7.271 -0.1043  1.6067  1.0365
 4078TIP3   OH236428   0.182   3.101   9.162  0.1646  0.0144  0.5654
 4078TIP3    H136429   0.211   3.058   9.081  1.3822  1.4059  0.2166
 4078TIP3    H236430   0.092   3.129   9.144 -0.4988 -1.9315  0.6455
 4079TIP3   OH236431   4.481   6.494   8.020  0.4337  0.2529 -0.0434
 4079TIP3    H136432   4.391   6.525   8.032 -0.8457 -2.0057 -2.6898
 4079TIP3    H236433   4.530   6.572   7.995 -1.5756  1.0573 -1.7860
 4080TIP3   OH236434   1.374   3.458   7.074 -0.1395  0.5244  0.2097
 4080TIP3    H136435   1.306   3.405   7.117  0.9386  0.0730  1.4481
 4080TIP3    H236436   1.416   3.397   7.014 -2.5788  1.5168 -2.7437
 4081TIP3   OH236437   5.907   4.327   7.195  0.0323 -0.4419  0.1761
 4081TIP3    H136438   5.947   4.405   7.233  0.6063  0.0902 -1.4461
 4081TIP3    H236439   5.817   4.329   7.227 -0.1077  1.1656 -0.2286
 4082TIP3   OH236440   4.071   1.808   7.468  0.3603 -0.2478  0.2205
 4082TIP3    H136441   4.018   1.843   7.540  4.4338  1.5128  2.7463
 4082TIP3    H236442   4.069   1.877   7.401 -0.7717 -0.3943  0.0816
 4083TIP3   OH236443   6.686   1.828   8.836  0.3098  0.3076  0.4889
 4083TIP3    H136444   6.678   1.810   8.742 -0.9845 -0.5092  0.7311
 4083TIP3    H236445   6.730   1.750   8.871  0.5436  0.4919  0.6103
 4084TIP3   OH236446   5.249   5.384   7.321 -0.4226 -0.4806  0.1866
 4084TIP3    H136447   5.186   5.324   7.282  0.1333 -0.9455 -0.0130
 4084TIP3    H236448   5.248   5.363   7.415 -0.1969 -0.8453  0.1122
 4085TIP3   OH236449   7.291   2.430   8.351 -0.3194 -0.2283 -0.0764
 4085TIP3    H136450   7.291   2.352   8.296  1.4091  0.1517 -0.6924
 4085TIP3    H236451   7.238   2.494   8.303 -1.7489 -1.0063  0.4380
 4086TIP3   OH236452   0.105   3.796   7.335  0.6340 -0.2643 -0.2905
 4086TIP3    H136453   0.073   3.852   7.264  0.6440 -0.0293 -0.1088
 4086TIP3    H236454   0.120   3.856   7.408 -2.4142 -0.8476  0.9905
 4087TIP3   OH236455   3.778   6.024   7.885 -0.2754 -0.4299  0.0133
 4087TIP3    H136456   3.752   6.023   7.793 -1.2769  0.5143  0.2652
 4087TIP3    H236457   3.699   6.050   7.932  0.3995 -0.2471  1.0756
 4088TIP3   OH236458   0.684   2.353   8.213 -0.1040  0.4953  0.4940
 4088TIP3    H136459   0.680   2.379   8.305 -0.8191  0.4594  0.4798
 4088TIP3    H236460   0.611   2.399   8.172  0.5482  0.9532 -0.1746
 4089TIP3   OH236461   5.297   6.898   9.002 -0.1222  0.2356  0.0872
 4089TIP3    H136462   5.223   6.841   9.018  0.3569 -0.0931  1.2275
 4089TIP3    H236463   5.352   6.850   8.939  1.0535 -1.3356  2.1775
 4090TIP3   OH236464   0.127   6.254   6.854 -0.3621  0.3716 -0.5767
 4090TIP3    H136465   0.196   6.318   6.841  0.4158 -0.0906  1.0014
 4090TIP3    H236466   0.103   6.226   6.765  2.3480 -0.3546 -1.1712
 4091TIP3   OH236467   3.696   1.409   7.081  0.1325 -0.6713 -0.0971
 4091TIP3    H136468   3.626   1.354   7.046  1.6513 -3.1192  0.4621
 4091TIP3    H236469   3.740   1.445   7.004 -0.6458 -0.5273 -0.4848
 4092TIP3   OH236470   4.684   7.661   7.394  0.6075 -0.0602  0.5076
 4092TIP3    H136471   4.745   7.640   7.323  0.8088 -1.3226  1.0374
 4092TIP3    H236472   4.740   7.679   7.469  0.3539 -0.1682  0.7235
 4093TIP3   OH236473   3.247   3.941   7.412 -0.0219  0.4151 -1.0873
 4093TIP3    H136474   3.264   3.853   7.445  0.5947  1.3900  1.3858
 4093TIP3    H236475   3.304   3.949   7.335  0.2224 -1.1886 -1.0904
 4094TIP3   OH236476   0.369   7.050   7.472  0.0638  0.0082  0.0537
 4094TIP3    H136477   0.400   6.979   7.528 -1.0526  0.1711  0.9178
 4094TIP3    H236478   0.414   7.037   7.389 -0.7341 -2.2412 -0.1071
 4095TIP3   OH236479   1.426   4.089   6.883 -0.0769 -0.4472 -0.4501
 4095TIP3    H136480   1.481   4.161   6.852 -0.2114 -0.1696 -0.0553
 4095TIP3    H236481   1.416   4.032   6.807  0.6432 -0.4300 -0.5653
 4096TIP3   OH236482   2.239   0.581   8.565  0.1496 -0.2451  0.1644
 4096TIP3    H136483   2.208   0.672   8.572 -0.1276 -0.4537  2.0003
 4096TIP3    H236484   2.328   0.588   8.530  0.1738  0.7328  0.4070
 4097TIP3   OH236485   2.100   3.608   6.863  0.5454  0.6964 -0.4343
 4097TIP3    H136486   2.156   3.591   6.787  1.9817  0.1813  0.6936
 4097TIP3    H236487   2.103   3.527   6.914  0.6925  1.4522  0.8193
 4098TIP3   OH236488   3.550   2.630   7.748  0.4287 -0.2766  0.2475
 4098TIP3    H136489   3.567   2.711   7.699 -0.7716 -0.1008  0.0764
 4098TIP3    H236490   3.546   2.562   7.682 -0.0326 -0.2245  0.2138
 4099TIP3   OH236491   7.091   0.421   6.890  0.0655 -0.0304  0.1366
 4099TIP3    H136492   7.006   0.412   6.933  0.3221 -2.0629  0.2988
 4099TIP3    H236493   7.128   0.501   6.926 -1.8220  0.9894 -0.0539
 4100TIP3   OH236494   2.914   4.421   8.699 -0.5347 -0.6991  0.5813
 4100TIP3    H136495   2.856   4.490   8.666  1.4640  0.9847  0.3901
 4100TIP3    H236496   2.929   4.445   8.790 -1.1537 -1.8751  1.0072
 4101TIP3   OH236497   3.233   1.692   8.803  0.1004  0.2100  0.2061
 4101TIP3    H136498   3.244   1.598   8.808 -0.6926  0.0219 -1.1644
 4101TIP3    H236499   3.151   1.705   8.757 -0.2379  1.5835  1.1092
 4102TIP3   OH236500   7.288   7.225   6.588  0.1104 -0.0582 -0.1329
 4102TIP3    H136501   7.327   7.153   6.539 -2.0535  0.0652 -2.1885
 4102TIP3    H236502   7.261   7.186   6.671  1.1745 -0.9743 -0.1844
 4103TIP3   OH236503   7.073   5.688   7.668 -0.2851 -0.1719 -0.0513
 4103TIP3    H136504   7.105   5.662   7.754 -0.9657 -1.3290 -0.1319
 4103TIP3    H236505   6.978   5.692   7.677 -0.2651  1.9560 -0.1622
 4104TIP3   OH236506   0.566   0.305   8.571  0.3106 -0.0731  0.1615
 4104TIP3    H136507   0.503   0.357   8.521 -3.6776 -2.8942  1.7520
 4104TIP3    H236508   0.578   0.225   8.520  0.1080 -0.8712  1.3093
 4105TIP3   OH236509   1.492   4.900   6.775  0.4412  0.1597 -0.4163
 4105TIP3    H136510   1.495   4.993   6.797  2.2855  0.4201 -1.5305
 4105TIP3    H236511   1.508   4.897   6.681 -4.0640 -1.0619 -1.4003
 4106TIP3   OH236512   3.024   1.971   8.654  0.7199 -0.2391  0.2566
 4106TIP3    H136513   2.972   2.046   8.626 -0.4030 -0.8911  0.5451
 4106TIP3    H236514   3.070   2.002   8.732  0.9908  0.4264 -0.1537
 4107TIP3   OH236515   7.475   6.682   8.471  0.0781  0.7289  0.8806
 4107TIP3    H136516   7.530   6.759   8.456  2.8563 -1.4141 -0.8532
 4107TIP3    H236517   7.496   6.623   8.399 -2.6296 -1.3210  1.6236
 4108TIP3   OH236518   3.607   3.342   7.191  0.7929 -0.2463  0.2933
 4108TIP3    H136519   3.513   3.329   7.181  0.3571  2.1148  0.7680
 4108TIP3    H236520   3.637   3.264   7.237 -1.3669 -0.0432  2.2334
 4109TIP3   OH236521   3.508   6.864   8.113 -0.1710 -1.1596  0.4911
 4109TIP3    H136522   3.542   6.939   8.162 -0.9992 -0.2905 -0.2254
 4109TIP3    H236523   3.479   6.901   8.030 -2.3974 -1.9185  0.8543
 4110TIP3   OH236524   6.385   4.272   7.658 -0.5888 -0.1393  0.4049
 4110TIP3    H136525   6.309   4.223   7.628 -0.8176 -0.3279  1.2711
 4110TIP3    H236526   6.405   4.235   7.744  0.6827 -0.3163  0.0570
 4111TIP3   OH236527   0.922   2.221   7.076 -0.0087  0.0095  0.0136
 4111TIP3    H136528   1.016   2.210   7.091 -0.1433 -0.4229  0.6271
 4111TIP3    H236529   0.912   2.223   6.981  0.7785  1.5776 -0.0572
 4112TIP3   OH236530   1.131   6.117   8.201  0.4606  0.7737  0.1272
 4112TIP3    H136531   1.197   6.169   8.156 -1.3043  1.4375 -1.8693
 4112TIP3    H236532   1.143   6.028   8.168 -0.4578  1.1507 -1.2749
 4113TIP3   OH236533   5.884   0.811   8.783 -0.0720  0.0123  0.4270
 4113TIP3    H136534   5.834   0.783   8.860 -0.2057  0.6541  0.5747
 4113TIP3    H236535   5.818   0.831   8.717  0.0479 -0.6819  0.0880
 4114TIP3   OH236536   2.099   4.123   9.515 -0.0149 -0.0627 -0.5296
 4114TIP3    H136537   2.061   4.122   9.428 -0.2726 -0.2837 -0.4145
 4114TIP3    H236538   2.191   4.147   9.501 -0.9371  4.1609 -0.5048
 4115TIP3   OH236539   4.380   3.966   7.753  0.2769  0.0858 -0.1208
 4115TIP3    H136540   4.442   3.900   7.722 -0.4105 -0.4397 -0.4069
 4115TIP3    H236541   4.348   4.008   7.673  0.9252  0.9898  0.0711
 4116TIP3   OH236542   2.990   5.121   9.069 -0.1447 -0.3454 -0.0335
 4116TIP3    H136543   2.988   5.214   9.092 -0.2823 -0.3569 -0.0004
 4116TIP3    H236544   2.965   5.120   8.976  1.8511 -0.1649 -0.6099
 4117TIP3   OH236545   5.859   0.097   9.058 -0.5153 -0.5537 -0.4897
 4117TIP3    H136546   5.834   0.134   9.142  0.1660  1.0579 -0.9654
 4117TIP3    H236547   5.779   0.104   9.005 -0.2520  0.7687 -0.7371
 4118TIP3   OH236548   0.659   5.478   7.470 -0.8920 -0.3122  0.1588
 4118TIP3    H136549   0.615   5.559   7.444  1.6863  1.2300  0.2283
 4118TIP3    H236550   0.718   5.504   7.541  0.0915 -2.2229  0.1294
 4119TIP3   OH236551   5.982   2.085   8.261  0.1998 -0.2940 -0.4593
 4119TIP3    H136552   5.997   2.178   8.272  0.3676 -0.2280 -1.1764
 4119TIP3    H236553   5.890   2.073   8.284  0.1752  0.0496 -0.3732
 4120TIP3   OH236554   5.295   3.800   8.406 -0.2898 -0.1392  0.1296
 4120TIP3    H136555   5.255   3.771   8.324 -0.7008  3.2012 -0.9714
 4120TIP3    H236556   5.346   3.877   8.383 -1.9846  2.1335  3.2337
 4121TIP3   OH236557   7.134   2.071   8.958 -0.2019 -0.1965  0.4891
 4121TIP3    H136558   7.124   2.165   8.973  1.2641  0.0388  0.1022
 4121TIP3    H236559   7.074   2.031   9.021 -0.7760  0.9833  0.7323
 4122TIP3   OH236560   1.643   3.327   8.760  0.5707 -0.7081  0.0548
 4122TIP3    H136561   1.559   3.284   8.748  1.1759 -2.4341  1.4674
 4122TIP3    H236562   1.622   3.416   8.788 -0.7404  0.5828 -4.3407
 4123TIP3   OH236563   3.020   4.065   7.509  0.3379  0.0521  0.0467
 4123TIP3    H136564   3.092   4.034   7.454  1.2569  0.3617  1.0464
 4123TIP3    H236565   3.063   4.116   7.577 -0.5932 -1.5967  1.9666
 4124TIP3   OH236566   1.004   5.964   7.584 -0.9001  0.4287  0.1039
 4124TIP3    H136567   1.065   5.912   7.531  1.8327  3.9082 -0.5523
 4124TIP3    H236568   1.035   5.954   7.674 -0.1788  1.0750 -0.0591
 4125TIP3   OH236569   0.772   4.343   8.133 -0.1013 -0.3734  0.4876
 4125TIP3    H136570   0.834   4.401   8.089  0.1265 -0.7551  0.3020
 4125TIP3    H236571   0.788   4.357   8.227  0.6612 -0.8819  0.4427
 4126TIP3   OH236572   0.413   2.114   9.216 -0.5082  0.5934 -0.1699
 4126TIP3    H136573   0.474   2.188   9.208 -0.5087  0.8349  1.6422
 4126TIP3    H236574   0.432   2.077   9.303 -1.3763 -0.7619 -0.5337
 4127TIP3   OH236575   6.293   2.299   8.919 -0.2638  0.0188  0.7716
 4127TIP3    H136576   6.267   2.208   8.903  1.3468 -0.5045  0.8874
 4127TIP3    H236577   6.212   2.349   8.912 -1.2093 -1.4363  0.7940
 4128TIP3   OH236578   4.666   1.243   7.915 -0.0470  0.2081 -0.9085
 4128TIP3    H136579   4.704   1.178   7.973 -1.3721 -1.6487 -2.0221
 4128TIP3    H236580   4.720   1.240   7.836 -0.6196 -0.1509 -1.2871
 4129TIP3   OH236581   1.995   6.188   7.141  0.1625  0.7575  0.7992
 4129TIP3    H136582   1.980   6.130   7.216  0.6993  0.6872  0.8540
 4129TIP3    H236583   1.935   6.155   7.073 -0.8128  1.2337  1.4053
 4130TIP3   OH236584   4.779   6.651   7.627 -0.9903  0.2863  0.7518
 4130TIP3    H136585   4.797   6.742   7.604  1.7383 -0.0478  1.2003
 4130TIP3    H236586   4.813   6.642   7.716  2.1012 -1.9445 -0.5077
 4131TIP3   OH236587   6.428   4.613   7.285 -0.0952 -0.0999  0.8126
 4131TIP3    H136588   6.414   4.665   7.364 -1.7449 -0.7747  1.0027
 4131TIP3    H236589   6.353   4.553   7.282  0.8805 -1.3182 -0.2931
 4132TIP3   OH236590   2.099   0.360   8.707  1.0184 -0.1231 -0.2840
 4132TIP3    H136591   2.147   0.429   8.661  2.0171 -0.6777 -0.1081
 4132TIP3    H236592   2.029   0.336   8.648  0.4135  1.2961 -0.1932
 4133TIP3   OH236593   2.696   6.540   6.969 -0.0864 -0.1789 -0.2960
 4133TIP3    H136594   2.642   6.494   6.905  0.3523 -0.8903 -0.1612
 4133TIP3    H236595   2.776   6.487   6.976  0.0167  0.0827  0.5794
 4134TIP3   OH236596   0.670   5.906   6.785 -0.3603 -0.0684 -0.4606
 4134TIP3    H136597   0.632   5.839   6.842  1.5621  0.4281  1.5179
 4134TIP3    H236598   0.735   5.858   6.733 -0.4271 -0.0925 -0.5222
 4135TIP3   OH236599   6.596   1.692   7.076  0.1373 -1.2112  0.0957
 4135TIP3    H136600   6.651   1.632   7.026  2.7813  0.6655  0.5660
 4135TIP3    H236601   6.567   1.642   7.152  1.1785 -2.2568 -0.1835
 4136TIP3   OH236602   4.419   5.707   7.445  0.1382 -0.1946 -0.0195
 4136TIP3    H136603   4.330   5.674   7.431  0.1377 -1.5487  2.6469
 4136TIP3    H236604   4.475   5.631   7.434  0.7298  0.1366  0.6840
 4137TIP3   OH236605   6.916   0.692   6.990 -0.2807 -0.6467  0.4740
 4137TIP3    H136606   7.010   0.709   6.988 -0.5374  0.8966 -0.6675
 4137TIP3    H236607   6.909   0.598   7.002  1.4587 -1.0865 -1.3847
 4138TIP3   OH236608   1.900   1.653   8.262 -0.1116  0.2294 -1.1772
 4138TIP3    H136609   1.828   1.591   8.251  0.9914 -0.8700 -2.7490
 4138TIP3    H236610   1.929   1.672   8.173  1.7830  0.2850 -0.6018
 4139TIP3   OH236611   6.928   2.268   7.829  0.1540  0.7387  0.3844
 4139TIP3    H136612   6.959   2.239   7.915  2.4450  0.8237 -0.3334
 4139TIP3    H236613   6.913   2.186   7.780 -1.2233  0.6892  0.8641
 4140TIP3   OH236614   1.164   2.999   8.946  0.9590 -0.6273 -0.0725
 4140TIP3    H136615   1.072   2.994   8.969  0.1283  3.3120 -1.8072
 4140TIP3    H236616   1.208   3.030   9.025  0.6606 -1.4400  0.4240
 4141TIP3   OH236617   3.958   3.941   8.932  0.2477 -0.2071  0.3163
 4141TIP3    H136618   3.988   3.881   8.864  1.2529 -0.7489  1.1932
 4141TIP3    H236619   3.865   3.954   8.914  0.0747 -1.8134 -0.0750
 4142TIP3   OH236620   4.579   3.402   9.391  0.1858 -0.1973 -0.1787
 4142TIP3    H136621   4.561   3.464   9.321 -0.8782 -0.9070 -0.5573
 4142TIP3    H236622   4.673   3.384   9.384 -0.2871 -2.2197 -3.1411
 4143TIP3   OH236623   7.359   0.729   8.333 -0.2280  0.0466  0.0234
 4143TIP3    H136624   7.288   0.791   8.318 -1.2608 -0.9281  0.7275
 4143TIP3    H236625   7.357   0.712   8.427  1.1631  0.2463  0.1185
 4144TIP3   OH236626   0.725   1.771   8.972 -0.0847  0.2367 -0.2634
 4144TIP3    H136627   0.792   1.708   8.946  0.0901 -0.5028  1.7625
 4144TIP3    H236628   0.772   1.855   8.979  0.0574  0.2503 -1.3231
 4145TIP3   OH236629   2.328   3.426   7.712  0.2450 -0.0524  0.4679
 4145TIP3    H136630   2.403   3.484   7.727 -0.2316  0.5682  0.5008
 4145TIP3    H236631   2.353   3.343   7.754  0.5480  0.4312  1.2686
 4146TIP3   OH236632   1.479   0.715   9.423 -0.0443 -0.1966  0.2199
 4146TIP3    H136633   1.468   0.660   9.345 -1.4360 -0.1964  0.3973
 4146TIP3    H236634   1.418   0.787   9.410  2.0229  1.5593 -0.1840
 4147TIP3   OH236635   1.294   0.207   8.420  0.5041  0.0764  0.4135
 4147TIP3    H136636   1.386   0.202   8.391  0.9081  0.3627  1.5798
 4147TIP3    H236637   1.285   0.295   8.454  0.0722 -0.2564  1.1861
 4148TIP3   OH236638   7.160   7.280   8.502  0.7100 -0.1937  0.2554
 4148TIP3    H136639   7.138   7.373   8.511 -0.9558 -0.5201 -0.0918
 4148TIP3    H236640   7.246   7.271   8.544 -0.4054  0.9363  2.9831
 4149TIP3   OH236641   6.948   4.526   8.358  0.1730  0.6341  0.0243
 4149TIP3    H136642   6.870   4.558   8.404 -1.4770 -1.1918 -1.3304
 4149TIP3    H236643   6.999   4.480   8.424  0.2670  2.0512  0.9824
 4150TIP3   OH236644   0.563   4.148   6.810 -0.3532  0.1778  0.7469
 4150TIP3    H136645   0.645   4.170   6.767  0.2015 -3.2591 -0.3166
 4150TIP3    H236646   0.537   4.228   6.856  2.7231  1.8693 -0.1709
 4151TIP3   OH236647   6.205   3.993   7.291  0.2459 -0.1325  0.6148
 4151TIP3    H136648   6.153   3.992   7.211  1.4639  0.0192 -0.2162
 4151TIP3    H236649   6.203   3.902   7.322  0.2157 -0.3153  0.0913
 4152TIP3   OH236650   4.823   0.982   9.449 -0.1486 -0.3107 -0.4666
 4152TIP3    H136651   4.780   0.919   9.508 -0.4985  1.6857  1.5582
 4152TIP3    H236652   4.898   0.934   9.413 -0.4846 -1.9416  0.8803
 4153TIP3   OH236653   0.564   7.051   8.410  0.3354 -0.2396  0.1455
 4153TIP3    H136654   0.512   7.008   8.343  0.9549  0.1607 -0.6076
 4153TIP3    H236655   0.534   7.142   8.410  0.5683 -0.1598  0.1656
 4154TIP3   OH236656   3.742   4.239   9.060  0.0299 -0.0286  0.0656
 4154TIP3    H136657   3.692   4.238   8.978  0.2263 -1.5068 -0.0594
 4154TIP3    H236658   3.679   4.215   9.128  0.1549 -0.0732  0.1659
 4155TIP3   OH236659   3.591   7.482   8.036 -0.4263 -0.0555  0.3871
 4155TIP3    H136660   3.659   7.513   7.976 -0.3018 -0.3831  0.3612
 4155TIP3    H236661   3.569   7.560   8.088 -0.0521  0.0587  0.3775
 4156TIP3   OH236662   1.265   3.023   9.226  0.4878 -0.6049 -0.3966
 4156TIP3    H136663   1.299   3.092   9.282  2.2931 -0.3713 -1.7159
 4156TIP3    H236664   1.212   2.969   9.285 -1.4025  2.0831  0.5882
 4157TIP3   OH236665   5.307   5.770   8.495 -0.1064 -0.4238  0.1612
 4157TIP3    H136666   5.235   5.735   8.548 -0.8423 -1.0216 -1.1712
 4157TIP3    H236667   5.360   5.694   8.472 -0.1122 -0.2648 -0.4086
 4158TIP3   OH236668   0.147   4.524   6.789  0.1490 -0.1740  0.0319
 4158TIP3    H136669   0.085   4.536   6.718  0.5735 -1.8635 -0.6739
 4158TIP3    H236670   0.127   4.595   6.851 -0.4247  1.1421 -1.5918
 4159TIP3   OH236671   2.861   6.816   8.841 -0.2937 -0.2595 -0.0269
 4159TIP3    H136672   2.900   6.784   8.759 -2.7378 -0.9068 -1.0373
 4159TIP3    H236673   2.876   6.911   8.839  1.8236 -0.5621  0.0286
 4160TIP3   OH236674   2.424   3.180   7.790 -0.0853  0.0982 -0.2863
 4160TIP3    H136675   2.519   3.179   7.796 -0.1372 -1.0475  0.6174
 4160TIP3    H236676   2.399   3.088   7.783 -0.9935  0.4408 -3.4679
 4161TIP3   OH236677   0.189   3.316   8.279 -0.3453 -0.1392  0.1707
 4161TIP3    H136678   0.226   3.239   8.320  0.5585  0.3758  0.3509
 4161TIP3    H236679   0.120   3.283   8.221  0.5290 -1.1385 -0.3190
 4162TIP3   OH236680   1.229   5.714   9.347  0.4377 -0.3258 -0.2893
 4162TIP3    H136681   1.154   5.767   9.320  0.5257  1.1142  1.9606
 4162TIP3    H236682   1.305   5.759   9.309  0.2693 -1.1071 -1.5895
 4163TIP3   OH236683   5.747   0.435   9.712  0.1685  0.3457  0.1944
 4163TIP3    H136684   5.742   0.427   9.807 -1.5270  0.9946  0.2038
 4163TIP3    H236685   5.765   0.346   9.681 -0.9039 -0.2083  1.0708
 4164TIP3   OH236686   2.188   7.457   6.658 -0.5086  0.2262 -0.0603
 4164TIP3    H136687   2.199   7.401   6.581  0.3076 -0.4140  0.5177
 4164TIP3    H236688   2.202   7.546   6.625 -3.0457  0.2847 -1.2528
 4165TIP3   OH236689   2.044   0.862   8.543 -0.1156 -0.9775  0.0119
 4165TIP3    H136690   1.962   0.863   8.592 -0.0904  0.3895  0.0698
 4165TIP3    H236691   2.046   0.947   8.498  0.6781 -1.5054 -0.9787
 4166TIP3   OH236692   1.702   1.305   7.370 -0.3025  0.0036  0.5129
 4166TIP3    H136693   1.737   1.255   7.444  1.5500  0.6717  0.1362
 4166TIP3    H236694   1.769   1.370   7.351 -1.1634  0.4649 -1.1604
 4167TIP3   OH236695   2.581   7.309   8.544 -0.4156 -0.0049  0.3197
 4167TIP3    H136696   2.501   7.293   8.595 -1.0318  1.6852 -0.0348
 4167TIP3    H236697   2.565   7.267   8.460 -0.4005 -0.7522  0.6859
 4168TIP3   OH236698   0.962   7.436   9.770 -0.4380  0.5526  0.5172
 4168TIP3    H136699   0.888   7.390   9.810  0.1362 -0.0386  0.9113
 4168TIP3    H236700   1.004   7.370   9.715 -0.9849  1.2484 -0.7909
 4169TIP3   OH236701   5.230   0.202   9.233 -0.5163  0.2194 -0.6976
 4169TIP3    H136702   5.166   0.133   9.252  0.3782 -0.0603  1.7535
 4169TIP3    H236703   5.178   0.281   9.224 -1.4729 -0.5520 -2.4663
 4170TIP3   OH236704   0.715   0.681   9.762  0.2727  0.0448  0.5536
 4170TIP3    H136705   0.776   0.658   9.693  0.4603 -0.7722  0.9735
 4170TIP3    H236706   0.635   0.632   9.741  0.2168  0.0622  0.7199
 4171TIP3   OH236707   1.743   3.735   8.491  0.1659 -0.1785 -0.2849
 4171TIP3    H136708   1.740   3.735   8.395  2.4310  0.5585 -0.4153
 4171TIP3    H236709   1.652   3.739   8.518 -0.5278 -0.5003 -2.4040
 4172TIP3   OH236710   4.066   5.625   8.120 -0.4354 -0.0295 -0.1573
 4172TIP3    H136711   4.045   5.685   8.192  0.1144 -0.9016  0.7510
 4172TIP3    H236712   4.159   5.640   8.103  0.1084 -1.6620  1.1166
 4173TIP3   OH236713   0.088   1.277   7.348 -0.0070  0.6332  0.7327
 4173TIP3    H136714   0.182   1.275   7.329 -0.3424 -1.8580 -1.3162
 4173TIP3    H236715   0.083   1.294   7.442  2.6884 -2.0579  1.5574
 4174TIP3   OH236716   5.594   1.014   7.999 -0.2502 -0.3527  0.3297
 4174TIP3    H136717   5.659   1.080   8.023 -0.7362 -0.0244  0.7610
 4174TIP3    H236718   5.523   1.064   7.958 -0.0143 -0.7636 -0.6067
 4175TIP3   OH236719   3.986   7.313   7.670  0.0298  0.2099 -0.2801
 4175TIP3    H136720   3.938   7.278   7.745  0.6091 -1.2097 -0.5228
 4175TIP3    H236721   4.001   7.237   7.614  2.5984  0.5524 -0.1720
 4176TIP3   OH236722   5.145   4.657   7.091  0.0365  0.3458  0.4570
 4176TIP3    H136723   5.088   4.614   7.155  1.0675 -1.4822  0.2295
 4176TIP3    H236724   5.095   4.657   7.010 -0.1188 -0.1586  0.5464
 4177TIP3   OH236725   1.487   1.166   6.767  0.1318 -0.3235 -0.0565
 4177TIP3    H136726   1.422   1.212   6.820 -0.4543  0.5977 -1.4912
 4177TIP3    H236727   1.548   1.235   6.740  2.2931 -1.3053  1.9964
 4178TIP3   OH236728   2.428   2.883   7.847 -0.5565 -0.0309  0.2170
 4178TIP3    H136729   2.469   2.797   7.851  0.3118  0.4029  0.9673
 4178TIP3    H236730   2.462   2.930   7.923 -2.1537  0.4907  0.6504
 4179TIP3   OH236731   2.031   1.574   9.227 -0.1225  0.0683  0.2384
 4179TIP3    H136732   1.992   1.527   9.301 -0.6024  1.8696  1.2047
 4179TIP3    H236733   2.113   1.608   9.261 -0.0764  0.4401 -0.2335
 4180TIP3   OH236734   0.426   0.522   9.359 -0.3224 -0.0457  0.4658
 4180TIP3    H136735   0.439   0.612   9.332 -0.6932 -0.3893 -0.9192
 4180TIP3    H236736   0.335   0.503   9.340 -0.3337 -0.6271  1.0375
 4181TIP3   OH236737   6.292   4.774   8.980  0.7351 -0.2304 -0.2252
 4181TIP3    H136738   6.324   4.685   8.999  0.8107 -0.2785 -0.5857
 4181TIP3    H236739   6.202   4.761   8.951  0.6224 -0.1561  0.0884
 4182TIP3   OH236740   2.395   2.726   8.596 -0.0924 -0.6555 -0.1199
 4182TIP3    H136741   2.452   2.731   8.673 -0.8304  0.8015  0.3534
 4182TIP3    H236742   2.456   2.715   8.523  0.6339 -1.7654  0.6219
 4183TIP3   OH236743   3.123   5.791   7.873 -0.0455 -0.2537 -0.4967
 4183TIP3    H136744   3.030   5.784   7.851  0.4715 -1.7357 -2.5395
 4183TIP3    H236745   3.165   5.822   7.793  1.3369 -0.5371  0.0808
 4184TIP3   OH236746   2.893   3.066   6.742  0.5655  0.6410  0.5318
 4184TIP3    H136747   2.985   3.082   6.765  0.1082  1.6444  1.7819
 4184TIP3    H236748   2.843   3.112   6.810 -0.8727 -2.1389  1.5159
 4185TIP3   OH236749   4.064   0.766   7.021  0.1993  0.6729 -0.1212
 4185TIP3    H136750   3.991   0.712   7.049  0.7602  0.6747  1.4507
 4185TIP3    H236751   4.052   0.776   6.927 -2.0297  0.9868  0.1409
 4186TIP3   OH236752   1.093   3.228   6.939  0.4610  0.6163  0.1456
 4186TIP3    H136753   1.153   3.157   6.960 -0.2223 -0.2039 -0.6112
 4186TIP3    H236754   1.011   3.204   6.981  0.4778  1.4230  0.6579
 4187TIP3   OH236755   5.720   7.617   7.547  0.3277  0.2925 -0.4142
 4187TIP3    H136756   5.630   7.644   7.530 -0.6294 -2.1396  0.4021
 4187TIP3    H236757   5.760   7.608   7.461 -1.2045 -1.6156 -0.9948
 4188TIP3   OH236758   6.558   6.531   6.782  0.1681 -0.1671  0.0073
 4188TIP3    H136759   6.621   6.543   6.710  0.2404 -0.9990 -0.0849
 4188TIP3    H236760   6.525   6.618   6.800 -0.6456 -0.0551 -1.7597
 4189TIP3   OH236761   5.399   4.648   7.610  0.3477  0.1768  0.7272
 4189TIP3    H136762   5.469   4.712   7.619  1.3427 -0.5287 -1.2403
 4189TIP3    H236763   5.440   4.575   7.563 -1.4240 -0.7432  0.5367
 4190TIP3   OH236764   6.682   1.224   7.564 -0.2860 -0.3399 -0.1142
 4190TIP3    H136765   6.749   1.226   7.496 -0.7684 -2.3250 -0.7241
 4190TIP3    H236766   6.721   1.171   7.634 -1.3756 -1.9948 -0.7131
 4191TIP3   OH236767   0.261   4.722   7.853  0.1436 -0.0175 -0.1634
 4191TIP3    H136768   0.194   4.788   7.839 -0.2034 -0.2215  0.4964
 4191TIP3    H236769   0.234   4.647   7.800 -0.1502 -0.0933  0.0898
 4192TIP3   OH236770   5.768   6.625   8.618  0.2672  0.4414  0.1103
 4192TIP3    H136771   5.771   6.529   8.619  0.0524  0.4383  0.6625
 4192TIP3    H236772   5.779   6.651   8.709 -2.7911  0.8247  0.4729
 4193TIP3   OH236773   0.095   1.721   8.949 -0.5626 -0.1338  0.2628
 4193TIP3    H136774   0.054   1.802   8.919 -0.8912 -0.8660 -1.4086
 4193TIP3    H236775   0.148   1.692   8.874  1.1755 -0.4220  1.5465
 4194TIP3   OH236776   0.964   5.574   8.905  0.3298 -0.0064 -0.5353
 4194TIP3    H136777   0.969   5.572   9.000  0.3583  1.0128 -0.5127
 4194TIP3    H236778   1.007   5.655   8.879 -1.6193  0.8550 -1.2757
 4195TIP3   OH236779   6.616   1.423   8.403  0.1497  0.3546  0.4360
 4195TIP3    H136780   6.533   1.378   8.387 -0.1513  1.3931 -1.1801
 4195TIP3    H236781   6.601   1.512   8.371  1.6186  0.8165  0.9517
 4196TIP3   OH236782   2.317   3.713   8.862  0.4910 -0.8902 -0.2949
 4196TIP3    H136783   2.250   3.759   8.812 -0.7066 -3.2094 -0.9471
 4196TIP3    H236784   2.273   3.685   8.942  1.6569  0.4394  0.8741
 4197TIP3   OH236785   7.413   2.956   9.436  0.4528  0.0167  0.7185
 4197TIP3    H136786   7.475   2.961   9.509  0.5351 -0.3736  0.6749
 4197TIP3    H236787   7.418   2.866   9.406  0.3008  0.1365  0.3291
 4198TIP3   OH236788   4.079   1.778   8.036 -0.2291  0.0558 -0.0790
 4198TIP3    H136789   4.141   1.774   8.108 -1.0940 -2.2380  0.6164
 4198TIP3    H236790   4.107   1.709   7.976 -1.1109  0.1345 -0.6062
 4199TIP3   OH236791   4.221   4.542   7.746  0.1695 -0.3773  0.2614
 4199TIP3    H136792   4.302   4.538   7.695 -0.2280 -0.1106 -0.4083
 4199TIP3    H236793   4.211   4.454   7.782  1.1137 -0.2330  0.9314
 4200TIP3   OH236794   1.067   0.679   7.649 -0.2789  0.4270 -0.0491
 4200TIP3    H136795   1.023   0.599   7.621  0.3446 -0.0486  0.2914
 4200TIP3    H236796   1.157   0.652   7.666  0.0191  1.2650 -0.2128
 4201TIP3   OH236797   7.435   6.279   9.108 -0.3097  0.1020  0.9668
 4201TIP3    H136798   7.393   6.295   9.023 -0.5781 -1.1895  0.8510
 4201TIP3    H236799   7.409   6.354   9.162 -1.5378  0.0703  0.4444
 4202TIP3   OH236800   0.870   5.275   6.478 -0.5137  0.7830 -0.8031
 4202TIP3    H136801   0.891   5.359   6.518  1.3027  0.0228 -0.0337
 4202TIP3    H236802   0.886   5.211   6.547  0.2169 -0.3707 -1.9948
 4203TIP3   OH236803   1.518   2.489   7.639  0.2329 -0.2472 -0.1112
 4203TIP3    H136804   1.458   2.539   7.693 -0.1163 -1.5270  0.7393
 4203TIP3    H236805   1.473   2.405   7.625  0.5885 -0.1950 -1.8649
 4204TIP3   OH236806   1.164   0.213   9.734 -0.4549  0.4931 -0.2345
 4204TIP3    H136807   1.245   0.179   9.771 -0.6893  0.9526  0.7217
 4204TIP3    H236808   1.096   0.183   9.793 -0.8690  0.9866 -0.4531
 4205TIP3   OH236809   6.789   0.354   8.582  0.2645 -0.5590 -0.3522
 4205TIP3    H136810   6.751   0.407   8.652  2.6601  1.6757 -0.5680
 4205TIP3    H236811   6.776   0.405   8.503  1.9369 -0.6411 -0.7136
 4206TIP3   OH236812   2.652   0.673   9.007  0.2340  0.1158 -1.1434
 4206TIP3    H136813   2.679   0.683   9.098 -2.0962 -0.3129 -0.3312
 4206TIP3    H236814   2.701   0.596   8.977 -0.3815 -0.9542  0.4010
 4207TIP3   OH236815   4.849   6.746   7.069  0.8371  0.0096 -0.2163
 4207TIP3    H136816   4.932   6.699   7.062  0.4280 -0.5789 -1.2281
 4207TIP3    H236817   4.831   6.778   6.981 -0.0814  0.0194 -0.0386
 4208TIP3   OH236818   0.320   1.019   7.164  0.0656  0.3065 -0.1835
 4208TIP3    H136819   0.337   1.105   7.203 -0.3590  0.2871  0.0490
 4208TIP3    H236820   0.404   0.993   7.127 -0.0618  1.3223 -1.2365
 4209TIP3   OH236821   2.529   0.779   6.694  0.2883 -0.0295 -0.3627
 4209TIP3    H136822   2.608   0.738   6.658 -0.7503 -1.1025 -1.5284
 4209TIP3    H236823   2.495   0.832   6.622  0.8852  1.8878  0.7106
 4210TIP3   OH236824   3.488   4.423   8.194  0.0874 -0.2180 -0.1769
 4210TIP3    H136825   3.538   4.456   8.268 -0.0274  0.0139 -0.2012
 4210TIP3    H236826   3.397   4.427   8.223 -0.0000  0.3626 -0.5153
 4211TIP3   OH236827   3.992   2.970   9.793  0.0940  0.1948 -0.5608
 4211TIP3    H136828   4.031   2.921   9.721  1.9995 -2.3472  1.9675
 4211TIP3    H236829   4.058   3.035   9.816 -0.3372  0.7260 -0.7806
 4212TIP3   OH236830   4.041   6.057   9.170  0.2231  0.1055 -0.0898
 4212TIP3    H136831   3.981   6.110   9.116 -0.1905 -1.5626 -1.3306
 4212TIP3    H236832   4.080   6.120   9.231  0.4396  2.0089 -2.0915
 4213TIP3   OH236833   1.643   1.461   9.112  0.4000  0.5025  0.2186
 4213TIP3    H136834   1.618   1.550   9.089  0.0890  0.4886  0.4909
 4213TIP3    H236835   1.672   1.467   9.203 -1.4027  0.0055  0.8629
 4214TIP3   OH236836   1.655   0.965   7.714 -0.4951  0.6719 -0.2455
 4214TIP3    H136837   1.674   1.030   7.781  0.7971  0.7019 -0.6130
 4214TIP3    H236838   1.567   0.932   7.736 -0.7207  1.7660  0.5522
 4215TIP3   OH236839   1.733   2.410   8.065  0.6105  0.0433  0.4033
 4215TIP3    H136840   1.729   2.440   8.156 -2.0010 -0.5837  0.5893
 4215TIP3    H236841   1.826   2.398   8.047  1.1468 -0.9660  3.3824
 4216TIP3   OH236842   4.623   3.260   8.140  0.0253 -0.6876 -0.6464
 4216TIP3    H136843   4.556   3.215   8.089 -1.3602  0.6376 -0.0926
 4216TIP3    H236844   4.663   3.192   8.194 -0.9914 -1.4918 -0.8798
 4217TIP3   OH236845   6.336   7.050   8.460  0.5218 -0.1080 -0.1427
 4217TIP3    H136846   6.303   7.099   8.535 -0.8908 -0.9074 -0.2008
 4217TIP3    H236847   6.265   6.989   8.438  1.5350 -0.9744 -1.1417
 4218TIP3   OH236848   4.950   3.365   8.705 -0.3044  0.4443 -0.1169
 4218TIP3    H136849   4.876   3.322   8.748  1.0444 -1.7860  0.1613
 4218TIP3    H236850   5.016   3.372   8.774  0.4874  0.4805 -0.8647
 4219TIP3   OH236851   3.520   0.008   6.757  0.0772 -0.2013 -0.0567
 4219TIP3    H136852   3.447  -0.053   6.749  1.0987 -1.3224 -1.1162
 4219TIP3    H236853   3.598  -0.046   6.750  1.0283  1.0762  0.2639
 4220TIP3   OH236854   6.633   2.463   6.739  0.5775 -0.8006 -0.6806
 4220TIP3    H136855   6.706   2.411   6.705  0.8462  0.5876 -2.3814
 4220TIP3    H236856   6.643   2.548   6.697  0.3835  0.8224  2.2368
 4221TIP3   OH236857   0.568   4.264   9.175 -0.7583 -0.6587  0.5567
 4221TIP3    H136858   0.594   4.337   9.231 -0.0804 -0.1715 -0.3553
 4221TIP3    H236859   0.640   4.202   9.182 -0.3534 -0.2956 -0.2758
 4222TIP3   OH236860   3.942   2.890   8.788 -0.4185  0.0291 -0.3052
 4222TIP3    H136861   3.887   2.840   8.848  0.7536  0.1178  0.8951
 4222TIP3    H236862   4.031   2.872   8.817  0.1126  1.2659 -1.0906
 4223TIP3   OH236863   4.163   4.262   7.688 -0.0376  0.1418 -0.3894
 4223TIP3    H136864   4.099   4.301   7.628 -1.5808  0.7352  1.5252
 4223TIP3    H236865   4.213   4.202   7.633 -0.3499  1.7231 -2.5793
 4224TIP3   OH236866   1.664   2.648   7.963  0.4460  0.1663 -0.0687
 4224TIP3    H136867   1.578   2.666   8.002  0.5822 -0.0105  0.3257
 4224TIP3    H236868   1.664   2.553   7.948 -0.0360  0.3893 -1.5618
 4225TIP3   OH236869   4.571   1.790   7.855  0.1421 -0.4331  0.5042
 4225TIP3    H136870   4.533   1.723   7.798  0.8549  0.7413 -1.4598
 4225TIP3    H236871   4.525   1.871   7.832  1.5703  0.3829  0.3568
 4226TIP3   OH236872   3.825   0.615   7.923 -0.5648 -0.4079  0.1039
 4226TIP3    H136873   3.834   0.601   7.829 -1.1223 -0.7160  0.0952
 4226TIP3    H236874   3.887   0.555   7.963  0.4705  0.4984 -0.0992
 4227TIP3   OH236875   6.681   3.870   7.442  0.0236  0.2611 -0.3017
 4227TIP3    H136876   6.599   3.822   7.455  0.9308 -0.9489  1.3166
 4227TIP3    H236877   6.709   3.895   7.530  2.0572 -0.5246 -0.6648
 4228TIP3   OH236878   7.369   7.392   9.015 -0.4489  0.0601  0.2762
 4228TIP3    H136879   7.431   7.381   9.087 -1.2950 -1.8575  0.7652
 4228TIP3    H236880   7.310   7.317   9.022 -3.3254  2.1717  0.2870
 4229TIP3   OH236881   5.092   2.028   9.026 -0.0132  0.3436 -0.4027
 4229TIP3    H136882   4.996   2.028   9.029 -0.0161  1.7536  0.2269
 4229TIP3    H236883   5.117   2.115   9.058  1.5665 -0.9132  2.0974
 4230TIP3   OH236884   7.142   3.943   6.731  0.6860 -0.0459 -0.3944
 4230TIP3    H136885   7.173   3.892   6.806 -0.0001 -0.6679 -0.5285
 4230TIP3    H236886   7.175   4.031   6.747  1.4162 -0.3998  0.1191
 4231TIP3   OH236887   3.044   3.195   8.475  0.0300 -0.2761  0.1152
 4231TIP3    H136888   3.058   3.106   8.507 -0.5805 -0.3338  0.2313
 4231TIP3    H236889   3.046   3.250   8.553  2.2695  0.0714 -0.1268
 4232TIP3   OH236890   2.952   6.598   8.601  0.5972  0.5329  0.4277
 4232TIP3    H136891   2.927   6.512   8.566  0.4197  0.2285  1.2636
 4232TIP3    H236892   2.964   6.653   8.524  1.9775 -0.5682 -0.1935
 4233TIP3   OH236893   6.100   3.342   8.490  0.0061 -0.0956 -0.4573
 4233TIP3    H136894   6.041   3.417   8.490 -1.4807 -1.2232 -1.2185
 4233TIP3    H236895   6.152   3.353   8.410  0.0901  0.3182 -0.3515
 4234TIP3   OH236896   0.157   2.407   6.544  0.3716 -0.4042 -0.2471
 4234TIP3    H136897   0.130   2.315   6.541  0.6715 -0.4833 -0.6379
 4234TIP3    H236898   0.077   2.456   6.524  0.5543 -0.6501 -1.7620
 4235TIP3   OH236899   6.000   6.496   8.286  0.1972 -0.2525 -0.1322
 4235TIP3    H136900   6.006   6.501   8.190 -2.2469 -0.2728 -0.3639
 4235TIP3    H236901   5.906   6.489   8.303  0.6979 -3.5012  2.1557
 4236TIP3   OH236902   1.402   7.076   8.999  0.0330  0.8543  0.0195
 4236TIP3    H136903   1.453   7.157   9.000 -0.3202  1.1125 -1.2594
 4236TIP3    H236904   1.447   7.021   8.936  0.8920 -0.4006  1.6352
 4237TIP3   OH236905   4.722   6.412   8.108 -0.4148  0.0785 -0.1446
 4237TIP3    H136906   4.640   6.444   8.071 -1.0263 -0.9487  0.2845
 4237TIP3    H236907   4.765   6.491   8.141 -1.4824  0.5685  0.1220
 4238TIP3   OH236908   1.555   0.269   7.033  0.3131 -0.2313  0.0596
 4238TIP3    H136909   1.619   0.329   6.996 -1.6078  1.2726 -1.0622
 4238TIP3    H236910   1.547   0.198   6.969 -0.2522  0.4004 -0.5856
 4239TIP3   OH236911   5.844   5.062   7.646 -0.8869 -0.2122 -0.6445
 4239TIP3    H136912   5.783   5.040   7.716 -1.5266  2.7770 -0.1419
 4239TIP3    H236913   5.788   5.083   7.571 -0.3853  0.3771 -0.8588
 4240TIP3   OH236914   0.997   6.617   8.450 -0.2659 -0.7706 -0.3670
 4240TIP3    H136915   1.026   6.698   8.408 -1.8474 -0.0284 -0.1190
 4240TIP3    H236916   0.961   6.646   8.535  0.4567 -1.9151  0.3565
 4241TIP3   OH236917   7.612   5.778   7.400 -0.3710 -0.4470  0.2389
 4241TIP3    H136918   7.677   5.843   7.374  0.2487 -1.1457  0.0081
 4241TIP3    H236919   7.563   5.759   7.320 -0.6684 -0.1417  0.3454
 4242TIP3   OH236920   7.668   1.596   7.336 -0.1072  0.2886 -0.4411
 4242TIP3    H136921   7.626   1.532   7.277 -0.3987  0.7928 -0.7908
 4242TIP3    H236922   7.680   1.548   7.418  0.8938 -0.6384 -1.0906
 4243TIP3   OH236923   6.010   6.632   7.667 -0.3449  0.0598 -0.3248
 4243TIP3    H136924   5.954   6.567   7.710  1.0236 -0.4781  0.7497
 4243TIP3    H236925   6.010   6.707   7.726 -0.2090  0.1770 -0.4739
 4244TIP3   OH236926   4.306   3.245   9.060 -0.4205  0.3255  0.3511
 4244TIP3    H136927   4.395   3.273   9.040 -1.3475  1.2934 -2.9871
 4244TIP3    H236928   4.260   3.325   9.082 -1.3809  0.5228 -2.1042
 4245TIP3   OH236929   7.269   7.078   9.331 -0.0640 -0.2103 -0.0085
 4245TIP3    H136930   7.317   6.996   9.335 -0.4714 -0.4226  0.8816
 4245TIP3    H236931   7.181   7.056   9.362 -0.0580  0.6473  0.6671
 4246TIP3   OH236932   6.242   1.759   8.023  0.6386  0.3735  0.3079
 4246TIP3    H136933   6.194   1.689   8.068  0.1459  0.6643  0.2419
 4246TIP3    H236934   6.281   1.811   8.093  1.2960 -0.1618  0.3499
 4247TIP3   OH236935   0.150   5.275   8.282  0.2914 -1.0359  0.0451
 4247TIP3    H136936   0.071   5.330   8.289 -0.1056 -1.2277 -2.1860
 4247TIP3    H236937   0.126   5.207   8.219  2.9584  0.3381 -2.7296
 4248TIP3   OH236938   4.603   6.481   7.098  0.3100  0.0984  0.4271
 4248TIP3    H136939   4.672   6.417   7.117 -0.0215 -0.3924  0.0093
 4248TIP3    H236940   4.634   6.563   7.137  2.1731  0.4727 -1.6940
 4249TIP3   OH236941   4.279   1.443   8.198  0.0345 -0.2554  0.4184
 4249TIP3    H136942   4.280   1.534   8.228  1.8268 -0.9377  2.7792
 4249TIP3    H236943   4.345   1.439   8.129  0.9731 -0.0039  1.2814
 4250TIP3   OH236944   2.038   7.099   7.080 -0.2613 -0.2635 -0.1185
 4250TIP3    H136945   1.986   7.019   7.084  0.7385 -0.8685  2.0805
 4250TIP3    H236946   2.126   7.072   7.106  0.6664  1.1576 -1.5771
 4251TIP3   OH236947   1.136   4.427   7.172 -0.4966  0.4130  0.1610
 4251TIP3    H136948   1.132   4.359   7.105  1.1642  0.1607  0.2649
 4251TIP3    H236949   1.045   4.444   7.195 -0.9733 -1.4418 -0.1939
 4252TIP3   OH236950   3.224   1.593   9.545  0.6204 -0.7035  0.1655
 4252TIP3    H136951   3.257   1.580   9.456  0.9790  0.6903  0.0661
 4252TIP3    H236952   3.301   1.584   9.601  0.7311  0.0620  0.1589
 4253TIP3   OH236953   5.639   3.532   7.976  0.0572 -0.5805 -0.2828
 4253TIP3    H136954   5.593   3.458   8.017 -0.0007 -0.0096  0.6906
 4253TIP3    H236955   5.571   3.597   7.960  0.1716 -0.5840 -0.8007
 4254TIP3   OH236956   4.692   6.018   8.756 -0.6717  0.2291 -0.4132
 4254TIP3    H136957   4.758   5.955   8.726 -1.0119 -0.8662  1.0384
 4254TIP3    H236958   4.738   6.103   8.753  0.2234 -0.2590 -1.1214
 4255TIP3   OH236959   6.794   1.221   8.060 -0.0340 -0.3668 -1.0312
 4255TIP3    H136960   6.786   1.306   8.102 -0.2964 -0.9254  0.0787
 4255TIP3    H236961   6.713   1.175   8.082 -0.3592 -0.5561 -2.4750
 4256TIP3   OH236962   1.859   2.212   9.311  0.5367  0.3115  0.2515
 4256TIP3    H136963   1.927   2.279   9.299  3.1036 -1.9914  0.9537
 4256TIP3    H236964   1.839   2.183   9.222  1.4532  0.1507  0.0815
 4257TIP3   OH236965   0.775   3.499   8.342  0.3831  0.2139 -0.3821
 4257TIP3    H136966   0.866   3.523   8.327 -0.2914  3.7998  0.3799
 4257TIP3    H236967   0.759   3.519   8.434 -0.3373 -3.9159  0.5902
 4258TIP3   OH236968   1.219   5.355   8.350 -0.2937  0.3848  0.1391
 4258TIP3    H136969   1.261   5.375   8.434  0.2886  0.5900 -0.1984
 4258TIP3    H236970   1.170   5.434   8.328  0.2530  0.6512 -0.1338
 4259TIP3   OH236971   0.313   6.069   7.767  0.9133 -0.2733 -0.1315
 4259TIP3    H136972   0.287   6.159   7.748  1.2629  0.4578  2.4344
 4259TIP3    H236973   0.408   6.067   7.751  0.9869 -0.0456  0.2750
 4260TIP3   OH236974   0.605   7.056   9.149 -0.4050  0.6992 -0.5019
 4260TIP3    H136975   0.579   7.047   9.057  0.6269 -0.5031 -0.7000
 4260TIP3    H236976   0.522   7.060   9.197 -0.9781 -0.4853 -1.3396
 4261TIP3   OH236977   2.152   4.989   9.121  0.0019  0.1749 -0.0943
 4261TIP3    H136978   2.140   4.897   9.145 -0.4578 -0.1004 -1.2793
 4261TIP3    H236979   2.246   4.997   9.102 -0.0570 -0.2035 -0.5571
 4262TIP3   OH236980   0.840   2.911   9.295  0.3334  0.2180  0.0433
 4262TIP3    H136981   0.866   2.953   9.214  3.5169  0.6510  1.1729
 4262TIP3    H236982   0.765   2.963   9.326  0.8368  1.7668 -1.2149
 4263TIP3   OH236983   1.777   4.553   7.691  0.0341  0.1677 -0.6441
 4263TIP3    H136984   1.752   4.609   7.618 -0.7404 -0.8091 -1.1510
 4263TIP3    H236985   1.814   4.474   7.650  0.5642  0.0481  0.0388
 4264TIP3   OH236986   3.406   0.827   7.743 -0.3104  0.3801 -0.0814
 4264TIP3    H136987   3.448   0.742   7.728  0.3095  0.4674  1.0387
 4264TIP3    H236988   3.399   0.866   7.656  2.3438  0.5585 -0.3030
 4265TIP3   OH236989   0.214   7.606   7.056  0.3046 -0.3445 -0.0782
 4265TIP3    H136990   0.304   7.629   7.035  0.8277 -0.8836  1.4613
 4265TIP3    H236991   0.193   7.658   7.134 -0.5401 -0.6003 -0.1209
 4266TIP3   OH236992   0.485   6.571   7.540 -0.0919  0.5440  0.3731
 4266TIP3    H136993   0.508   6.584   7.448  0.4805  0.0846  0.4463
 4266TIP3    H236994   0.458   6.479   7.545  3.1384 -0.4752  1.2898
 4267TIP3   OH236995   4.016   0.679   9.020  0.1326  0.0774 -0.1406
 4267TIP3    H136996   4.051   0.718   9.100 -0.1608 -1.5494  0.8412
 4267TIP3    H236997   3.927   0.713   9.013  0.6089  1.2902 -0.5605
 4268TIP3   OH236998   3.587   4.989   8.681  0.2246  0.2011 -0.0696
 4268TIP3    H136999   3.571   4.913   8.738 -1.0283 -0.4358 -1.2008
 4268TIP3    H237000   3.499   5.016   8.654  0.6616  1.9955  0.1924
 4269TIP3   OH237001   1.014   0.852   8.978  0.8374  0.3466  0.0431
 4269TIP3    H137002   0.950   0.916   8.948 -0.2355 -0.5040  0.4492
 4269TIP3    H237003   1.023   0.791   8.904 -0.0811 -0.4582  0.5766
 4270TIP3   OH237004   1.271   0.084   6.525 -0.1107 -0.2795 -0.2213
 4270TIP3    H137005   1.230   0.159   6.568 -1.1238 -2.0589  2.1006
 4270TIP3    H237006   1.204   0.052   6.465  1.0933  1.8378 -2.9624
 4271TIP3   OH237007   4.281   2.250   8.830  0.4218 -0.0341  0.0067
 4271TIP3    H137008   4.314   2.317   8.890  0.6464 -0.0492 -0.0987
 4271TIP3    H237009   4.208   2.209   8.878  0.8280 -0.2890  0.4159
 4272TIP3   OH237010   4.950   0.090   7.496  0.2113  0.6014  0.2661
 4272TIP3    H137011   4.990   0.069   7.411 -2.4818  0.5864 -1.0730
 4272TIP3    H237012   4.986   0.023   7.555  1.1165 -0.2239 -1.1455
 4273TIP3   OH237013   1.962   7.574   7.294  0.1339 -0.1238  0.2564
 4273TIP3    H137014   1.914   7.494   7.274  0.7782 -0.7910  1.3167
 4273TIP3    H237015   1.990   7.564   7.385 -0.1594  1.5098  0.5729
 4274TIP3   OH237016   1.902   2.659   6.478  0.3742  0.2767  0.1364
 4274TIP3    H137017   1.885   2.568   6.456 -3.0397  0.4643  1.4027
 4274TIP3    H237018   1.997   2.666   6.483  0.7960 -2.7443 -1.7027
 4275TIP3   OH237019   6.500   5.777   9.503  0.1534 -0.3079  0.3842
 4275TIP3    H137020   6.431   5.755   9.440  1.4893  0.1865 -1.3602
 4275TIP3    H237021   6.460   5.840   9.563 -0.7556  0.4551 -0.9720
 4276TIP3   OH237022   4.755   0.579   7.511  0.4064  0.1254 -0.2951
 4276TIP3    H137023   4.802   0.504   7.547  2.5186 -0.0615 -3.1130
 4276TIP3    H237024   4.668   0.544   7.490  0.5929 -0.8841  0.5184
 4277TIP3   OH237025   1.080   5.279   8.853 -0.1202  0.5380  0.0750
 4277TIP3    H137026   1.155   5.247   8.903 -0.3780 -0.8715 -0.4022
 4277TIP3    H237027   1.051   5.357   8.901  2.0041  1.4828 -0.0636
 4278TIP3   OH237028   4.306   2.658   9.168 -0.5192 -0.0994 -0.2737
 4278TIP3    H137029   4.214   2.650   9.192 -0.3458 -0.0800  0.4326
 4278TIP3    H237030   4.327   2.751   9.180 -0.4834 -0.0486 -0.7193
 4279TIP3   OH237031   2.850   6.085   8.720 -0.3969  0.5538  0.0874
 4279TIP3    H137032   2.833   6.090   8.626  0.9369 -1.2690 -0.3030
 4279TIP3    H237033   2.790   6.017   8.751 -2.7059  2.9011  1.1176
 4280TIP3   OH237034   3.764   1.812   9.368  0.0601 -0.1255  0.2662
 4280TIP3    H137035   3.736   1.723   9.348  1.6729 -0.2338 -1.9045
 4280TIP3    H237036   3.840   1.801   9.426  1.9645 -0.3976 -2.1271
 4281TIP3   OH237037   3.135   6.519   7.205 -0.7183  0.0351  0.2299
 4281TIP3    H137038   3.196   6.566   7.261  0.7470  0.2069 -1.4378
 4281TIP3    H237039   3.059   6.576   7.199 -0.1645  0.8302  0.6108
 4282TIP3   OH237040   4.636   5.225   6.955  0.2068 -0.6658 -0.2519
 4282TIP3    H137041   4.635   5.253   6.864  1.2952  0.7089  0.1239
 4282TIP3    H237042   4.639   5.307   7.005 -2.7711 -1.2638  1.1374
 4283TIP3   OH237043   2.253   1.112   8.673 -0.1831  0.0535  0.0955
 4283TIP3    H137044   2.324   1.173   8.651  0.4767 -1.0757 -1.0211
 4283TIP3    H237045   2.276   1.031   8.628 -1.7665 -0.6061  0.4081
 4284TIP3   OH237046   6.877   5.032   7.989  0.0841 -0.3237 -0.8216
 4284TIP3    H137047   6.883   4.939   7.966  1.7831 -0.1725 -1.0846
 4284TIP3    H237048   6.967   5.060   8.000 -0.4015  1.3220 -0.7771
 4285TIP3   OH237049   3.211   0.784   7.426  0.6066  0.9433  0.7227
 4285TIP3    H137050   3.212   0.781   7.331 -0.5398 -1.1454  0.7095
 4285TIP3    H237051   3.249   0.700   7.453 -2.7028 -0.3320  1.9504
 4286TIP3   OH237052   3.382   4.563   7.801 -0.5050  0.4215  0.3936
 4286TIP3    H137053   3.321   4.491   7.816 -0.4593  0.2463 -0.2621
 4286TIP3    H237054   3.456   4.544   7.858 -0.4667 -0.0814  0.1823
 4287TIP3   OH237055   0.502   1.700   9.430  0.1840  0.3754  0.0120
 4287TIP3    H137056   0.551   1.663   9.357 -0.3737 -1.3921  0.4751
 4287TIP3    H237057   0.564   1.700   9.503 -0.0043 -0.3656  0.1878
 4288TIP3   OH237058   5.209   1.979   9.367 -0.4998  1.1040  0.6946
 4288TIP3    H137059   5.207   2.017   9.279 -1.4440  2.4342  1.2644
 4288TIP3    H237060   5.130   1.925   9.372 -0.0426  0.3935  0.4812
 4289TIP3   OH237061   1.773   2.926   6.925 -0.1694 -0.1444  0.4959
 4289TIP3    H137062   1.814   3.008   6.899 -1.8632  0.4713 -0.4150
 4289TIP3    H237063   1.816   2.859   6.872 -0.4252  0.5058 -0.5741
 4290TIP3   OH237064   2.364   3.414   7.427  0.2764 -0.3907  0.2299
 4290TIP3    H137065   2.346   3.414   7.521 -1.8598  0.0582 -0.1406
 4290TIP3    H237066   2.290   3.368   7.388 -0.5801  2.2163 -1.5018
 4291TIP3   OH237067   0.260   6.839   7.210 -0.5416  0.2602  0.5400
 4291TIP3    H137068   0.258   6.761   7.155 -0.9869 -0.1652  1.1467
 4291TIP3    H237069   0.303   6.905   7.156  0.7744 -0.6856  0.3975
 4292TIP3   OH237070   1.751   6.992   8.917 -0.0912 -0.1491  0.7274
 4292TIP3    H137071   1.780   6.964   9.004  0.4327 -0.5680  0.4251
 4292TIP3    H237072   1.819   6.961   8.858  0.4602  1.6652  0.3459
 4293TIP3   OH237073   7.258   6.699   8.974  0.2228 -0.0630  0.0441
 4293TIP3    H137074   7.198   6.703   9.048  0.0239  0.5473 -0.1445
 4293TIP3    H237075   7.219   6.635   8.915  0.7413 -1.0850  0.7701
 4294TIP3   OH237076   2.977   6.009   8.964 -0.0821 -0.4559  0.3135
 4294TIP3    H137077   3.012   6.097   8.976  0.5928 -0.6101 -0.4582
 4294TIP3    H237078   2.907   6.020   8.899  0.7085 -0.6367 -0.5905
 4295TIP3   OH237079   2.175   0.731   7.747  0.1163 -0.4137 -0.0779
 4295TIP3    H137080   2.189   0.720   7.841  0.1767  0.3753  0.0124
 4295TIP3    H237081   2.120   0.809   7.739 -1.7332 -1.6879 -0.5985
 4296TIP3   OH237082   2.206   2.001   8.671 -0.0465  0.3588 -0.4035
 4296TIP3    H137083   2.230   1.952   8.750  0.2015  0.5443 -0.3621
 4296TIP3    H237084   2.117   1.972   8.651 -0.8597  1.6766  1.0112
 4297TIP3   OH237085   7.558   7.672   6.788  0.1075 -0.1101 -0.2975
 4297TIP3    H137086   7.624   7.604   6.801  0.1951 -0.3634 -1.9379
 4297TIP3    H237087   7.604   7.743   6.745 -0.5570 -0.0801 -0.9899
 4298TIP3   OH237088   7.593   0.180   8.199 -0.3811  0.3566 -0.2183
 4298TIP3    H137089   7.646   0.233   8.139  0.7059  0.2146  0.6026
 4298TIP3    H237090   7.597   0.092   8.161  0.2054  0.2902 -0.0134
 4299TIP3   OH237091   1.197   7.668   8.257  0.1911  0.4309 -0.3815
 4299TIP3    H137092   1.243   7.708   8.331 -0.0744  1.5171 -0.7777
 4299TIP3    H237093   1.250   7.591   8.235  0.8078  0.6343  0.3191
 4300TIP3   OH237094   3.680   2.504   6.846  0.4214 -0.2665  0.4777
 4300TIP3    H137095   3.585   2.500   6.842  0.4348 -0.6568 -2.7977
 4300TIP3    H237096   3.706   2.419   6.883 -0.4892 -0.5379  0.5137
 4301TIP3   OH237097   6.508   6.956   7.446  0.0527  0.1628  0.3886
 4301TIP3    H137098   6.420   6.926   7.425  0.4080 -1.7461  1.3868
 4301TIP3    H237099   6.497   7.012   7.523 -0.4304  1.2747 -0.4604
 4302TIP3   OH237100   3.410   6.775   8.866 -0.3100  0.1937 -0.3817
 4302TIP3    H137101   3.453   6.703   8.821 -1.7465 -0.0654 -1.4061
 4302TIP3    H237102   3.390   6.740   8.953 -0.4590 -0.4431 -0.6668
 4303TIP3   OH237103   7.502   3.288   8.233  0.5020  0.5642 -0.9954
 4303TIP3    H137104   7.412   3.288   8.200  0.9775 -0.5747 -2.4031
 4303TIP3    H237105   7.503   3.355   8.301 -1.5926  0.0785 -0.4208
 4304TIP3   OH237106   7.532   2.181   8.662 -0.2672 -0.0931  0.2530
 4304TIP3    H137107   7.616   2.163   8.706 -0.7543 -0.7551  0.9471
 4304TIP3    H237108   7.515   2.102   8.611  0.3525  0.7194 -1.2728
 4305TIP3   OH237109   1.341   6.888   8.345 -0.0866  0.0593  0.3074
 4305TIP3    H137110   1.279   6.874   8.274  1.4139  1.1207 -1.2886
 4305TIP3    H237111   1.297   6.950   8.404 -0.8370  0.2071 -0.3984
 4306TIP3   OH237112   2.019   6.634   7.699  0.3497  0.5346 -0.5781
 4306TIP3    H137113   1.945   6.639   7.760  1.2649  0.5926  0.5545
 4306TIP3    H237114   1.979   6.615   7.614 -0.7580 -2.6311  0.5262
 4307TIP3   OH237115   1.569   4.250   7.605 -0.3104  0.5940  0.3657
 4307TIP3    H137116   1.585   4.217   7.693  2.3334 -1.3701 -0.7391
 4307TIP3    H237117   1.653   4.289   7.578 -0.0618 -1.5245 -2.3124
 4308TIP3   OH237118   6.467   3.570   8.449  0.2419  0.0834  0.4829
 4308TIP3    H137119   6.427   3.630   8.511 -0.1820  1.7573 -1.3161
 4308TIP3    H237120   6.550   3.612   8.425  0.2644 -0.3907 -0.3109
 4309TIP3   OH237121   2.651   4.646   8.888 -0.3566  0.7655 -0.6434
 4309TIP3    H137122   2.683   4.717   8.832 -0.1185  0.9517 -0.2776
 4309TIP3    H237123   2.607   4.586   8.828 -0.7363  1.3186 -0.9308
 4310TIP3   OH237124   4.264   3.474   7.393  0.0801  0.4926 -0.2436
 4310TIP3    H137125   4.270   3.569   7.399 -0.4503  0.5054  0.2138
 4310TIP3    H237126   4.171   3.457   7.375  0.3105  0.0945 -1.1159
 4311TIP3   OH237127   3.384   5.251   7.349  0.5006 -0.2140  0.4337
 4311TIP3    H137128   3.321   5.213   7.288 -0.7340  0.9020  0.9745
 4311TIP3    H237129   3.382   5.345   7.330  0.5231  0.0729  1.7867
 4312TIP3   OH237130   4.061   6.174   8.471  0.0374 -0.0939  0.1754
 4312TIP3    H137131   4.081   6.081   8.468 -0.8300 -0.2548 -0.8097
 4312TIP3    H237132   4.116   6.207   8.542 -0.0146 -1.4335  0.8757
 4313TIP3   OH237133   1.070   2.540   7.867 -0.1264 -0.2754 -0.2682
 4313TIP3    H137134   1.074   2.450   7.897 -1.6078 -0.1507  0.3842
 4313TIP3    H237135   1.152   2.579   7.896 -0.5973 -0.7316  1.7847
 4314TIP3   OH237136   1.133   7.611   7.474  0.2182 -0.1049  0.1332
 4314TIP3    H137137   1.209   7.669   7.469 -0.3487  0.6393 -0.0755
 4314TIP3    H237138   1.162   7.529   7.434  0.5159  0.5941 -1.1272
 4315TIP3   OH237139   3.051   2.373   7.772  0.0485 -0.6495 -0.2254
 4315TIP3    H137140   3.120   2.417   7.723  1.0458 -2.0738 -0.1566
 4315TIP3    H237141   2.971   2.388   7.721  0.4977  0.5580 -0.5913
 4316TIP3   OH237142   0.422   5.513   7.082  0.3543 -0.2771  0.0418
 4316TIP3    H137143   0.477   5.436   7.091 -0.4925 -1.2290 -2.1600
 4316TIP3    H237144   0.332   5.480   7.089 -0.0377  0.3690 -1.4203
 4317TIP3   OH237145   6.545   0.499   9.542  0.5083 -0.3532  0.0919
 4317TIP3    H137146   6.589   0.575   9.579  0.7044 -0.8712  0.9416
 4317TIP3    H237147   6.613   0.432   9.534  0.2987 -0.5095 -0.4647
 4318TIP3   OH237148   6.960   5.776   8.987  0.6352  0.2293 -0.0715
 4318TIP3    H137149   7.054   5.761   8.976  0.7242  0.0834  0.8020
 4318TIP3    H237150   6.920   5.689   8.977  0.4795  0.4426 -1.4411
 4319TIP3   OH237151   2.025   4.717   8.399  0.3093  0.1120 -0.2962
 4319TIP3    H137152   2.067   4.634   8.420  0.7446  0.9970  2.7746
 4319TIP3    H237153   1.958   4.694   8.334  0.8495 -2.5084 -0.0266
 4320TIP3   OH237154   3.238   2.933   8.787  0.7907 -0.0307  0.0882
 4320TIP3    H137155   3.149   2.935   8.752  0.6121  0.9263  0.5670
 4320TIP3    H237156   3.294   2.930   8.710  0.3494 -0.8419 -0.2173
 4321TIP3   OH237157   1.868   3.922   7.769 -0.1843  1.0016  0.9449
 4321TIP3    H137158   1.792   3.926   7.711  0.3569 -0.0664  0.1274
 4321TIP3    H237159   1.855   3.842   7.820  1.0068  0.0878 -0.1264
 4322TIP3   OH237160   0.517   5.713   6.917 -0.7272  0.1392  0.5070
 4322TIP3    H137161   0.482   5.645   6.975 -0.7177 -0.7805 -0.5243
 4322TIP3    H237162   0.497   5.682   6.829  2.7001 -0.5549 -0.1983
 4323TIP3   OH237163   1.991   2.037   7.865 -0.8371  0.1167 -0.0894
 4323TIP3    H137164   1.954   2.100   7.926 -0.8670  1.2011 -1.1764
 4323TIP3    H237165   2.030   2.091   7.796  1.9738 -0.9978  0.5322
 4324TIP3   OH237166   7.125   3.671   7.167 -0.0249  0.0277 -0.5722
 4324TIP3    H137167   7.141   3.674   7.261 -1.9796 -0.1087 -0.1986
 4324TIP3    H237168   7.155   3.584   7.140  0.5207  0.0597 -0.0884
 4325TIP3   OH237169   0.810   2.534   7.080 -0.5463 -0.0075 -0.4750
 4325TIP3    H137170   0.829   2.486   7.000  1.7129 -1.2347  0.7174
 4325TIP3    H237171   0.727   2.580   7.061 -0.1674 -0.3337 -3.4177
 4326TIP3   OH237172   4.097   0.101   8.018  0.7906 -0.6924 -0.3122
 4326TIP3    H137173   4.052   0.080   7.936  0.2674 -1.6993  0.2101
 4326TIP3    H237174   4.041   0.167   8.059  1.0750 -0.1554 -0.7775
 4327TIP3   OH237175   5.445   7.643   8.432 -0.5825  0.0924  0.4944
 4327TIP3    H137176   5.503   7.719   8.438 -0.1280 -0.1932 -0.1254
 4327TIP3    H237177   5.443   7.607   8.520  1.8624 -1.1105  0.1308
 4328TIP3   OH237178   1.322   2.674   7.720 -0.4339  0.6112 -0.7704
 4328TIP3    H137179   1.331   2.654   7.813  1.4669  1.1137 -0.8049
 4328TIP3    H237180   1.228   2.690   7.707 -0.7624  0.2406  0.9860
 4329TIP3   OH237181   1.474   5.390   9.209  0.0191  0.4419  0.1468
 4329TIP3    H137182   1.522   5.449   9.267  0.5283  1.0481 -0.8795
 4329TIP3    H237183   1.522   5.307   9.216  1.2768  1.0501 -0.9028
 4330TIP3   OH237184   7.603   0.108   7.075  0.2751  0.0333 -0.0154
 4330TIP3    H137185   7.643   0.043   7.134  1.1230  0.3450 -0.2359
 4330TIP3    H237186   7.592   0.061   6.992 -1.4142 -0.5739  0.4979
 4331TIP3   OH237187   3.590   3.407   8.142 -0.3510 -0.4452 -0.1510
 4331TIP3    H137188   3.520   3.426   8.080 -2.0127 -3.5464  0.5387
 4331TIP3    H237189   3.569   3.459   8.219 -0.5139  0.4660 -0.7971
 4332TIP3   OH237190   4.383   2.721   8.574 -0.3799  0.5225 -0.0643
 4332TIP3    H137191   4.370   2.629   8.598 -0.5867  0.4499 -0.4457
 4332TIP3    H237192   4.410   2.764   8.656 -1.4860  0.3683  0.3987
 4333TIP3   OH237193   4.082   2.075   8.024 -0.7363 -0.3054  0.1488
 4333TIP3    H137194   4.074   1.980   8.021  2.9881 -0.8004  1.0612
 4333TIP3    H237195   4.136   2.093   8.101 -0.1923  2.4452 -0.7453
 4334TIP3   OH237196   6.427   1.566   8.910  0.2128 -0.3549 -0.5774
 4334TIP3    H137197   6.484   1.494   8.882  0.3960 -0.0780 -0.9218
 4334TIP3    H237198   6.369   1.527   8.974  0.6192 -0.7052 -0.4193
 4335TIP3   OH237199   3.943   5.369   9.074 -0.0189  0.4499 -0.2617
 4335TIP3    H137200   3.869   5.344   9.129  0.0340  0.5657 -0.1370
 4335TIP3    H237201   3.909   5.441   9.020 -0.5234 -0.6344 -1.4425
 4336TIP3   OH237202   4.559   3.566   8.145  0.4634  0.0556 -0.2265
 4336TIP3    H137203   4.613   3.612   8.209  1.5762 -0.7608 -0.5492
 4336TIP3    H237204   4.586   3.474   8.153 -0.8181 -0.3605 -0.4672
 4337TIP3   OH237205   2.382   1.337   7.268  0.4922 -0.4271 -0.4216
 4337TIP3    H137206   2.318   1.276   7.231 -1.6805  1.3354  0.1831
 4337TIP3    H237207   2.340   1.371   7.347  1.3357  2.1747 -0.9810
 4338TIP3   OH237208   4.379   5.817   8.883  0.0707  0.3907  0.3889
 4338TIP3    H137209   4.372   5.746   8.947  0.4733 -0.3630 -0.3820
 4338TIP3    H237210   4.300   5.869   8.897  0.0047  0.0687  1.2919
 4339TIP3   OH237211   4.057   4.558   7.405 -0.0723  0.1901 -0.4804
 4339TIP3    H137212   4.077   4.637   7.455  1.4128 -1.8479  2.4673
 4339TIP3    H237213   4.138   4.534   7.362 -0.4730  0.1932 -1.2497
 4340TIP3   OH237214   2.424   1.982   9.035 -0.6011  1.0718  0.2393
 4340TIP3    H137215   2.477   2.048   8.992 -0.9905  1.0872 -0.2294
 4340TIP3    H237216   2.400   1.921   8.965 -1.0661  0.9787  0.4759
 4341TIP3   OH237217   2.299   6.610   9.636  0.0438 -0.5607  0.3651
 4341TIP3    H137218   2.358   6.595   9.710 -0.5436 -0.6251  0.8294
 4341TIP3    H237219   2.355   6.644   9.567  0.8789 -1.9954  0.3069
 4342TIP3   OH237220   4.452   2.484   6.989 -0.3721  0.3289  0.7025
 4342TIP3    H137221   4.507   2.433   7.050 -1.1911  0.4974  1.6032
 4342TIP3    H237222   4.445   2.429   6.911 -0.4533 -0.5208  1.2999
 4343TIP3   OH237223   1.624   2.552   8.519  0.2787 -0.3469  0.2911
 4343TIP3    H137224   1.586   2.537   8.433  1.3050  0.1258 -0.2555
 4343TIP3    H237225   1.591   2.639   8.544  0.2377 -0.3485  0.2437
 4344TIP3   OH237226   7.516   6.000   7.784  0.2687  0.3966  0.1015
 4344TIP3    H137227   7.444   6.006   7.847  0.5448 -0.6528  0.5385
 4344TIP3    H237228   7.586   5.955   7.832  0.8844  0.5975 -0.6022
 4345TIP3   OH237229   0.797   7.454   9.435 -0.1314  0.2948  0.3044
 4345TIP3    H137230   0.885   7.418   9.430 -0.8248 -2.2789  3.1577
 4345TIP3    H237231   0.802   7.524   9.500 -0.2024  0.0498  0.5761
 4346TIP3   OH237232   7.403   1.400   9.258  0.6040 -0.2182  0.5107
 4346TIP3    H137233   7.481   1.439   9.218  1.6127 -1.0708  1.5440
 4346TIP3    H237234   7.373   1.466   9.320  0.3555  0.2068 -0.0512
 4347TIP3   OH237235   0.345   2.554   7.621  0.0870  0.1005  0.7708
 4347TIP3    H137236   0.261   2.510   7.633 -1.2730  0.4729 -4.7266
 4347TIP3    H237237   0.404   2.485   7.594  0.0891  0.5166 -0.3263
 4348TIP3   OH237238   5.461   3.661   7.506  0.0545 -0.4687  0.1766
 4348TIP3    H137239   5.517   3.584   7.519 -0.9136 -1.3992 -1.0208
 4348TIP3    H237240   5.444   3.663   7.412  2.0155  2.6421 -0.2658
 4349TIP3   OH237241   3.133   3.941   8.686  0.5338  0.3663  0.0621
 4349TIP3    H137242   3.062   3.934   8.622  0.1076  1.5925  0.3780
 4349TIP3    H237243   3.110   4.016   8.740  1.3429 -0.1061  1.1050
 4350TIP3   OH237244   1.529   2.092   8.826  0.1006  0.1228  0.0515
 4350TIP3    H137245   1.586   2.159   8.787 -0.7207 -1.0745 -3.7067
 4350TIP3    H237246   1.441   2.128   8.820  0.0023  0.2539  1.8175
 4351TIP3   OH237247   2.572   3.876   7.734 -0.1841 -1.1878  0.7182
 4351TIP3    H137248   2.510   3.931   7.685  1.2196 -1.9407 -2.1041
 4351TIP3    H237249   2.571   3.912   7.822 -1.0995  1.8516 -0.4039
 4352TIP3   OH237250   3.908   4.356   7.569  0.3269  0.0124  0.2046
 4352TIP3    H137251   3.958   4.425   7.526  0.5023  0.0588  0.4827
 4352TIP3    H237252   3.822   4.395   7.586  1.0991  0.9318  2.3669
 4353TIP3   OH237253   5.775   7.071   9.386 -0.4332  0.2402 -0.0220
 4353TIP3    H137254   5.778   7.082   9.291 -0.3253  0.3541 -0.0055
 4353TIP3    H237255   5.683   7.078   9.409 -0.2441  2.8111  0.2005
 4354TIP3   OH237256   3.605   5.550   6.709 -0.2662  0.2038  0.1746
 4354TIP3    H137257   3.698   5.545   6.686 -0.2324  0.5307  0.2276
 4354TIP3    H237258   3.580   5.641   6.689 -0.0305  0.7648  2.1720
 4355TIP3   OH237259   5.903   4.597   7.105 -0.1960  0.3402 -1.2625
 4355TIP3    H137260   5.830   4.541   7.077 -0.4913  0.1618 -0.1768
 4355TIP3    H237261   5.957   4.608   7.027 -0.7898 -0.4606 -1.7907
 4356TIP3   OH237262   1.137   3.662   7.251  0.3541 -0.3109  0.1326
 4356TIP3    H137263   1.127   3.567   7.254  2.5444 -0.5709  0.6930
 4356TIP3    H237264   1.076   3.690   7.183  1.5881 -2.3930 -1.9771
 4357TIP3   OH237265   4.496   0.943   6.427 -0.2137  0.0578  0.7788
 4357TIP3    H137266   4.419   0.999   6.433 -0.1882  0.0321  1.4132
 4357TIP3    H237267   4.472   0.874   6.365 -0.4055  0.5146  0.3464
 4358TIP3   OH237268   7.448   6.632   7.263  0.5068 -0.0936  0.2443
 4358TIP3    H137269   7.383   6.702   7.250  1.2564  0.4590 -0.6940
 4358TIP3    H237270   7.476   6.642   7.353  1.1572  1.3340 -0.0891
 4359TIP3   OH237271   3.788   3.503   6.998 -0.5641 -0.2083 -0.1245
 4359TIP3    H137272   3.745   3.460   7.072  0.9499  0.1693  1.0306
 4359TIP3    H237273   3.720   3.558   6.960 -1.5804 -0.9639  0.5331
 4360TIP3   OH237274   0.286   5.017   9.029 -0.2646 -0.8752  0.1031
 4360TIP3    H137275   0.315   5.025   9.120  0.7491 -3.0047  0.0278
 4360TIP3    H237276   0.336   5.084   8.982  0.1423 -0.5916  0.9180
 4361TIP3   OH237277   0.958   2.750   8.035  0.0460 -0.2649 -0.5921
 4361TIP3    H137278   1.048   2.750   8.001  0.0408 -1.2561 -0.6266
 4361TIP3    H237279   0.903   2.751   7.956  0.0188  0.4541 -0.5707
 4362TIP3   OH237280   6.616   6.493   7.074  0.2734 -0.1668 -0.2276
 4362TIP3    H137281   6.584   6.579   7.101  0.5266 -0.5456  1.3617
 4362TIP3    H237282   6.559   6.468   7.001 -1.7565  0.0534  1.2112
 4363TIP3   OH237283   0.464   1.510   7.427  0.1257  0.8643  0.0524
 4363TIP3    H137284   0.387   1.557   7.460 -0.2986 -0.4278  0.9864
 4363TIP3    H237285   0.509   1.480   7.506  0.6995  0.2159 -0.5109
 4364TIP3   OH237286   0.183   5.652   8.297  0.0872 -0.4754 -0.2777
 4364TIP3    H137287   0.191   5.590   8.224  0.8166  0.5737 -1.1131
 4364TIP3    H237288   0.143   5.730   8.258 -0.4857 -0.2696  0.6834
 4365TIP3   OH237289   0.574   1.640   9.167 -0.1653  0.7665  0.0352
 4365TIP3    H137290   0.487   1.667   9.138  0.5284  2.8959 -0.2504
 4365TIP3    H237291   0.635   1.680   9.104  1.0707  0.5498  1.0374
 4366TIP3   OH237292   4.103   4.067   8.197 -0.3085 -0.0226  0.5280
 4366TIP3    H137293   4.017   4.106   8.212 -1.1296 -0.9064 -1.5953
 4366TIP3    H237294   4.121   4.082   8.104  0.8163 -1.7977  0.4138
 4367TIP3   OH237295   4.912   3.315   8.172  0.7121  0.1486 -0.8335
 4367TIP3    H137296   4.817   3.310   8.173  0.7620 -2.3978  0.2594
 4367TIP3    H237297   4.935   3.362   8.252  0.3633  0.0914 -0.6993
 4368TIP3   OH237298   4.678   6.735   9.077 -0.1426  0.4435 -0.4276
 4368TIP3    H137299   4.697   6.829   9.071 -0.9847  0.8139  1.7075
 4368TIP3    H237300   4.597   6.730   9.129  0.4267 -1.4786  0.3708
 4369TIP3   OH237301   6.114   2.812   7.606 -0.2559  0.2942 -0.1516
 4369TIP3    H137302   6.209   2.802   7.603 -0.0669  1.8599 -0.1275
 4369TIP3    H237303   6.085   2.795   7.516 -0.2224 -2.2218  0.2468
 4370TIP3   OH237304   1.021   4.866   7.823  0.3239  0.3902  0.5531
 4370TIP3    H137305   0.943   4.910   7.789  1.3381  1.7665 -0.1098
 4370TIP3    H237306   1.018   4.881   7.917  0.7318  2.1222  0.3309
 4371TIP3   OH237307   5.197   4.205   7.696 -0.1006  0.0415  0.7442
 4371TIP3    H137308   5.148   4.259   7.757 -0.1578  0.7524  0.0907
 4371TIP3    H237309   5.137   4.190   7.623  0.8024  1.4529 -0.3564
 4372TIP3   OH237310   1.037   0.259   6.575 -0.4095  0.7150 -0.4564
 4372TIP3    H137311   1.060   0.352   6.578  1.3728  0.2905 -0.0774
 4372TIP3    H237312   0.950   0.258   6.534  0.1948  2.4436 -1.9604
 4373TIP3   OH237313   3.507   0.021   7.862 -0.4935 -0.2527  0.3629
 4373TIP3    H137314   3.494  -0.006   7.953  1.0391 -1.3140  0.2924
 4373TIP3    H237315   3.585   0.076   7.864 -2.8855  3.5618  0.3310
 4374TIP3   OH237316   1.688   1.169   8.591 -0.0937 -0.5049 -0.3543
 4374TIP3    H137317   1.717   1.115   8.664  0.6236 -0.5142 -0.6310
 4374TIP3    H237318   1.765   1.222   8.569 -0.8400  0.8091  0.0628
 4375TIP3   OH237319   2.294   1.948   7.104 -0.3498  0.3402  0.1828
 4375TIP3    H137320   2.260   1.953   7.193 -1.4388 -1.1661 -0.1057
 4375TIP3    H237321   2.227   1.991   7.051 -1.1058 -1.2421 -0.2038
 4376TIP3   OH237322   5.859   3.837   8.973 -0.1129  0.7365  0.5846
 4376TIP3    H137323   5.842   3.887   8.894 -0.1236 -0.4986 -0.2163
 4376TIP3    H237324   5.952   3.814   8.968 -0.1685  0.4533  0.8171
 4377TIP3   OH237325   3.232   5.962   8.856  0.7049 -0.2688 -0.0206
 4377TIP3    H137326   3.137   5.966   8.869  0.7841  0.4199  0.3821
 4377TIP3    H237327   3.268   5.963   8.944  1.0690 -1.5603 -0.1305
 4378TIP3   OH237328   7.327   7.023   8.668 -0.9965  0.3020 -0.1842
 4378TIP3    H137329   7.320   7.012   8.763 -1.2661 -1.1558 -0.3537
 4378TIP3    H237330   7.405   7.078   8.655 -1.1443  0.7840  0.8815
 4379TIP3   OH237331   6.413   2.475   8.723  0.0932 -0.3997  0.1088
 4379TIP3    H137332   6.413   2.501   8.631  2.8472  0.3096  0.2314
 4379TIP3    H237333   6.348   2.405   8.728 -1.0209  0.4009 -2.0953
 4380TIP3   OH237334   1.305   7.274   9.223  0.3332 -0.0930 -0.2804
 4380TIP3    H137335   1.306   7.368   9.209  1.6532 -0.1538 -0.6631
 4380TIP3    H237336   1.371   7.240   9.162 -1.7931 -1.5156 -1.9672
 4381TIP3   OH237337   3.142   5.304   6.999 -0.2529  0.2422  0.1751
 4381TIP3    H137338   3.103   5.234   6.946 -1.1762  0.7309  0.1916
 4381TIP3    H237339   3.143   5.269   7.088 -4.2585  1.5676  0.9264
 4382TIP3   OH237340   5.173   4.936   6.748 -0.3980 -0.0904 -0.9810
 4382TIP3    H137341   5.105   4.900   6.804  1.6118 -0.5358  1.3903
 4382TIP3    H237342   5.192   4.868   6.684 -0.9184 -0.6923 -0.4989
 4383TIP3   OH237343   6.568   6.097   8.435 -0.6348 -0.2655  0.0058
 4383TIP3    H137344   6.635   6.083   8.368  0.7292 -0.1033  1.2916
 4383TIP3    H237345   6.543   6.189   8.424 -1.3890 -0.5799 -1.1048
 4384TIP3   OH237346   1.465   5.158   6.859 -0.1343 -0.5384  0.2934
 4384TIP3    H137347   1.552   5.196   6.844  0.0717 -1.4894 -1.1144
 4384TIP3    H237348   1.404   5.230   6.845  0.2924 -0.4993 -1.5868
 4385TIP3   OH237349   4.131   6.696   6.900  0.5409  0.4491 -0.1236
 4385TIP3    H137350   4.215   6.659   6.929  0.4332  0.8117  0.6892
 4385TIP3    H237351   4.080   6.620   6.871  0.3675 -0.0606  1.4166
 4386TIP3   OH237352   2.066   6.762   7.333  0.2213 -0.0652  0.1939
 4386TIP3    H137353   1.978   6.799   7.337  0.7377  1.1180  1.2202
 4386TIP3    H237354   2.086   6.758   7.239 -1.0030 -0.5975 -0.0664
 4387TIP3   OH237355   3.236   0.669   8.780 -0.2145 -0.5294  0.6177
 4387TIP3    H137356   3.294   0.666   8.704 -1.5021  0.3860 -0.4458
 4387TIP3    H237357   3.277   0.610   8.844 -0.1952 -3.0183 -1.5363
 4388TIP3   OH237358   3.600   5.697   7.679 -0.6683 -0.0167 -0.5491
 4388TIP3    H137359   3.529   5.669   7.737  0.0802 -1.6203 -0.3570
 4388TIP3    H237360   3.600   5.792   7.686 -1.4422 -0.1024  1.0562
 4389TIP3   OH237361   2.447   5.580   8.286  0.0938  0.0499 -0.5025
 4389TIP3    H137362   2.403   5.660   8.315 -2.1019 -1.6334  1.2090
 4389TIP3    H237363   2.441   5.582   8.191 -0.0211  1.8435 -0.4844
 4390TIP3   OH237364   4.577   1.101   8.848 -0.0534  0.3406  0.1360
 4390TIP3    H137365   4.510   1.165   8.825 -0.1786 -0.4902 -2.0030
 4390TIP3    H237366   4.660   1.144   8.826  0.0774  0.8895  1.5987
 4391TIP3   OH237367   3.843   7.191   7.872  0.5961 -0.1406  0.5358
 4391TIP3    H137368   3.771   7.153   7.922  0.3188  1.4876  1.4394
 4391TIP3    H237369   3.921   7.146   7.905  0.1504 -0.9036  0.5760
 4392TIP3   OH237370   6.034   5.760   7.540  0.7485 -0.3923  0.4768
 4392TIP3    H137371   6.010   5.852   7.539  0.2965 -0.4978 -1.1720
 4392TIP3    H237372   6.045   5.736   7.448 -1.6153 -2.5688  0.6308
 4393TIP3   OH237373   3.651   1.291   8.813 -0.1906  0.4082  0.2866
 4393TIP3    H137374   3.667   1.213   8.760 -2.9099 -2.1574  2.8719
 4393TIP3    H237375   3.564   1.321   8.787 -0.6896  0.3621  1.7946
 4394TIP3   OH237376   1.879   5.290   8.586  0.4915  0.1418  0.5305
 4394TIP3    H137377   1.794   5.266   8.549 -0.0422 -0.2198  1.9226
 4394TIP3    H237378   1.861   5.365   8.642  0.7746 -0.8251  1.9836
 4395TIP3   OH237379   1.229   7.544   9.726  0.0706 -0.0831 -0.4629
 4395TIP3    H137380   1.148   7.514   9.767  1.0541 -1.7147  0.4304
 4395TIP3    H237381   1.231   7.499   9.641 -0.2475  0.4314 -0.7425
 4396TIP3   OH237382   3.865   4.479   8.295 -0.5079  0.2725  0.1539
 4396TIP3    H137383   3.783   4.487   8.342  0.7244 -1.3776  2.7775
 4396TIP3    H237384   3.919   4.552   8.326  0.7090 -1.4469  2.3568
 4397TIP3   OH237385   5.736   6.079   8.399 -0.4251 -0.4628 -0.5141
 4397TIP3    H137386   5.753   5.999   8.448 -0.1820  0.6819  1.3520
 4397TIP3    H237387   5.641   6.079   8.385 -0.8223  0.1832  1.8533
 4398TIP3   OH237388   1.563   5.657   8.771  0.2625  0.0141 -0.2059
 4398TIP3    H137389   1.532   5.577   8.728 -1.1566  0.8551 -0.8337
 4398TIP3    H237390   1.611   5.704   8.702 -0.1418  0.3535 -0.2620
 4399TIP3   OH237391   0.499   0.587   9.609  0.1681  0.0886 -0.1384
 4399TIP3    H137392   0.444   0.576   9.532 -1.8889  0.2466  1.2271
 4399TIP3    H237393   0.472   0.670   9.647  0.8515 -0.1708  0.9764
 4400TIP3   OH237394   2.172   4.420   7.862  0.4136 -0.1230  0.3549
 4400TIP3    H137395   2.115   4.453   7.793 -2.6934  0.3715  2.9217
 4400TIP3    H237396   2.179   4.326   7.844 -0.0395  0.0497 -0.8048
 4401TIP3   OH237397   2.652   3.370   8.696  0.1411  0.2781 -0.4299
 4401TIP3    H137398   2.564   3.391   8.726 -0.0133 -0.6030 -0.2595
 4401TIP3    H237399   2.705   3.445   8.724 -0.3393  0.2803  0.4961
 4402TIP3   OH237400   7.665   1.346   6.558  0.2079 -0.0180 -0.1731
 4402TIP3    H137401   7.593   1.300   6.517 -0.1974  0.0065  0.4939
 4402TIP3    H237402   7.631   1.372   6.644  0.4313  1.5025 -0.5208
 4403TIP3   OH237403   5.568   0.032   8.989  0.1600 -0.1383 -0.4014
 4403TIP3    H137404   5.649  -0.017   9.001  0.6004  0.8508  0.9525
 4403TIP3    H237405   5.499  -0.026   9.023  0.2335 -1.0621 -1.7384
 4404TIP3   OH237406   5.206   0.542   8.945  0.0446 -0.2217  0.0356
 4404TIP3    H137407   5.278   0.563   9.004 -0.1028 -1.2480  0.6083
 4404TIP3    H237408   5.216   0.448   8.929  1.4108  0.3399 -3.3459
 4405TIP3   OH237409   2.031   0.274   7.212 -0.1061 -0.0281  0.5698
 4405TIP3    H137410   2.081   0.193   7.201 -0.8433 -0.3805 -0.2264
 4405TIP3    H237411   1.940   0.248   7.201 -0.3218  0.9729 -0.1632
 4406TIP3   OH237412   3.755   0.398   8.730  0.5068  0.3007 -0.6901
 4406TIP3    H137413   3.828   0.458   8.742 -0.2991  1.1444  0.2615
 4406TIP3    H237414   3.680   0.443   8.770 -0.5264 -0.5540 -1.5832
 4407TIP3   OH237415   0.469   0.868   7.664 -0.3990 -0.2580  0.7659
 4407TIP3    H137416   0.465   0.937   7.597  0.7847  0.9474  1.8822
 4407TIP3    H237417   0.439   0.910   7.744  1.4979 -0.6323  1.7386
 4408TIP3   OH237418   3.196   1.577   6.527 -0.1307 -0.3221  0.0093
 4408TIP3    H137419   3.180   1.507   6.464 -1.5495  1.0507 -1.2451
 4408TIP3    H237420   3.235   1.648   6.475  0.0992  0.2800  0.9829
 4409TIP3   OH237421   6.892   5.248   9.009 -0.1913 -0.3713 -0.5282
 4409TIP3    H137422   6.805   5.220   9.038 -0.2537  0.1542 -0.1950
 4409TIP3    H237423   6.877   5.294   8.927 -0.3382  0.5077 -0.0131
 4410TIP3   OH237424   3.318   3.945   7.698 -0.3133 -0.3466 -0.3945
 4410TIP3    H137425   3.374   3.991   7.760  0.0003 -1.5040  0.1976
 4410TIP3    H237426   3.323   3.998   7.618 -0.9021  1.2875  0.5872
 4411TIP3   OH237427   6.834   1.482   7.693  0.0788 -0.9431  0.4684
 4411TIP3    H137428   6.878   1.562   7.721  1.8674 -1.1264 -1.4956
 4411TIP3    H237429   6.794   1.505   7.609 -1.4896 -1.4787  1.0505
 4412TIP3   OH237430   5.027   4.960   7.195 -0.0003 -0.3266  0.0621
 4412TIP3    H137431   4.937   4.941   7.220  1.0840 -3.4213  2.4513
 4412TIP3    H237432   5.040   4.912   7.113 -0.6775  0.8071 -0.7358
 4413TIP3   OH237433   1.865   1.838   9.600 -0.2784  0.5233 -0.0209
 4413TIP3    H137434   1.811   1.783   9.657  0.1954 -1.4984 -1.4030
 4413TIP3    H237435   1.846   1.928   9.627 -1.7618 -0.2719  1.7615
 4414TIP3   OH237436   3.325   7.407   7.245  0.0577 -0.2740  0.0476
 4414TIP3    H137437   3.301   7.480   7.187 -1.1361 -1.5595 -1.1380
 4414TIP3    H237438   3.243   7.384   7.289  0.7546  0.0671  1.5991
 4415TIP3   OH237439   6.871   7.353   7.544  0.2736  0.2767  0.0617
 4415TIP3    H137440   6.930   7.374   7.472 -2.0895  4.2169 -1.0096
 4415TIP3    H237441   6.928   7.312   7.610  2.8697 -1.8419 -3.1637
 4416TIP3   OH237442   0.801   0.104   9.183 -0.0481 -0.3637  0.3825
 4416TIP3    H137443   0.852   0.136   9.109 -1.4031 -0.8053 -0.7867
 4416TIP3    H237444   0.737   0.173   9.201  0.2889 -0.2460  1.1727
 4417TIP3   OH237445   5.502   4.753   9.127 -0.0428 -0.3849  0.0618
 4417TIP3    H137446   5.468   4.796   9.049  2.1098 -1.4462 -1.5598
 4417TIP3    H237447   5.588   4.793   9.141  1.4056 -3.0100 -0.6582
 4418TIP3   OH237448   0.627   1.788   8.542 -0.0914 -0.4920 -0.2344
 4418TIP3    H137449   0.609   1.859   8.604  0.0199 -0.1594 -0.5865
 4418TIP3    H237450   0.541   1.764   8.508 -0.0230  0.2324 -0.9521
 4419TIP3   OH237451   3.575   6.329   7.816  0.0063 -0.3107 -0.4685
 4419TIP3    H137452   3.637   6.401   7.827  0.2201 -0.4597 -0.6745
 4419TIP3    H237453   3.620   6.268   7.757  1.5127 -2.4831  2.6231
 4420TIP3   OH237454   0.595   4.973   8.855  0.4427  0.0779  0.0571
 4420TIP3    H137455   0.569   4.997   8.944 -0.5888 -0.0081 -0.2083
 4420TIP3    H237456   0.548   4.891   8.837  1.5818 -0.5447 -0.1372
 4421TIP3   OH237457   4.508   7.462   7.915 -0.2151  0.6449 -0.7407
 4421TIP3    H137458   4.522   7.372   7.883  1.0637  0.3856  0.4774
 4421TIP3    H237459   4.458   7.504   7.845 -0.6028 -0.9321 -1.4615
 4422TIP3   OH237460   0.710   4.706   8.991 -0.0649  0.3376 -0.3564
 4422TIP3    H137461   0.640   4.718   8.928 -0.5558  0.2259  0.1546
 4422TIP3    H237462   0.695   4.774   9.057 -0.2671 -0.2791  0.2489
 4423TIP3   OH237463   3.721   1.044   7.340 -0.7855  0.0920 -0.2578
 4423TIP3    H137464   3.728   1.138   7.324  3.1943 -0.1051 -0.6090
 4423TIP3    H237465   3.769   1.004   7.268 -1.7963 -2.2294  0.2642
 4424TIP3   OH237466   1.749   4.746   8.577  0.5764  0.2365 -0.0680
 4424TIP3    H137467   1.773   4.740   8.670  1.1475  0.8597 -0.1711
 4424TIP3    H237468   1.831   4.765   8.532  0.2636  0.1439 -0.6780
 4425TIP3   OH237469   5.888   4.419   6.496  0.3939 -0.4915 -0.3315
 4425TIP3    H137470   5.952   4.471   6.448  2.2143 -2.5226 -0.2253
 4425TIP3    H237471   5.829   4.386   6.428 -1.0351  1.8936 -0.3623
 4426TIP3   OH237472   3.147   3.151   6.812  0.0579  0.2542  0.6214
 4426TIP3    H137473   3.191   3.097   6.879 -0.4176 -0.2224  0.5547
 4426TIP3    H237474   3.120   3.230   6.859 -0.0261  0.0458  0.9283
 4427TIP3   OH237475   1.221   3.884   8.272  0.2261 -0.3831 -0.0520
 4427TIP3    H137476   1.194   3.793   8.273  1.4704 -0.7676 -0.0236
 4427TIP3    H237477   1.309   3.883   8.236 -0.6401  1.0780 -2.5075
 4428TIP3   OH237478   0.235   3.092   8.483  0.1082 -0.3686  0.0330
 4428TIP3    H137479   0.163   3.127   8.535  1.7165 -0.2622  2.3282
 4428TIP3    H237480   0.255   3.008   8.523  0.1908 -1.1989 -1.6576
 4429TIP3   OH237481   0.856   2.745   6.612  0.9874  0.0909 -0.3321
 4429TIP3    H137482   0.897   2.666   6.577  2.5550  1.1615 -1.0763
 4429TIP3    H237483   0.769   2.747   6.573  0.0990 -2.2949  1.3247
 4430TIP3   OH237484   2.573   7.547   9.008  0.2262 -0.8569  0.0794
 4430TIP3    H137485   2.481   7.526   9.022  0.4460 -1.4560  0.6287
 4430TIP3    H237486   2.601   7.488   8.937  0.7144 -2.1394  1.2949
 4431TIP3   OH237487   1.293   4.731   8.554  0.5421  0.0976 -0.5284
 4431TIP3    H137488   1.234   4.668   8.594  0.1323  0.9564  0.2532
 4431TIP3    H237489   1.358   4.749   8.622  1.2606 -0.2325 -1.1020
 4432TIP3   OH237490   3.205   6.885   8.251 -0.8790 -0.0608 -0.4915
 4432TIP3    H137491   3.137   6.843   8.198 -0.1881 -2.1648  0.1904
 4432TIP3    H237492   3.287   6.861   8.209 -0.4739  1.0533 -0.3601
 4433TIP3   OH237493   4.454   1.852   8.077 -0.0485 -0.5003 -0.0200
 4433TIP3    H137494   4.510   1.824   8.005  1.4803  1.0894  0.4802
 4433TIP3    H237495   4.420   1.937   8.049 -0.4542 -0.4472  0.6143
 4434TIP3   OH237496   0.441   2.169   8.897 -0.1406 -0.1098  0.6698
 4434TIP3    H137497   0.485   2.240   8.850 -1.2595 -0.6076 -1.2474
 4434TIP3    H237498   0.451   2.192   8.989 -2.4260  3.8288  0.1716
 4435TIP3   OH237499   7.163   7.244   9.111  0.1284 -0.1194 -0.2535
 4435TIP3    H137500   7.100   7.302   9.154  0.2732 -0.6245  0.6719
 4435TIP3    H237501   7.205   7.197   9.183 -0.6807 -2.1161 -1.0140
 4436TIP3   OH237502   5.052   2.287   9.473  0.0108  0.2616  0.3537
 4436TIP3    H137503   5.107   2.209   9.480 -0.7156 -0.3690 -0.5889
 4436TIP3    H237504   4.965   2.257   9.501  0.0367  1.1400  1.4500
 4437TIP3   OH237505   6.918   7.203   8.628  0.2503  0.4043 -0.2254
 4437TIP3    H137506   6.995   7.218   8.574  0.5874 -1.6449 -0.3961
 4437TIP3    H237507   6.953   7.163   8.709 -0.6316 -1.2848 -0.6245
 4438TIP3   OH237508   4.196   0.866   7.535 -0.3775  0.1832 -0.2941
 4438TIP3    H137509   4.162   0.814   7.462  1.4413 -0.3114 -0.8384
 4438TIP3    H237510   4.213   0.953   7.497 -1.0387  0.4477 -0.0079
 4439TIP3   OH237511   4.241   7.064   7.680 -0.0657  0.6966 -0.4512
 4439TIP3    H137512   4.315   7.011   7.648  0.1281 -0.7721  2.1434
 4439TIP3    H237513   4.169   7.041   7.622  0.6770 -0.4633 -0.9624
 4440TIP3   OH237514   1.786   5.393   9.446 -0.6563  0.1599 -0.3292
 4440TIP3    H137515   1.725   5.320   9.456 -0.8380  0.3212 -0.2695
 4440TIP3    H237516   1.852   5.361   9.384 -1.0389  0.1473 -0.7294
 4441TIP3   OH237517   6.109   1.807   8.685  0.2388 -0.0544 -0.2291
 4441TIP3    H137518   6.037   1.868   8.703 -0.2494  0.6198 -3.7589
 4441TIP3    H237519   6.164   1.854   8.622  3.3457 -0.9430  1.6006
 4442TIP3   OH237520   2.177   2.453   8.522  0.2469 -0.2590 -1.0705
 4442TIP3    H137521   2.208   2.491   8.439 -0.5522  0.5847 -0.9985
 4442TIP3    H237522   2.178   2.527   8.583 -3.6369  0.3504 -1.5147
 4443TIP3   OH237523   6.210   5.773   6.780 -0.1827  0.4981  0.2246
 4443TIP3    H137524   6.194   5.866   6.797  3.0030  1.0438  0.8232
 4443TIP3    H237525   6.281   5.773   6.715 -0.4397 -1.5291 -0.1002
 4444TIP3   OH237526   7.292   6.380   7.934 -0.4603 -0.5370  0.8529
 4444TIP3    H137527   7.358   6.311   7.934 -0.0438 -0.2435 -1.9373
 4444TIP3    H237528   7.209   6.334   7.921 -0.6495 -0.7348  2.4766
 4445TIP3   OH237529   1.841   5.916   8.300  0.7875 -0.2772  0.4721
 4445TIP3    H137530   1.918   5.861   8.285 -0.0038 -1.4951  0.7202
 4445TIP3    H237531   1.772   5.874   8.249  0.3256  0.9150  0.0911
 4446TIP3   OH237532   5.016   4.018   7.133  0.3377  0.4185 -0.3377
 4446TIP3    H137533   5.022   4.114   7.132  0.1264  0.4926  1.6143
 4446TIP3    H237534   4.956   3.998   7.205  1.4000 -1.2128  0.1692
 4447TIP3   OH237535   4.507   1.777   8.804  0.6674 -0.0113 -0.2281
 4447TIP3    H137536   4.426   1.761   8.756 -0.1263  1.4422  0.5647
 4447TIP3    H237537   4.540   1.690   8.825 -1.0277 -0.6279 -0.0161
 4448TIP3   OH237538   1.978   0.555   9.028  0.2571 -0.1578  0.2758
 4448TIP3    H137539   2.001   0.463   9.011 -0.7441 -0.7067  1.7239
 4448TIP3    H237540   1.982   0.563   9.124 -0.7361  1.0115  0.2369
 4449TIP3   OH237541   6.664   6.057   8.909  0.5516  0.3603  0.4339
 4449TIP3    H137542   6.605   6.118   8.952 -1.0944 -0.1668 -0.9617
 4449TIP3    H237543   6.711   6.110   8.845  0.6987  0.5597  0.7069
 4450TIP3   OH237544   1.367   6.745   7.549 -0.1826  0.1662  0.0463
 4450TIP3    H137545   1.402   6.703   7.627 -0.9626 -0.3469  0.1273
 4450TIP3    H237546   1.276   6.715   7.543 -0.4411  1.0031 -0.4890
 4451TIP3   OH237547   6.249   3.510   8.752 -0.2101 -0.0230  0.4682
 4451TIP3    H137548   6.183   3.518   8.684  0.0210  0.0204  0.2478
 4451TIP3    H237549   6.250   3.417   8.774 -0.3162 -0.0295  0.4451
 4452TIP3   OH237550   6.959   2.539   7.839  0.0107 -0.5332  0.0748
 4452TIP3    H137551   7.038   2.544   7.893 -0.3724 -0.5384  0.6448
 4452TIP3    H237552   6.957   2.448   7.808  1.0817 -0.1277 -1.2638
 4453TIP3   OH237553   1.150   1.340   8.177  0.0904  0.0666 -0.3206
 4453TIP3    H137554   1.082   1.344   8.244  1.0835  0.2626  0.7113
 4453TIP3    H237555   1.102   1.341   8.094 -1.1171  1.5575  0.3461
 4454TIP3   OH237556   7.121   5.056   9.004  0.7370  0.2867 -0.4710
 4454TIP3    H137557   7.196   5.115   8.998  0.7249  0.1959 -1.8447
 4454TIP3    H237558   7.045   5.114   9.010  0.8310  0.3889 -0.2614
 4455TIP3   OH237559   1.592   7.371   7.296 -0.2816  0.3708  0.8634
 4455TIP3    H137560   1.564   7.281   7.287 -0.6560  0.6360 -0.8531
 4455TIP3    H237561   1.688   7.367   7.291 -0.2894  0.0703  0.9325
 4456TIP3   OH237562   6.761   1.540   6.912 -0.1162 -0.5589 -0.1425
 4456TIP3    H137563   6.772   1.495   6.827  0.0475 -0.6778 -0.0596
 4456TIP3    H237564   6.818   1.616   6.906  0.4494 -0.9487  0.1268
 4457TIP3   OH237565   1.112   7.271   7.487  0.5588  0.1604  0.0605
 4457TIP3    H137566   1.025   7.258   7.449  0.3257 -1.1712  0.9699
 4457TIP3    H237567   1.154   7.185   7.479  1.9854  0.8896 -0.7851
 4458TIP3   OH237568   0.750   1.914   6.605 -0.1194  0.4282 -0.6559
 4458TIP3    H137569   0.684   1.922   6.535 -1.5718  0.4141  0.6590
 4458TIP3    H237570   0.765   1.820   6.613 -0.6536  0.3626 -0.3463
 4459TIP3   OH237571   5.764   2.436   7.044 -0.3137 -0.0840  0.1358
 4459TIP3    H137572   5.679   2.459   7.004 -1.0006  1.0932  2.1332
 4459TIP3    H237573   5.775   2.343   7.024 -1.0608  0.2030 -1.9009
 4460TIP3   OH237574   6.566   7.365   8.479 -0.5985  0.4178 -0.2901
 4460TIP3    H137575   6.651   7.383   8.519 -1.2269  1.0284  0.8157
 4460TIP3    H237576   6.550   7.272   8.497 -0.3384  0.3956 -0.1712
 4461TIP3   OH237577   5.751   6.269   7.767  0.3155 -0.7641  0.3597
 4461TIP3    H137578   5.657   6.280   7.782  0.3075 -1.1232  0.5700
 4461TIP3    H237579   5.757   6.215   7.688  0.3345 -1.5591  0.8955
 4462TIP3   OH237580   4.239   3.551   9.221  0.0497  0.0269 -0.2872
 4462TIP3    H137581   4.330   3.580   9.211  0.3676  0.7812  3.5002
 4462TIP3    H237582   4.187   3.631   9.211 -0.3720 -0.4766 -2.9381
 4463TIP3   OH237583   1.231   0.061   9.490 -0.0968  0.1197 -0.3351
 4463TIP3    H137584   1.215   0.108   9.572 -0.4345  0.2531 -0.4762
 4463TIP3    H237585   1.198  -0.027   9.506 -2.7500  0.8773 -1.2356
 4464TIP3   OH237586   5.055   5.793   7.535  0.4019 -0.0959 -0.3297
 4464TIP3    H137587   4.982   5.844   7.498  0.6598 -1.5695 -3.2084
 4464TIP3    H237588   5.013   5.723   7.584 -0.1220 -0.2112 -0.9232
 4465TIP3   OH237589   3.545   5.585   8.045  0.9978  0.2572  0.1952
 4465TIP3    H137590   3.633   5.613   8.071  1.2483 -0.0349 -0.3205
 4465TIP3    H237591   3.517   5.527   8.116  0.5081  1.7011  1.2277
 4466TIP3   OH237592   2.122   4.873   8.668 -0.0452  0.3095  0.2768
 4466TIP3    H137593   2.094   4.863   8.577  1.4948 -2.3478 -0.0188
 4466TIP3    H237594   2.216   4.888   8.663 -0.0186  0.6174  1.4214
 4467TIP3   OH237595   4.442   0.899   8.247 -0.5779  0.1450 -0.2142
 4467TIP3    H137596   4.452   0.869   8.337 -1.8898  0.8401  0.1873
 4467TIP3    H237597   4.532   0.907   8.214 -0.1236 -1.4864  0.5405
 4468TIP3   OH237598   0.003   6.868   8.216  0.0590  0.7609 -0.2369
 4468TIP3    H137599   0.034   6.868   8.125 -1.0697  0.6952 -0.6378
 4468TIP3    H237600  -0.067   6.934   8.218 -1.2488 -0.5720  0.0888
 4469TIP3   OH237601   4.640   4.612   7.984  0.4863  0.1559 -0.5894
 4469TIP3    H137602   4.611   4.703   7.982 -3.1875 -0.8300  0.1423
 4469TIP3    H237603   4.637   4.583   7.893 -0.6216  0.1975 -0.5809
 4470TIP3   OH237604   1.804   6.646   8.992  0.1003 -0.2302  0.5735
 4470TIP3    H137605   1.722   6.691   8.973 -0.5846 -1.2790  0.9779
 4470TIP3    H237606   1.817   6.587   8.917  0.1724 -0.4932  0.7924
 4471TIP3   OH237607   6.860   6.623   7.622 -0.4958  0.1135 -0.1257
 4471TIP3    H137608   6.813   6.703   7.645 -1.0935 -0.5291  0.9868
 4471TIP3    H237609   6.929   6.616   7.688 -0.7723 -0.5459  0.1029
 4472TIP3   OH237610   1.568   6.050   8.688  0.3988 -0.0769  0.2255
 4472TIP3    H137611   1.546   5.986   8.620  1.2625 -1.1126  0.8835
 4472TIP3    H237612   1.662   6.063   8.678  0.1272  1.6662 -0.3507
 4473TIP3   OH237613   4.028   2.588   9.211 -0.0021  0.7215  0.0277
 4473TIP3    H137614   3.992   2.677   9.203 -1.5747  0.2120  0.8774
 4473TIP3    H237615   3.950   2.532   9.217  0.9569 -0.7760 -0.9695
 4474TIP3   OH237616   2.233   3.467   8.330  0.5133 -0.3325  0.1036
 4474TIP3    H137617   2.181   3.395   8.366  1.7638 -2.1319 -1.5149
 4474TIP3    H237618   2.315   3.463   8.379  0.0248  1.0602  1.0949
 4475TIP3   OH237619   3.310   2.881   9.521 -0.0712  0.1966  0.2547
 4475TIP3    H137620   3.234   2.873   9.464  1.6851  2.1085 -2.6412
 4475TIP3    H237621   3.281   2.937   9.593 -2.4395 -2.5331  1.6204
 4476TIP3   OH237622   2.526   2.495   8.889 -0.0269  0.2178 -0.0727
 4476TIP3    H137623   2.491   2.584   8.878  1.6355  0.6039 -3.6530
 4476TIP3    H237624   2.615   2.507   8.920  0.0010 -0.2730  0.0517
 4477TIP3   OH237625   0.332   3.028   8.745  0.4493  0.2598  0.0001
 4477TIP3    H137626   0.287   3.009   8.828  1.3674  0.7116  0.6198
 4477TIP3    H237627   0.321   2.949   8.693 -1.1006  0.3690  0.1053
 4478TIP3   OH237628   6.455   5.072   9.229  0.0503 -0.1380 -0.3088
 4478TIP3    H137629   6.395   5.094   9.300  0.1414  0.8089 -0.5125
 4478TIP3    H237630   6.399   5.047   9.156 -0.0580 -0.4740 -0.1136
 4479TIP3   OH237631   2.579   7.140   7.678  0.6657  0.4400 -0.1446
 4479TIP3    H137632   2.521   7.087   7.623  0.8057 -0.2097  0.3304
 4479TIP3    H237633   2.626   7.077   7.732  1.2039  1.0180  0.0731
 4480TIP3   OH237634   5.172   7.343   9.205 -0.0754  0.0491 -0.4975
 4480TIP3    H137635   5.154   7.318   9.296 -0.6873 -0.2538 -0.7019
 4480TIP3    H237636   5.153   7.264   9.154  0.6772  0.0876 -0.8494
 4481TIP3   OH237637   2.115   6.630   8.431 -0.4594 -0.3001  0.3589
 4481TIP3    H137638   2.021   6.638   8.441 -0.4122  1.6458 -0.2967
 4481TIP3    H237639   2.128   6.619   8.336  0.0674  3.1050 -0.0961
 4482TIP3   OH237640   0.745   0.767   9.094  0.2620  0.7061  0.1959
 4482TIP3    H137641   0.664   0.819   9.097 -0.6970 -0.6976 -0.1373
 4482TIP3    H237642   0.747   0.732   9.004  0.8937  0.2077  0.4002
 4483TIP3   OH237643   7.326   5.984   8.381 -0.0262 -0.4894  0.4557
 4483TIP3    H137644   7.321   6.057   8.443  0.3778 -0.5421  0.5483
 4483TIP3    H237645   7.254   6.001   8.319  1.5079  1.3011 -0.9511
 4484TIP3   OH237646   2.867   1.033   8.874  0.1360 -0.3770  0.0182
 4484TIP3    H137647   2.928   1.060   8.942 -0.4130 -0.5879  0.6051
 4484TIP3    H237648   2.884   0.939   8.861  0.4282 -0.2786 -0.3394
 4485TIP3   OH237649   0.078   3.963   7.922 -0.0401 -0.7005  0.1119
 4485TIP3    H137650   0.084   4.031   7.856  1.9786 -1.5878 -0.7260
 4485TIP3    H237651   0.141   3.990   7.989 -1.1696 -0.4334  1.0937
 4486TIP3   OH237652   2.688   0.033   9.349 -0.3413 -0.0521 -0.1536
 4486TIP3    H137653   2.629  -0.041   9.334  1.5976 -1.7395 -0.0363
 4486TIP3    H237654   2.750   0.028   9.276 -1.7969  3.3290 -1.8294
 4487TIP3   OH237655   4.527   5.453   7.396 -0.2215  0.9035 -0.6149
 4487TIP3    H137656   4.611   5.406   7.397  0.0589  1.3984 -0.4450
 4487TIP3    H237657   4.518   5.484   7.305 -0.4590  0.4394 -0.7543
 4488TIP3   OH237658   4.088   4.679   7.996 -0.4698  0.0739 -0.1543
 4488TIP3    H137659   4.141   4.644   7.924  0.5829  2.9685 -0.9094
 4488TIP3    H237660   3.998   4.668   7.967 -0.2372 -1.8903 -0.3169
 4489TIP3   OH237661   4.316   0.601   7.438 -0.7584  0.1546 -0.1493
 4489TIP3    H137662   4.327   0.688   7.400 -0.3164  0.0165 -0.3392
 4489TIP3    H237663   4.222   0.585   7.435 -0.6983 -0.0955 -1.7263
 4490TIP3   OH237664   3.060   2.733   8.147 -0.1196 -0.0813 -0.3707
 4490TIP3    H137665   3.104   2.682   8.079 -0.1101  0.5138 -0.8148
 4490TIP3    H237666   3.025   2.667   8.208 -3.8480 -0.9730 -3.1240
 4491TIP3   OH237667   3.571   3.305   8.559  0.3053 -0.6018  0.0761
 4491TIP3    H137668   3.597   3.253   8.483  0.2388 -1.2559  0.4935
 4491TIP3    H237669   3.557   3.393   8.524 -0.7301 -1.1137 -0.8603
 4492TIP3   OH237670   5.147   7.135   7.413  0.1723  0.5454 -0.6699
 4492TIP3    H137671   5.192   7.195   7.353 -0.8032  1.5491 -0.4461
 4492TIP3    H237672   5.098   7.193   7.472 -0.9012 -0.4786 -0.5114
 4493TIP3   OH237673   2.264   6.499   6.664  0.4724 -0.0795 -0.3951
 4493TIP3    H137674   2.267   6.571   6.600  0.7790  0.9448  0.7233
 4493TIP3    H237675   2.170   6.487   6.682  0.2709 -1.4408 -2.1554
 4494TIP3   OH237676   2.296   7.651   9.525 -0.2512  0.1192  0.1114
 4494TIP3    H137677   2.217   7.685   9.483 -0.0001 -0.7035 -1.0850
 4494TIP3    H237678   2.266   7.616   9.609 -0.7979  1.6648  0.5974
 4495TIP3   OH237679   5.389   1.425   9.418  0.0141 -0.5291  0.3194
 4495TIP3    H137680   5.358   1.486   9.484 -0.8663  2.1551 -2.3698
 4495TIP3    H237681   5.314   1.368   9.400 -0.3924  0.0246  0.2547
 4496TIP3   OH237682   4.822   5.496   8.312  0.5427  0.2368  0.1247
 4496TIP3    H137683   4.770   5.546   8.375 -0.7447  0.6002 -1.1597
 4496TIP3    H237684   4.864   5.563   8.257 -1.8444  0.0380 -2.1293
 4497TIP3   OH237685   0.700   1.279   8.267 -0.1610 -0.5519 -0.1033
 4497TIP3    H137686   0.656   1.358   8.300  0.3069 -0.6843  0.8849
 4497TIP3    H237687   0.628   1.221   8.241 -0.6569 -0.9837  2.0196
 4498TIP3   OH237688   6.440   3.766   8.167 -0.1002  0.8201 -0.1472
 4498TIP3    H137689   6.477   3.678   8.163 -2.4819 -0.2018 -1.2830
 4498TIP3    H237690   6.508   3.818   8.210  1.8289 -1.3023 -0.4349
 4499TIP3   OH237691   3.264   6.687   7.369 -0.2151 -0.6322 -0.8652
 4499TIP3    H137692   3.203   6.758   7.388 -1.0331 -1.7003  0.7187
 4499TIP3    H237693   3.294   6.657   7.455 -0.1680 -2.4436 -1.4610
 4500TIP3   OH237694   1.687   5.581   7.518 -0.0213  0.2116  0.4734
 4500TIP3    H137695   1.733   5.586   7.435 -0.8867 -0.9224 -0.1000
 4500TIP3    H237696   1.725   5.505   7.563 -0.0368  0.3997  0.8091
 4501TIP3   OH237697   6.745   5.900   8.557  0.1579  0.0053  0.4220
 4501TIP3    H137698   6.720   5.875   8.646 -1.4145 -1.6434 -0.4021
 4501TIP3    H237699   6.661   5.909   8.511  0.9314  1.0607 -0.8358
 4502TIP3   OH237700   4.471   6.127   8.923  0.1747 -0.4525 -0.1617
 4502TIP3    H137701   4.435   6.062   8.983  1.9865  0.2108  1.7662
 4502TIP3    H237702   4.545   6.083   8.882  1.8082  0.4924  1.6268
 4503TIP3   OH237703   3.591   0.305   7.944 -0.3876  0.2629 -0.3743
 4503TIP3    H137704   3.609   0.383   7.997  0.1212  0.6600 -1.1145
 4503TIP3    H237705   3.500   0.314   7.918 -0.2669  0.7459 -0.6552
 4504TIP3   OH237706   1.096   2.949   6.563 -0.0240 -0.3726  0.2333
 4504TIP3    H137707   1.030   2.894   6.606  1.2682 -1.6583  0.6476
 4504TIP3    H237708   1.075   2.942   6.470 -2.0707  1.4215  0.4831
 4505TIP3   OH237709   5.856   1.362   7.582 -0.1774 -0.1431 -0.2462
 4505TIP3    H137710   5.864   1.456   7.566  0.8509  0.0960  1.4028
 4505TIP3    H237711   5.946   1.332   7.599 -0.7508 -0.8557  1.8939
 4506TIP3   OH237712   5.298   2.996   8.038  0.3306  0.3688 -0.1168
 4506TIP3    H137713   5.387   3.011   8.069  0.1557  0.9030  0.1380
 4506TIP3    H237714   5.245   3.064   8.081 -0.2902 -0.2615  0.1443
 4507TIP3   OH237715   5.933   0.248   9.307 -0.5130 -0.6625  0.4018
 4507TIP3    H137716   5.956   0.329   9.352 -1.4246 -0.5268  0.6436
 4507TIP3    H237717   5.856   0.215   9.354 -0.3915 -1.4598  0.0587
 4508TIP3   OH237718   3.127   7.420   9.239  0.5493 -0.2018 -0.5768
 4508TIP3    H137719   3.047   7.370   9.223  1.4289 -1.7631 -0.2610
 4508TIP3    H237720   3.194   7.354   9.259  1.2726  1.1810  2.0921
 4509TIP3   OH237721   5.656   1.623   8.831 -0.2216  0.2744 -0.2781
 4509TIP3    H137722   5.565   1.594   8.834 -0.6175  1.4632 -0.1814
 4509TIP3    H237723   5.671   1.665   8.916  1.1359 -1.8793  0.6184
 4510TIP3   OH237724   2.905   4.075   7.186  0.1133 -0.3167 -0.2423
 4510TIP3    H137725   2.984   4.029   7.155  2.1458  2.3111  0.6308
 4510TIP3    H237726   2.935   4.164   7.203 -2.7568  0.4211  1.5961
 4511TIP3   OH237727   1.319   0.180   9.242 -0.1936 -0.3451  0.0324
 4511TIP3    H137728   1.288   0.187   9.332  0.5610  0.3083  0.2555
 4511TIP3    H237729   1.239   0.185   9.189 -0.6243 -0.5053  0.6488
 4512TIP3   OH237730   3.517   1.194   9.045 -0.0103 -0.7460  0.2736
 4512TIP3    H137731   3.582   1.148   9.098  0.9540 -0.7484 -0.8585
 4512TIP3    H237732   3.567   1.230   8.972 -0.8024  1.6886  0.8231
 4513TIP3   OH237733   7.138   0.284   7.755 -0.0801  0.0780 -0.2220
 4513TIP3    H137734   7.046   0.309   7.741 -0.3839 -0.7406  0.2223
 4513TIP3    H237735   7.154   0.301   7.848 -0.2885 -1.3009  0.0860
 4514TIP3   OH237736   5.471   1.416   7.778  0.4941 -0.0019  0.1667
 4514TIP3    H137737   5.538   1.373   7.832  0.8785  1.7347  1.1619
 4514TIP3    H237738   5.487   1.385   7.690  1.9483 -0.4435  0.5597
 4515TIP3   OH237739   1.164   3.589   7.627 -0.5537  0.2200 -0.0130
 4515TIP3    H137740   1.076   3.561   7.602 -0.0792 -0.2185 -1.2708
 4515TIP3    H237741   1.222   3.522   7.589  0.5510  2.2736 -2.1559
 4516TIP3   OH237742   3.338   4.161   6.733  0.2013 -0.1515  0.3144
 4516TIP3    H137743   3.353   4.256   6.734  1.7488 -0.3685  1.6044
 4516TIP3    H237744   3.402   4.126   6.795  0.4241 -2.1698 -0.9620
 4517TIP3   OH237745   3.546   1.206   6.946  0.1414  0.3518 -0.3205
 4517TIP3    H137746   3.491   1.207   6.868 -1.7879 -0.7748  0.9347
 4517TIP3    H237747   3.621   1.152   6.921 -1.4596 -1.8070 -0.8389
 4518TIP3   OH237748   4.290   0.537   6.779 -0.3606  0.2368 -0.4670
 4518TIP3    H137749   4.295   0.621   6.733  0.7054 -0.3846 -1.5488
 4518TIP3    H237750   4.358   0.484   6.738 -0.7124 -1.0061  0.5178
 4519TIP3   OH237751   0.351   6.721   9.430 -0.2172  0.1638 -0.1531
 4519TIP3    H137752   0.368   6.803   9.476 -0.1405  1.4280 -2.2821
 4519TIP3    H237753   0.437   6.686   9.410 -0.2289 -1.0805  1.6811
 4520TIP3   OH237754   3.778   3.859   8.520 -0.0615  0.4158  0.0947
 4520TIP3    H137755   3.740   3.873   8.606  2.3093  0.9705  1.1190
 4520TIP3    H237756   3.789   3.764   8.514  0.8102  0.4519  0.9119
 4521TIP3   OH237757   1.907   4.770   6.760  0.4693 -0.1761 -0.0216
 4521TIP3    H137758   1.993   4.749   6.796 -0.0600 -0.8619  0.8835
 4521TIP3    H237759   1.897   4.864   6.775  1.6633  0.2181 -1.4838
 4522TIP3   OH237760   2.810   5.103   9.335  0.0088 -0.4146 -0.3994
 4522TIP3    H137761   2.863   5.099   9.255  0.2580  1.3736 -0.3740
 4522TIP3    H237762   2.809   5.013   9.368  1.3900 -0.8553 -1.4579
 4523TIP3   OH237763   0.431   0.857   9.345  0.4082 -0.7200  0.1268
 4523TIP3    H137764   0.485   0.898   9.278  1.7048 -2.2715  0.1541
 4523TIP3    H237765   0.461   0.894   9.427  0.7424 -0.8419  0.0594
 4524TIP3   OH237766   6.786   5.178   8.518  0.2113  0.1441  0.0197
 4524TIP3    H137767   6.695   5.188   8.544  0.4973 -0.1245  1.2088
 4524TIP3    H237768   6.786   5.187   8.423 -1.0879 -0.1204 -0.0172
 4525TIP3   OH237769   7.484   3.206   6.694  0.2672 -0.0988  0.1750
 4525TIP3    H137770   7.522   3.147   6.628 -0.8556 -0.2670 -0.3496
 4525TIP3    H237771   7.539   3.284   6.689  0.6624 -0.3978 -0.4322
 4526TIP3   OH237772   4.118   4.738   7.613  0.0128  0.4493  0.1880
 4526TIP3    H137773   4.148   4.657   7.653 -0.5246 -0.2639 -0.8000
 4526TIP3    H237774   4.137   4.806   7.678  0.7500 -0.4177  0.9027
 4527TIP3   OH237775   2.863   6.599   7.944  0.1904 -0.2724 -0.0631
 4527TIP3    H137776   2.792   6.608   7.880 -0.9470  0.0489  1.1843
 4527TIP3    H237777   2.864   6.505   7.964  0.8063 -0.4334 -0.8167
 4528TIP3   OH237778   6.393   1.683   8.667 -0.0469 -0.0511  0.7049
 4528TIP3    H137779   6.299   1.676   8.651 -0.7106  1.4165  3.3489
 4528TIP3    H237780   6.404   1.660   8.759  2.2462 -0.3751  0.4202
 4529TIP3   OH237781   2.421   3.422   8.528  0.0178 -0.2466 -0.3338
 4529TIP3    H137782   2.345   3.407   8.584  0.6192  1.0452  0.8802
 4529TIP3    H237783   2.444   3.336   8.494 -0.5044 -1.0247  1.2196
 4530TIP3   OH237784   1.493   0.255   7.736  0.0435  0.5801 -0.0692
 4530TIP3    H137785   1.571   0.273   7.684  1.0637 -1.3480  0.6607
 4530TIP3    H237786   1.504   0.309   7.814 -1.0786  2.8467 -1.4033
 4531TIP3   OH237787   0.943   2.994   8.611  0.3369  0.6197 -0.1786
 4531TIP3    H137788   0.855   3.020   8.583  0.9769  2.0707 -0.9633
 4531TIP3    H237789   0.969   2.925   8.550 -0.1879  0.3003 -0.0463
 4532TIP3   OH237790   1.063   5.197   9.178 -0.1568 -0.6016 -0.0034
 4532TIP3    H137791   1.081   5.272   9.235 -0.6334 -1.0707  0.7831
 4532TIP3    H237792   1.139   5.191   9.121  0.2806 -0.0514  0.5094
 4533TIP3   OH237793   5.437   6.044   8.479 -0.3471 -0.2453  0.1241
 4533TIP3    H137794   5.414   5.955   8.454 -0.3226 -0.4722  0.8872
 4533TIP3    H237795   5.384   6.100   8.422 -0.8904 -0.7493  0.1367
 4534TIP3   OH237796   4.693   3.595   8.874 -0.1804  0.1840 -0.2623
 4534TIP3    H137797   4.749   3.671   8.889 -4.1088  2.8712  2.9481
 4534TIP3    H237798   4.696   3.581   8.779  2.9369  2.3960 -0.6319
 4535TIP3   OH237799   0.189   1.589   7.858  0.3618 -0.1973  0.5745
 4535TIP3    H137800   0.282   1.573   7.840  0.5443  1.6444 -0.3870
 4535TIP3    H237801   0.167   1.664   7.804 -2.2884 -1.8701 -0.8791
 4536TIP3   OH237802   1.072   0.448   9.628  0.7272 -0.0314  0.1302
 4536TIP3    H137803   1.113   0.371   9.669  1.2583  1.4229  2.5548
 4536TIP3    H237804   1.146   0.503   9.602  0.3680  0.9170  1.0669
 4537TIP3   OH237805   2.488   2.997   7.389 -0.1854  0.3649  0.1566
 4537TIP3    H137806   2.397   3.026   7.396 -1.4474 -3.1408  0.6961
 4537TIP3    H237807   2.487   2.934   7.317  1.9638  0.5925 -0.1342
 4538TIP3   OH237808   0.075   5.361   7.798  0.3366  0.1754 -0.2242
 4538TIP3    H137809   0.063   5.317   7.714 -0.8814  0.9676 -0.4895
 4538TIP3    H237810   0.148   5.314   7.840  0.0098 -1.1558 -1.0910
 4539TIP3   OH237811   5.346   0.952   8.178 -0.3622  0.7753 -0.1171
 4539TIP3    H137812   5.436   0.956   8.145 -0.3246  2.0346  0.0928
 4539TIP3    H237813   5.291   0.974   8.102 -0.6413 -1.5854 -0.6822
 4540TIP3   OH237814   2.742   1.070   7.000  0.0447  0.6809  0.0936
 4540TIP3    H137815   2.696   1.015   6.937  0.2538  0.6855 -0.0632
 4540TIP3    H237816   2.680   1.140   7.021  0.1286  0.9134 -0.4224
 4541TIP3   OH237817   5.180   7.079   8.436 -0.2561 -0.0283  0.1314
 4541TIP3    H137818   5.100   7.131   8.437 -0.2116  0.0710 -0.6909
 4541TIP3    H237819   5.170   7.021   8.361  1.3136  1.4096 -1.2839
 4542TIP3   OH237820   2.679   7.422   9.642 -0.3535  0.0439  0.3781
 4542TIP3    H137821   2.684   7.327   9.654 -1.1186 -0.2644 -1.3439
 4542TIP3    H237822   2.644   7.433   9.553 -4.2132  1.9123  1.9079
 4543TIP3   OH237823   2.953   2.848   7.748 -0.4782 -0.0599 -0.2999
 4543TIP3    H137824   2.876   2.854   7.691 -0.5866 -1.5887 -0.3598
 4543TIP3    H237825   3.008   2.782   7.706  0.1891 -0.0496  0.5329
 4544TIP3   OH237826   3.792   7.136   6.821  0.3986  0.4081 -0.6011
 4544TIP3    H137827   3.780   7.041   6.818  3.1852 -0.0346 -0.5437
 4544TIP3    H237828   3.721   7.171   6.767 -0.2005 -1.7548 -1.3217
 4545TIP3   OH237829   4.018   5.098   8.093 -0.5427 -0.0886 -0.7567
 4545TIP3    H137830   4.080   5.069   8.160 -0.8667 -0.2989 -0.5455
 4545TIP3    H237831   4.073   5.139   8.026  0.0030 -1.7150 -1.3566
 4546TIP3   OH237832   4.851   6.927   7.592 -0.6375 -0.1841 -0.4936
 4546TIP3    H137833   4.812   7.013   7.604 -1.8370 -0.2828 -3.0813
 4546TIP3    H237834   4.942   6.944   7.567 -0.5082  0.2403  0.2286
 4547TIP3   OH237835   3.464   3.750   7.321  0.0058  0.2367 -0.4895
 4547TIP3    H137836   3.413   3.760   7.240 -0.4747  2.0379 -0.0114
 4547TIP3    H237837   3.555   3.762   7.294 -0.1475  0.7625 -0.7810
 4548TIP3   OH237838   3.897   1.004   8.852 -0.1667  0.3116  0.3688
 4548TIP3    H137839   3.977   0.956   8.831 -0.0056  0.5257  0.4877
 4548TIP3    H237840   3.881   1.059   8.775 -0.7128 -0.4058 -0.0411
 4549TIP3   OH237841   0.148   6.089   8.145  0.7163  0.3195  0.2881
 4549TIP3    H137842   0.218   6.133   8.193  1.0094 -0.5617  0.6987
 4549TIP3    H237843   0.071   6.099   8.201  0.9743 -0.3925  0.7888
 4550TIP3   OH237844   2.788   5.362   8.765 -0.2925 -0.0499 -0.3005
 4550TIP3    H137845   2.852   5.296   8.792 -0.1350  0.4319  0.5203
 4550TIP3    H237846   2.760   5.403   8.847  0.5174  1.7536 -0.8825
 4551TIP3   OH237847   5.464   7.113   7.390  0.3910  0.3042 -0.2088
 4551TIP3    H137848   5.406   7.039   7.377 -0.8308  0.9766  1.1622
 4551TIP3    H237849   5.463   7.160   7.307 -0.5509 -0.0327 -0.3914
 4552TIP3   OH237850   0.516   4.807   7.976 -0.0327 -0.2454  0.2866
 4552TIP3    H137851   0.572   4.734   7.950 -0.4788  0.0035 -1.5236
 4552TIP3    H237852   0.428   4.771   7.977 -0.3908  0.4871 -1.7141
 4553TIP3   OH237853   1.094   5.353   7.473 -0.7803 -0.1373 -0.1567
 4553TIP3    H137854   1.173   5.311   7.509  0.0819  1.8245  0.3716
 4553TIP3    H237855   1.021   5.304   7.511  0.1709 -0.8098  0.8751
 4554TIP3   OH237856   4.001   1.964   9.219  0.0471 -0.1124  0.4314
 4554TIP3    H137857   4.021   1.873   9.199 -0.0403  0.1922 -1.2242
 4554TIP3    H237858   3.908   1.964   9.242 -0.1236 -0.3583 -0.2420
 4555TIP3   OH237859   5.157   4.820   8.104  0.2205 -0.7084 -0.0353
 4555TIP3    H137860   5.159   4.807   8.199 -1.6771  0.9391  0.3018
 4555TIP3    H237861   5.074   4.782   8.075 -0.2620  0.7199 -0.6505
 4556TIP3   OH237862   0.604   2.352   8.747  0.4585  0.0313  0.1595
 4556TIP3    H137863   0.631   2.431   8.792  0.4212  0.2789 -0.2476
 4556TIP3    H237864   0.564   2.383   8.666 -1.6592 -0.2631  1.0056
 4557TIP3   OH237865   2.215   2.968   9.123 -0.5140  0.1259 -0.2385
 4557TIP3    H137866   2.185   2.928   9.205  0.9680 -0.2670  0.1376
 4557TIP3    H237867   2.134   2.992   9.077 -1.4793 -2.4107 -0.0385
 4558TIP3   OH237868   4.124   7.619   8.787  0.3375 -0.3642 -0.6432
 4558TIP3    H137869   4.109   7.526   8.774  1.5379 -0.5867 -0.5172
 4558TIP3    H237870   4.133   7.629   8.882  0.5602 -0.1718 -0.6828
 4559TIP3   OH237871   0.592   1.390   9.282  0.3014 -0.2508 -0.1175
 4559TIP3    H137872   0.627   1.318   9.230  3.1073  0.5586  0.5103
 4559TIP3    H237873   0.579   1.461   9.220  1.0696 -0.1478 -0.1701
 4560TIP3   OH237874   0.137   5.938   9.144 -0.1024 -0.0269 -0.3700
 4560TIP3    H137875   0.048   5.969   9.125  0.2867  1.0420 -0.4605
 4560TIP3    H237876   0.174   6.005   9.201 -0.1397 -1.6113  1.6337
 4561TIP3   OH237877   0.729   5.812   8.201 -0.2596  0.2810 -0.3619
 4561TIP3    H137878   0.754   5.904   8.210  0.9539 -0.1360  0.8784
 4561TIP3    H237879   0.689   5.789   8.284  1.8600 -0.9794  0.3795
 4562TIP3   OH237880   1.125   5.485   7.888 -0.1521  0.3340  0.4309
 4562TIP3    H137881   1.118   5.500   7.983  1.1612 -0.3405  0.6643
 4562TIP3    H237882   1.108   5.391   7.878  1.8917 -0.0634  0.3049
 4563TIP3   OH237883   6.358   0.867   9.239  0.3663 -0.2112  0.3114
 4563TIP3    H137884   6.412   0.795   9.272  1.4761 -0.0555 -1.0513
 4563TIP3    H237885   6.420   0.939   9.227 -0.5731  0.7161  0.8330
 4564TIP3   OH237886   5.774   1.966   9.262  0.0272  0.2485  0.3117
 4564TIP3    H137887   5.717   2.039   9.287  0.0528  0.4946 -0.3437
 4564TIP3    H237888   5.760   1.901   9.331  1.3702  1.5723  1.9218
 4565TIP3   OH237889   6.340   5.536   7.215 -0.2273 -0.2354 -0.0924
 4565TIP3    H137890   6.319   5.584   7.134  1.1119  1.4434  0.4770
 4565TIP3    H237891   6.353   5.446   7.187  0.7373  0.3989 -1.8887
 4566TIP3   OH237892   4.350   1.408   9.518 -0.0696  0.4434 -0.2625
 4566TIP3    H137893   4.312   1.320   9.516 -1.0002  0.8352 -0.4328
 4566TIP3    H237894   4.284   1.462   9.562  0.5784  1.0216  0.0247
 4567TIP3   OH237895   2.078   6.495   8.688 -0.1000  0.0035 -0.6467
 4567TIP3    H137896   2.094   6.520   8.597 -1.4124 -0.4036 -1.0091
 4567TIP3    H237897   2.083   6.400   8.688 -0.5081 -0.0196 -0.3705
 4568TIP3   OH237898   3.657   1.568   9.348  0.3177 -0.6488 -0.0034
 4568TIP3    H137899   3.679   1.478   9.371  0.4234 -0.9982 -1.3962
 4568TIP3    H237900   3.561   1.569   9.346  0.2423 -0.2266  1.8228
 4569TIP3   OH237901   2.040   4.632   7.699 -0.2777  0.3600  0.1196
 4569TIP3    H137902   2.055   4.717   7.658 -1.2698  0.5254  0.0816
 4569TIP3    H237903   1.948   4.611   7.678  0.5242 -1.7356 -1.7969
 4570TIP3   OH237904   0.666   4.798   8.626  0.1364 -0.6299 -0.2444
 4570TIP3    H137905   0.612   4.756   8.560  1.0269  1.5060 -2.4792
 4570TIP3    H237906   0.736   4.735   8.644 -1.2407 -2.0723  0.2582
 4571TIP3   OH237907   1.075   2.230   7.646  0.3315 -0.0158 -0.5005
 4571TIP3    H137908   0.982   2.248   7.631 -0.0066 -1.7636 -0.7470
 4571TIP3    H237909   1.095   2.273   7.728 -2.1082 -3.7478  2.4167
 4572TIP3   OH237910   7.027   6.579   7.840  0.0777 -0.6546 -0.1432
 4572TIP3    H137911   7.030   6.484   7.826  1.6030 -0.6169 -0.2075
 4572TIP3    H237912   7.054   6.591   7.931  1.1017 -0.2269 -0.4904
 4573TIP3   OH237913   4.959   2.319   8.203  0.3258 -0.2786  0.6819
 4573TIP3    H137914   4.984   2.251   8.266  0.6148  0.5204  1.4498
 4573TIP3    H237915   4.911   2.384   8.254  1.6913  1.0365  0.3879
 4574TIP3   OH237916   2.713   4.944   6.835  0.1910  0.2970  0.2584
 4574TIP3    H137917   2.754   4.965   6.919 -0.4493  1.0002  0.4049
 4574TIP3    H237918   2.770   4.877   6.797 -0.0855 -0.8629  1.7443
 4575TIP3   OH237919   2.263   6.224   8.812  0.1162 -0.0232 -0.2867
 4575TIP3    H137920   2.226   6.188   8.893  1.5297 -1.0951 -0.0816
 4575TIP3    H237921   2.193   6.213   8.747  0.5628 -3.8442 -0.3999
 4576TIP3   OH237922   1.913   0.502   7.691 -0.2702 -0.1959  0.4105
 4576TIP3    H137923   2.005   0.494   7.669 -0.4621 -0.7527 -0.2277
 4576TIP3    H237924   1.892   0.594   7.675 -0.2473 -0.4498 -1.1729
 4577TIP3   OH237925   2.124   5.303   8.759 -0.6114 -0.4524 -0.1406
 4577TIP3    H137926   2.085   5.229   8.807 -0.7816 -0.2069  0.1012
 4577TIP3    H237927   2.061   5.323   8.690 -1.2464  0.3685  0.6486
 4578TIP3   OH237928   1.901   1.495   7.219  0.1598 -0.3176 -0.2528
 4578TIP3    H137929   1.933   1.583   7.197 -0.7764  0.0679 -0.1060
 4578TIP3    H237930   1.960   1.465   7.288  0.7997 -0.0133 -0.6561
 4579TIP3   OH237931   7.675   5.610   7.716 -0.0053  0.3707  0.1335
 4579TIP3    H137932   7.708   5.525   7.743 -1.9097 -0.3527  0.3548
 4579TIP3    H237933   7.645   5.597   7.626  0.3908  1.0359 -0.1075
 4580TIP3   OH237934   6.574   2.672   8.879  0.3322  0.0878 -0.2543
 4580TIP3    H137935   6.583   2.663   8.974 -0.2406 -0.6915 -0.2608
 4580TIP3    H237936   6.510   2.605   8.855  0.9825 -0.1862 -1.2761
 4581TIP3   OH237937   5.527   0.443   9.370 -0.5950  0.3070  0.2505
 4581TIP3    H137938   5.462   0.506   9.338 -1.2572  0.6969  2.2690
 4581TIP3    H237939   5.494   0.358   9.340 -0.9328  0.6766 -0.4651
 4582TIP3   OH237940   7.109   5.395   7.544 -0.3041 -0.1310  0.0538
 4582TIP3    H137941   7.119   5.476   7.594 -2.1174  1.2394 -1.6187
 4582TIP3    H237942   7.014   5.387   7.530 -0.0390 -1.6817 -1.1739
 4583TIP3   OH237943   7.515   3.402   7.632 -0.4278 -0.5284 -0.0116
 4583TIP3    H137944   7.594   3.437   7.591 -1.7116  0.4771 -1.6824
 4583TIP3    H237945   7.520   3.432   7.723  0.3581  0.8145 -0.4802
 4584TIP3   OH237946   0.519   3.679   8.917  0.2370 -0.0369  0.1255
 4584TIP3    H137947   0.562   3.612   8.970  1.6733  0.0918 -0.8234
 4584TIP3    H237948   0.427   3.673   8.941  0.5380 -1.4165  1.0588
 4585TIP3   OH237949   4.336   0.003   8.351  0.0182 -0.1405 -0.1280
 4585TIP3    H137950   4.311   0.014   8.259  0.1110  0.0631 -0.1301
 4585TIP3    H237951   4.257   0.026   8.400  0.6272  2.0578 -0.0714
 4586TIP3   OH237952   6.122   1.229   7.762 -0.5237  0.1821 -0.0697
 4586TIP3    H137953   6.198   1.181   7.796 -1.6288 -2.1219 -0.6853
 4586TIP3    H237954   6.147   1.321   7.769  1.1930 -0.3786  2.4027
 4587TIP3   OH237955   2.332   0.824   7.994 -0.0766  1.0301 -0.2102
 4587TIP3    H137956   2.287   0.904   7.969 -0.9438  0.1468 -1.6229
 4587TIP3    H237957   2.423   0.851   8.008 -0.1079  2.0686 -1.7992
 4588TIP3   OH237958   0.774   3.633   8.006 -0.4306 -0.3093  0.3049
 4588TIP3    H137959   0.685   3.626   7.971 -0.2077  1.1498 -0.6421
 4588TIP3    H237960   0.829   3.588   7.942 -0.2105  1.0035 -0.4666
 4589TIP3   OH237961   4.419   1.924   9.255  0.5069 -0.5848 -0.0140
 4589TIP3    H137962   4.427   1.941   9.161 -2.8191 -0.2689 -0.3618
 4589TIP3    H237963   4.478   1.850   9.271  1.5656 -0.3062 -2.2036
 4590TIP3   OH237964   7.041   7.539   6.989 -0.1089  0.3365  0.1406
 4590TIP3    H137965   6.961   7.487   6.985  0.1832 -0.4096  2.5322
 4590TIP3    H237966   7.086   7.521   6.906 -2.4779  0.9984 -1.3799
 4591TIP3   OH237967   5.736   4.157   7.508 -0.2900  0.2601  0.5114
 4591TIP3    H137968   5.749   4.221   7.439  1.9823 -0.9914 -0.3418
 4591TIP3    H237969   5.660   4.106   7.480 -3.1153  3.2648  1.9153
 4592TIP3   OH237970   5.469   0.617   8.026  0.2655  0.2438 -0.0328
 4592TIP3    H137971   5.434   0.576   8.105 -1.8019  0.4772 -0.7423
 4592TIP3    H237972   5.513   0.545   7.980 -2.1568 -1.0013 -0.6222
 4593TIP3   OH237973   3.832   2.273   7.524 -0.0972 -0.4534 -0.9843
 4593TIP3    H137974   3.911   2.275   7.579 -1.7233 -0.0108  1.5101
 4593TIP3    H237975   3.861   2.304   7.439  2.2466  0.5713  0.1089
 4594TIP3   OH237976   3.688   3.362   9.046  0.3762  0.7523 -0.0202
 4594TIP3    H137977   3.741   3.377   8.968 -0.9709  0.4383 -1.0513
 4594TIP3    H237978   3.731   3.412   9.115  1.4363  1.2816 -1.0349
 4595TIP3   OH237979   5.760   2.644   8.860  0.1194 -0.5843 -0.0480
 4595TIP3    H137980   5.737   2.634   8.768 -4.1618 -0.7674  0.8396
 4595TIP3    H237981   5.786   2.736   8.868 -1.0177 -0.1359 -1.1870
 4596TIP3   OH237982   0.106   0.501   8.194 -0.1120 -0.1780  0.3748
 4596TIP3    H137983   0.095   0.450   8.114 -1.0108  0.1035  0.3111
 4596TIP3    H237984   0.019   0.536   8.212  0.0936 -0.1989  1.4484
 4597TIP3   OH237985   3.570   0.384   7.353 -0.5675 -0.3902  0.2298
 4597TIP3    H137986   3.603   0.349   7.271 -0.3102 -0.4115  0.3391
 4597TIP3    H237987   3.649   0.405   7.404 -0.6888  1.1430 -0.1603
 4598TIP3   OH237988   1.389   1.027   7.237 -0.2068 -0.3368  0.5089
 4598TIP3    H137989   1.414   1.078   7.160 -1.0725  0.0604  0.4773
 4598TIP3    H237990   1.360   0.943   7.203 -1.7692  0.2656  0.2630
 4599TIP3   OH237991   6.570   3.538   8.052  0.4936 -0.5026  0.1648
 4599TIP3    H137992   6.584   3.446   8.074 -0.5322 -0.9760 -1.0333
 4599TIP3    H237993   6.579   3.542   7.957  1.8337  0.9035  0.3186
 4600TIP3   OH237994   0.064   7.489   9.524 -0.2845 -0.8841  0.2663
 4600TIP3    H137995   0.016   7.572   9.521 -1.4099 -1.5141  0.0588
 4600TIP3    H237996   0.105   7.483   9.438  1.0824  0.1460  0.7948
 4601TIP3   OH237997   5.339   5.624   7.820 -0.2371  0.0230  0.1524
 4601TIP3    H137998   5.388   5.706   7.808 -0.8665  0.3429 -0.3011
 4601TIP3    H237999   5.269   5.647   7.881  0.0929 -0.4017  0.7008
 4602TIP3   OH238000   6.690   2.713   6.974 -0.3254  0.3908 -0.3047
 4602TIP3    H138001   6.613   2.658   6.992 -0.6327  0.0658 -2.4117
 4602TIP3    H238002   6.765   2.656   6.994 -0.6307  0.0145 -0.2074
 4603TIP3   OH238003   1.822   0.162   8.998  0.1366  0.0935 -0.2512
 4603TIP3    H138004   1.904   0.205   9.023 -0.7187  0.4852  2.1425
 4603TIP3    H238005   1.768   0.234   8.965 -0.5986  0.6291  1.9317
 4604TIP3   OH238006   6.646   0.887   7.546  0.0601  0.3073  0.3601
 4604TIP3    H138007   6.698   0.807   7.541  0.2186  0.4452 -0.2866
 4604TIP3    H238008   6.696   0.945   7.604 -0.5030 -0.3807  1.5647
 4605TIP3   OH238009   1.954   0.443   7.950  0.2339 -0.3684 -0.1659
 4605TIP3    H138010   1.888   0.501   7.988  0.3386  0.5983 -1.3972
 4605TIP3    H238011   1.949   0.460   7.856  1.5698 -1.0039 -0.3692
 4606TIP3   OH238012   0.214   4.116   7.091 -0.1933  0.2221 -0.3919
 4606TIP3    H138013   0.305   4.141   7.109  0.3317 -1.3544 -0.7341
 4606TIP3    H238014   0.179   4.191   7.043  0.7828  1.0487  0.1308
 4607TIP3   OH238015   2.860   1.308   8.801 -0.4022 -0.0948  0.4562
 4607TIP3    H138016   2.837   1.364   8.876  1.6435 -0.8795  1.7520
 4607TIP3    H238017   2.867   1.220   8.837  4.2186 -0.0229  0.3244
 4608TIP3   OH238018   7.426   7.601   8.378  0.2018 -0.0201  0.4404
 4608TIP3    H138019   7.487   7.673   8.393  0.1180  0.1972 -0.2273
 4608TIP3    H238020   7.341   7.636   8.406 -0.3634  1.1676 -2.3756
 4609TIP3   OH238021   5.525   7.490   7.229 -0.0704 -0.2594 -0.1489
 4609TIP3    H138022   5.510   7.581   7.203 -0.5527 -0.5558 -0.9660
 4609TIP3    H238023   5.612   7.490   7.269 -0.2839  0.6476  0.3314
 4610TIP3   OH238024   1.037   4.089   7.224  0.2854  0.2070  0.1050
 4610TIP3    H138025   1.116   4.128   7.186 -1.7616  2.7639 -1.9679
 4610TIP3    H238026   0.991   4.051   7.149 -1.4992  0.7933  0.8505
 4611TIP3   OH238027   2.875   2.071   8.399  0.0546  0.3352 -1.0426
 4611TIP3    H138028   2.794   2.020   8.395 -0.0817  0.4164  0.3323
 4611TIP3    H238029   2.859   2.137   8.466  1.1503  0.5534 -0.9762
 4612TIP3   OH238030   5.926   2.824   8.505  0.1720 -0.1747  1.0276
 4612TIP3    H138031   5.901   2.888   8.439 -0.0095 -1.4475 -0.1952
 4612TIP3    H238032   6.009   2.787   8.473 -0.4672 -1.5791  0.8928
 4613TIP3   OH238033   7.614   4.060   8.599  0.6195 -0.2783 -0.1913
 4613TIP3    H138034   7.581   4.137   8.552 -2.5954 -1.2180  0.2539
 4613TIP3    H238035   7.663   4.096   8.673  1.8388  1.2481 -1.6418
 4614TIP3   OH238036   4.896   0.970   8.778 -0.1136 -0.2854  0.2530
 4614TIP3    H138037   4.880   1.064   8.782 -0.1937 -0.3143  0.6711
 4614TIP3    H238038   4.980   0.962   8.733 -0.2732 -0.0318 -0.0914
 4615TIP3   OH238039   0.384   6.705   8.789 -0.0503 -0.4678 -0.3449
 4615TIP3    H138040   0.296   6.670   8.803 -0.0677 -3.2569 -5.2325
 4615TIP3    H238041   0.440   6.648   8.842 -0.9412 -1.1587 -0.1086
 4616TIP3   OH238042   7.576   6.459   9.491  0.3140  0.4824 -0.1587
 4616TIP3    H138043   7.514   6.501   9.550  0.1849  0.6493 -0.4171
 4616TIP3    H238044   7.661   6.496   9.515  0.6802 -1.3723  1.7464
 4617TIP3   OH238045   0.867   0.600   9.533  0.2947  0.4902  0.0002
 4617TIP3    H138046   0.944   0.543   9.536  0.8834  1.2736 -0.0488
 4617TIP3    H238047   0.837   0.593   9.442  0.4328  0.3469 -0.0358
 4618TIP3   OH238048   1.981   7.624   8.073 -0.5022  0.0044  0.5158
 4618TIP3    H138049   2.001   7.698   8.016 -1.9102  0.4157  0.5162
 4618TIP3    H238050   2.016   7.548   8.027  0.9255  0.6508  0.4952
 4619TIP3   OH238051   6.072   2.780   7.340 -0.6742  0.1002  0.1402
 4619TIP3    H138052   6.167   2.792   7.341 -0.4776 -0.7901 -1.8386
 4619TIP3    H238053   6.043   2.826   7.261 -1.2962 -2.8187 -1.4792
 4620TIP3   OH238054   4.064   3.768   7.976  0.2704 -0.1491 -0.9307
 4620TIP3    H138055   4.077   3.862   7.963  0.4860 -0.1685 -0.8594
 4620TIP3    H238056   4.144   3.739   8.021 -0.0657 -0.2529 -0.4025
 4621TIP3   OH238057   7.229   7.006   8.411  0.8135  0.3208 -0.7253
 4621TIP3    H138058   7.250   7.093   8.378 -3.2310  1.4679 -0.8036
 4621TIP3    H238059   7.251   7.009   8.504 -0.3070  1.9052 -0.4738
 4622TIP3   OH238060   3.861   4.417   7.994 -0.3467  0.3505  0.5015
 4622TIP3    H138061   3.840   4.324   8.000  1.9404 -0.2640  0.0027
 4622TIP3    H238062   3.936   4.428   8.052 -0.1265  1.7095 -0.0084
 4623TIP3   OH238063   5.105   5.227   7.525  0.1233  0.7071  0.4042
 4623TIP3    H138064   5.154   5.147   7.506 -0.4349 -0.1831  2.4103
 4623TIP3    H238065   5.028   5.222   7.469 -0.7137 -1.0232  1.6131
 4624TIP3   OH238066   6.652   1.650   8.580  0.1654 -0.0912  0.1240
 4624TIP3    H138067   6.562   1.681   8.592  0.2258  1.0552 -1.8286
 4624TIP3    H238068   6.642   1.562   8.545 -0.2443  0.1788 -0.4754
 4625TIP3   OH238069   4.065   7.598   7.541  0.2810  0.3139  0.4956
 4625TIP3    H138070   4.085   7.579   7.449 -1.1130  3.8785 -0.7242
 4625TIP3    H238071   4.009   7.525   7.569  1.9021 -1.5981 -0.9463
 4626TIP3   OH238072   6.069   0.165   9.608 -0.8973  0.1994 -0.3539
 4626TIP3    H138073   6.054   0.233   9.543 -3.5818  0.1212  0.0534
 4626TIP3    H238074   5.993   0.171   9.666 -0.3531 -2.0237  0.6922
 4627TIP3   OH238075   5.785   0.325   8.841  0.0567  0.0451 -0.6674
 4627TIP3    H138076   5.741   0.379   8.775  0.5644  0.6226 -0.5499
 4627TIP3    H238077   5.741   0.347   8.923  1.6623  1.9916 -0.2343
 4628TIP3   OH238078   4.202   4.116   8.863 -0.3526 -0.1511  0.1155
 4628TIP3    H138079   4.161   4.031   8.881  0.2373 -0.2554  1.0265
 4628TIP3    H238080   4.234   4.109   8.773 -1.5211 -0.3938 -0.2942
 4629TIP3   OH238081   5.750   6.422   9.030  0.3961  0.5115  0.0670
 4629TIP3    H138082   5.664   6.420   8.989  0.9444 -0.0380 -1.1094
 4629TIP3    H238083   5.732   6.435   9.123 -0.9643  0.1909 -0.1328
 4630TIP3   OH238084   5.256   2.944   9.229  0.1705  0.0076 -0.0886
 4630TIP3    H138085   5.223   2.935   9.319  0.3187 -0.2520 -0.0580
 4630TIP3    H238086   5.340   2.898   9.230  0.5303  0.6542 -0.1713
 4631TIP3   OH238087   1.865   7.126   6.588 -0.5459  0.2364 -0.3820
 4631TIP3    H138088   1.856   7.092   6.677 -3.7759  1.8157  0.0259
 4631TIP3    H238089   1.803   7.074   6.536  0.1565  0.3891 -1.4150
 4632TIP3   OH238090   5.597   2.628   9.325 -0.1073 -0.4514 -0.1020
 4632TIP3    H138091   5.502   2.631   9.334  0.0161  0.0235  1.2832
 4632TIP3    H238092   5.621   2.711   9.285 -0.3802 -1.1920 -1.8917
 4633TIP3   OH238093   7.423   5.609   7.868 -0.5495 -0.1052  0.9723
 4633TIP3    H138094   7.503   5.597   7.817 -1.0265 -0.0740  0.2015
 4633TIP3    H238095   7.419   5.703   7.884  0.0107 -0.2072  1.7573
 4634TIP3   OH238096   1.697   3.172   6.773 -0.3073 -0.4953  0.1397
 4634TIP3    H138097   1.699   3.130   6.688  1.3499 -1.6134  0.6872
 4634TIP3    H238098   1.728   3.261   6.757 -0.2262 -0.6308 -0.4429
 4635TIP3   OH238099   1.040   1.521   9.775  0.3487  0.0317 -0.3932
 4635TIP3    H138100   0.954   1.517   9.733  0.2374 -1.1703 -0.0894
 4635TIP3    H238101   1.045   1.610   9.810 -0.6801  0.1928 -0.6215
 4636TIP3   OH238102   2.169   0.800   7.483  0.0575  0.0779 -0.3730
 4636TIP3    H138103   2.179   0.778   7.575 -1.9935 -0.2953 -0.2105
 4636TIP3    H238104   2.259   0.798   7.448  0.6823 -1.4529  1.2152
 4637TIP3   OH238105   3.844   7.374   9.226 -0.5518  0.6814  0.1359
 4637TIP3    H138106   3.816   7.297   9.175  0.8091 -0.5224  1.1150
 4637TIP3    H238107   3.762   7.415   9.254 -1.4354 -1.9955  1.8691
 4638TIP3   OH238108   3.570   7.615   7.253 -0.0425  0.3970 -0.1608
 4638TIP3    H138109   3.488   7.585   7.292 -0.4027  1.5236 -0.0108
 4638TIP3    H238110   3.555   7.609   7.158 -0.3148  0.6039 -0.1348
 4639TIP3   OH238111   4.353   7.397   8.168 -0.0889  0.1492  0.3060
 4639TIP3    H138112   4.276   7.453   8.161 -2.0226 -2.3030  0.6902
 4639TIP3    H238113   4.386   7.390   8.078 -0.6146  0.7862  0.0561
 4640TIP3   OH238114   5.094   1.114   8.932 -0.3898 -0.0272 -0.5976
 4640TIP3    H138115   5.135   1.036   8.895  0.6123  0.4158 -0.4708
 4640TIP3    H238116   5.014   1.083   8.972  0.3678 -1.1161  0.1181
 4641TIP3   OH238117   7.290   0.941   8.726  0.2498  0.0855  0.1319
 4641TIP3    H138118   7.275   1.034   8.708 -0.7922  0.1037  0.9666
 4641TIP3    H238119   7.252   0.928   8.813 -1.0796 -1.4681 -0.6280
 4642TIP3   OH238120   3.771   3.127   8.841 -0.3135  0.0186 -0.5841
 4642TIP3    H138121   3.828   3.052   8.857  0.1246  0.5938  0.7002
 4642TIP3    H238122   3.701   3.093   8.786 -1.0645 -1.7858  1.3452
 4643TIP3   OH238123   1.122   1.703   8.631 -0.4696  0.3816  0.0266
 4643TIP3    H138124   1.196   1.763   8.638 -0.3018  0.0778  0.9103
 4643TIP3    H238125   1.062   1.747   8.571  0.7959  0.2419 -1.4332
 4644TIP3   OH238126   6.127   6.397   7.372  0.8112  0.4931 -0.3609
 4644TIP3    H138127   6.123   6.356   7.286  1.6027 -0.5499  0.0795
 4644TIP3    H238128   6.204   6.453   7.369  1.6178 -0.5470  0.0609
 4645TIP3   OH238129   2.154   3.709   8.619  0.1031  0.4464  0.5097
 4645TIP3    H138130   2.169   3.775   8.551  1.5048 -0.6276 -0.3004
 4645TIP3    H238131   2.110   3.637   8.573  0.9456 -0.2411  0.7434
 4646TIP3   OH238132   1.153   0.329   7.004  0.2023  0.5466  0.2869
 4646TIP3    H138133   1.061   0.346   7.026 -0.5796 -1.4813 -1.0413
 4646TIP3    H238134   1.177   0.399   6.944 -1.4849 -0.4172 -1.6502
 4647TIP3   OH238135   0.333   6.334   8.310 -0.3615 -0.5005  0.6092
 4647TIP3    H138136   0.397   6.334   8.381 -0.3582 -2.5544  0.6668
 4647TIP3    H238137   0.286   6.251   8.320 -0.0336 -1.1019 -2.0561
 4648TIP3   OH238138   7.229   6.798   7.309 -0.1375 -0.1219 -0.4646
 4648TIP3    H138139   7.243   6.845   7.391  0.6853  1.8433 -1.6517
 4648TIP3    H238140   7.134   6.790   7.301 -0.3543  1.9958 -0.5275
 4649TIP3   OH238141   6.619   1.600   9.312 -0.0565  0.6015  0.3911
 4649TIP3    H138142   6.638   1.674   9.254 -2.7248  0.2084 -1.1375
 4649TIP3    H238143   6.543   1.628   9.362 -0.3314 -0.6323  0.6940
 4650TIP3   OH238144   1.909   2.390   9.588 -0.1937  0.1069 -0.4833
 4650TIP3    H138145   1.876   2.427   9.507 -1.5721 -1.2241 -0.5764
 4650TIP3    H238146   1.920   2.465   9.647  2.0401  1.2632 -2.2247
 4651TIP3   OH238147   5.455   4.468   9.119 -0.2427  0.0571  0.3030
 4651TIP3    H138148   5.360   4.471   9.114 -0.3074  0.9408  1.6432
 4651TIP3    H238149   5.483   4.558   9.101  0.3054 -0.0698  0.5020
 4652TIP3   OH238150   7.132   5.531   9.016  0.5325 -0.0477  0.7739
 4652TIP3    H138151   7.215   5.574   9.033  0.3427  0.4576  0.4618
 4652TIP3    H238152   7.143   5.488   8.931  1.0475 -1.4660  1.5262
 4653TIP3   OH238153   7.393   3.273   8.669  0.2852  0.4654  0.5890
 4653TIP3    H138154   7.397   3.367   8.685 -0.0613  0.6683 -0.3965
 4653TIP3    H238155   7.325   3.263   8.602  1.1641 -0.3497 -0.2229
 4654TIP3   OH238156   2.324   6.439   9.067 -0.8426 -0.0440  0.5380
 4654TIP3    H138157   2.409   6.396   9.077 -0.6303  0.2608  0.0845
 4654TIP3    H238158   2.260   6.368   9.071 -0.4818 -0.4473 -0.4618
 4655TIP3   OH238159   6.010   1.243   9.403  0.3792 -0.7273  0.2097
 4655TIP3    H138160   5.960   1.204   9.475 -0.5527 -0.9792 -0.5540
 4655TIP3    H238161   5.953   1.236   9.327  1.5015 -0.8134 -0.6561
 4656TIP3   OH238162   7.146   0.983   7.155 -0.3660 -0.1874  0.1334
 4656TIP3    H138163   7.226   0.944   7.119 -0.2396  0.0756  0.1292
 4656TIP3    H238164   7.126   1.055   7.096 -1.8627 -1.6013 -1.1843
 4657TIP3   OH238165   0.660   0.349   7.587 -0.4101  0.6863 -0.0944
 4657TIP3    H138166   0.580   0.322   7.541  0.4346 -1.1946 -0.5463
 4657TIP3    H238167   0.651   0.444   7.596 -1.4060  0.9217 -2.6506
 4658TIP3   OH238168   0.685   2.231   7.255 -0.4633  0.7442  0.1262
 4658TIP3    H138169   0.628   2.307   7.246 -2.5358 -0.8346 -0.9247
 4658TIP3    H238170   0.746   2.238   7.181 -0.6489  1.3705  0.0297
 4659TIP3   OH238171   6.939   1.274   7.833  0.5489  0.1360  0.3466
 4659TIP3    H138172   6.868   1.267   7.897 -1.2560  0.4392 -1.5175
 4659TIP3    H238173   6.926   1.359   7.792  0.9069 -0.5091 -1.2049
 4660TIP3   OH238174   0.924   2.624   8.287 -0.0672  0.2240 -0.0628
 4660TIP3    H138175   0.998   2.563   8.283 -0.5551 -0.4659  1.0354
 4660TIP3    H238176   0.924   2.666   8.201  0.4682 -1.1206 -0.7659
 4661TIP3   OH238177   5.041   2.407   9.233  0.2475 -0.6731  0.5566
 4661TIP3    H138178   5.026   2.391   9.326 -3.1623  0.4382  0.3091
 4661TIP3    H238179   5.099   2.336   9.206  2.0281 -0.5594  3.6320
 4662TIP3   OH238180   0.844   0.821   7.622  0.1846 -0.7617  0.0617
 4662TIP3    H138181   0.841   0.869   7.705 -1.2764 -1.7489  0.6313
 4662TIP3    H238182   0.926   0.772   7.626 -0.4572 -1.7886  1.5395
 4663TIP3   OH238183   4.182   2.113   9.600 -0.1255  0.0918  0.2760
 4663TIP3    H138184   4.255   2.172   9.622 -0.2498  0.6541 -0.7980
 4663TIP3    H238185   4.188   2.101   9.506 -0.6310 -0.9346  0.3612
 4664TIP3   OH238186   7.590   0.031   9.551 -0.5510 -0.0608  0.1262
 4664TIP3    H138187   7.624   0.115   9.582 -1.5695  0.5914 -0.4734
 4664TIP3    H238188   7.508   0.019   9.600 -0.7276 -0.3942 -0.2442
 4665TIP3   OH238189   2.803   0.204   7.563  0.1290 -0.1373  0.4563
 4665TIP3    H138190   2.745   0.162   7.499 -1.2476  1.8410  0.3129
 4665TIP3    H238191   2.744   0.239   7.629  1.3062  0.5229  1.1860
 4666TIP3   OH238192   3.573   0.624   8.037  0.2633 -0.2233  0.1066
 4666TIP3    H138193   3.636   0.619   7.965 -0.5743  0.5963 -0.7173
 4666TIP3    H238194   3.548   0.716   8.040 -2.4382 -0.8144 -0.9814
 4667TIP3   OH238195   7.228   0.288   9.318  0.4011 -0.0367  0.7441
 4667TIP3    H138196   7.216   0.380   9.295 -0.3431 -0.3783 -0.2745
 4667TIP3    H238197   7.305   0.288   9.376  1.2839  1.0557 -0.3725
 4668TIP3   OH238198   3.038   7.220   8.171  0.0374  0.0751 -0.2637
 4668TIP3    H138199   2.979   7.241   8.243  0.5174  2.0807 -0.4160
 4668TIP3    H238200   3.106   7.286   8.175  2.1667 -1.9753 -0.2907
 4669TIP3   OH238201   2.336   5.077   7.860  0.3698 -0.1915 -0.1873
 4669TIP3    H138202   2.403   5.064   7.927  2.2871  1.2837 -1.6979
 4669TIP3    H238203   2.282   4.998   7.864  0.4517 -0.2117  2.9515
 4670TIP3   OH238204   1.995   5.042   7.867  0.5920 -0.2287  0.0308
 4670TIP3    H138205   2.065   4.994   7.910  1.3748  0.2571 -0.6673
 4670TIP3    H238206   1.984   5.122   7.920  0.4222 -0.4008  0.2563
 4671TIP3   OH238207   1.014   4.369   8.945 -0.0777 -0.1579  0.1084
 4671TIP3    H138208   1.022   4.442   9.006 -1.9501  1.5014 -1.4429
 4671TIP3    H238209   0.928   4.382   8.904  0.0567 -2.5645 -1.1223
 4672TIP3   OH238210   5.251   4.386   7.460  0.0470  0.2691 -0.3869
 4672TIP3    H138211   5.215   4.299   7.446 -0.2455  0.4867 -1.0138
 4672TIP3    H238212   5.303   4.403   7.382  0.5977  0.4166  0.0022
 4673TIP3   OH238213   3.390   6.756   7.138  0.1585  0.0775 -0.1100
 4673TIP3    H138214   3.352   6.731   7.223 -0.5397 -0.2754 -0.5204
 4673TIP3    H238215   3.439   6.836   7.157 -1.8096  1.2690  0.2014
 4674TIP3   OH238216   5.136   2.336   7.515  0.6653  0.0224  0.0897
 4674TIP3    H138217   5.157   2.369   7.428 -1.9815  1.1202 -0.2437
 4674TIP3    H238218   5.121   2.416   7.567 -2.4736 -0.5455  0.2115
 4675TIP3   OH238219   2.974   0.773   8.790  0.5329 -0.1007 -0.5024
 4675TIP3    H138220   3.069   0.770   8.798  0.4227 -0.5947  0.8540
 4675TIP3    H238221   2.959   0.788   8.697  1.9197 -1.0205 -0.9120
 4676TIP3   OH238222   1.185   3.847   7.715 -0.1271  0.2930  0.1505
 4676TIP3    H138223   1.160   3.870   7.805  2.1076  0.3331  0.8034
 4676TIP3    H238224   1.157   3.756   7.705 -2.0357  0.8145  0.2060
 4677TIP3   OH238225   2.363   6.157   9.318 -0.2548 -0.0522  0.1777
 4677TIP3    H138226   2.447   6.200   9.334  0.2751 -1.8414  2.8522
 4677TIP3    H238227   2.300   6.229   9.314  1.3078  1.2995 -1.5088
 4678TIP3   OH238228   3.201   1.630   8.485  0.1939  0.8981 -0.6518
 4678TIP3    H138229   3.152   1.704   8.451 -1.0768  1.7567  2.6353
 4678TIP3    H238230   3.286   1.667   8.510  0.9578  0.3648 -2.2845
 4679TIP3   OH238231   2.035   4.137   7.737 -0.4208  0.0124 -0.1897
 4679TIP3    H138232   2.100   4.073   7.765 -0.7917  0.5752  2.2125
 4679TIP3    H238233   1.952   4.089   7.737 -0.3542 -0.1072 -0.8447
 4680TIP3   OH238234   4.233   6.959   8.866  0.4498  0.8583  0.3383
 4680TIP3    H138235   4.257   6.894   8.800 -0.0632 -1.3986  2.2424
 4680TIP3    H238236   4.144   6.934   8.892  1.1010  0.8678  2.7533
 4681TIP3   OH238237   2.609   7.583   6.624  0.5636 -0.0277  0.2518
 4681TIP3    H138238   2.602   7.493   6.655  0.8801 -0.1438 -0.0141
 4681TIP3    H238239   2.520   7.618   6.633  0.2459 -0.6350 -0.4646
 4682TIP3   OH238240   2.075   4.457   7.448 -0.3318 -0.4129 -0.2550
 4682TIP3    H138241   2.155   4.494   7.485 -0.4301 -0.5043  0.0558
 4682TIP3    H238242   2.075   4.486   7.357 -1.0451  1.4348  0.2901
 4683TIP3   OH238243   6.878   4.943   8.689 -0.6143 -0.0167 -0.2866
 4683TIP3    H138244   6.827   4.968   8.612  0.6304  1.1315 -0.7817
 4683TIP3    H238245   6.940   4.877   8.657  0.3071  0.9010 -0.4256
 4684TIP3   OH238246   1.398   5.473   7.053  0.0684  0.0697 -0.1287
 4684TIP3    H138247   1.349   5.406   7.099  0.1760  0.2737  0.2849
 4684TIP3    H238248   1.379   5.457   6.960 -0.4958 -0.0683  0.0079
 4685TIP3   OH238249   1.790   2.176   8.391 -0.3787 -0.5976  0.0738
 4685TIP3    H138250   1.763   2.085   8.404 -1.7382  0.0459  2.7160
 4685TIP3    H238251   1.885   2.174   8.391 -0.3951 -2.0424 -0.0406
 4686TIP3   OH238252   5.366   0.661   6.830 -0.0068 -0.0808 -0.4115
 4686TIP3    H138253   5.354   0.740   6.777 -1.5943 -0.6566 -0.9740
 4686TIP3    H238254   5.283   0.651   6.877  0.4285 -1.0295  0.1816
 4687TIP3   OH238255   5.290   0.568   9.268  0.0293  0.0198  0.0428
 4687TIP3    H138256   5.226   0.545   9.335  0.9046  0.9886  1.2356
 4687TIP3    H238257   5.308   0.661   9.282  0.5557  0.1424 -1.2658
 4688TIP3   OH238258   5.863   7.525   8.404 -0.4030  0.1109  0.0578
 4688TIP3    H138259   5.800   7.501   8.472  0.0395  1.7540  1.1196
 4688TIP3    H238260   5.833   7.480   8.326  0.1586 -3.4879  1.7007
 4689TIP3   OH238261   3.803   1.843   8.532 -0.0892  0.1250  0.3382
 4689TIP3    H138262   3.839   1.756   8.516 -0.6518 -0.3060  1.3599
 4689TIP3    H238263   3.851   1.875   8.608 -0.3096  0.4635  0.3354
 4690TIP3   OH238264   1.215   7.227   7.848  0.7797  0.0715  0.2785
 4690TIP3    H138265   1.305   7.202   7.871  0.3367 -1.0754  0.8299
 4690TIP3    H238266   1.224   7.271   7.763  1.9533  0.7567  0.7248
 4691TIP3   OH238267   6.521   5.280   7.746  0.1225  0.5781 -0.1695
 4691TIP3    H138268   6.614   5.275   7.765  0.4656  1.1292 -1.5794
 4691TIP3    H238269   6.516   5.288   7.651 -1.2543  2.6202 -0.0055
 4692TIP3   OH238270   1.611   1.971   8.168 -0.2837 -0.1329 -0.3968
 4692TIP3    H138271   1.664   1.956   8.247 -0.2185  0.8868 -0.2382
 4692TIP3    H238272   1.532   1.920   8.183  0.8545 -2.1810 -0.8979
 4693TIP3   OH238273   2.025   1.271   7.373 -0.3110  0.4466 -0.3182
 4693TIP3    H138274   2.000   1.222   7.452 -1.3467  0.0813 -0.8524
 4693TIP3    H238275   2.081   1.211   7.324 -1.1935 -0.0468 -0.7447
 4694TIP3   OH238276   3.956   6.421   8.425  0.1039  0.3059  0.2449
 4694TIP3    H138277   4.026   6.359   8.445 -0.0348 -0.3408 -1.1583
 4694TIP3    H238278   3.910   6.434   8.509 -0.5031 -2.3000  0.3970
 4695TIP3   OH238279   7.082   1.418   8.725  0.6059 -0.2931  0.0684
 4695TIP3    H138280   7.088   1.514   8.728  0.2777 -0.3029  1.8958
 4695TIP3    H238281   6.989   1.400   8.711  0.0645 -0.3034  3.0322
 4696TIP3   OH238282   5.837   3.994   8.749  0.3520 -0.2290  0.5211
 4696TIP3    H138283   5.838   4.083   8.785  0.3599 -0.1152  0.2417
 4696TIP3    H238284   5.901   3.996   8.678  1.2527 -0.7897  1.2910
 4697TIP3   OH238285   1.307   1.155   6.996  0.6535 -0.4527  0.5891
 4697TIP3    H138286   1.343   1.236   7.030  1.6176 -0.0959 -1.1308
 4697TIP3    H238287   1.246   1.182   6.928  0.1724 -1.1542  0.7261
 4698TIP3   OH238288   5.246   2.863   8.513 -0.3582  0.3998  0.2759
 4698TIP3    H138289   5.286   2.857   8.600  1.7376 -2.3045 -0.7127
 4698TIP3    H238290   5.293   2.934   8.470  2.1838 -1.4255 -0.1807
 4699TIP3   OH238291   0.326   1.395   9.708 -0.3829 -0.0281  0.3611
 4699TIP3    H138292   0.247   1.422   9.662 -0.8832  0.4954  1.4839
 4699TIP3    H238293   0.361   1.476   9.744  0.0700 -0.4054  0.7734
 4700TIP3   OH238294   6.123   2.109   7.907 -0.3219  0.4997  0.1729
 4700TIP3    H138295   6.181   2.186   7.915  0.2367  0.4093 -2.3926
 4700TIP3    H238296   6.174   2.038   7.947 -0.5031  1.2339  1.8228
 4701TIP3   OH238297   4.806   5.726   6.980  0.6197  0.0921 -0.4347
 4701TIP3    H138298   4.823   5.794   6.915 -0.8991  1.4001  0.4685
 4701TIP3    H238299   4.865   5.746   7.053  0.2291  0.4169 -0.2021
 4702TIP3   OH238300   4.234   0.002   9.402 -0.5566  0.2377 -0.4913
 4702TIP3    H138301   4.152  -0.025   9.443  0.8343 -2.5737  0.7072
 4702TIP3    H238302   4.249  -0.063   9.333  1.2986 -0.1401  0.2115
 4703TIP3   OH238303   1.005   0.132   6.821 -0.4121 -0.4094  0.3117
 4703TIP3    H138304   1.027   0.171   6.736  1.1822  0.6174  1.1370
 4703TIP3    H238305   1.022   0.202   6.884 -1.1690 -1.2795  1.5184
 4704TIP3   OH238306   0.927   2.332   8.584 -0.6022  0.5005  0.4505
 4704TIP3    H138307   0.985   2.297   8.516 -0.9898 -1.7839  1.2327
 4704TIP3    H238308   0.853   2.368   8.535 -0.2712  0.0617 -0.3954
 4705TIP3   OH238309   6.600   5.887   7.462 -0.0628 -0.0426 -0.4567
 4705TIP3    H138310   6.600   5.982   7.474  0.0439  0.0136 -0.8983
 4705TIP3    H238311   6.650   5.872   7.382  1.4633 -0.5994  0.5643
 4706TIP3   OH238312   0.452   2.747   8.307 -0.0674 -0.2348 -0.8868
 4706TIP3    H138313   0.362   2.743   8.276 -0.3031 -0.6086 -0.1945
 4706TIP3    H238314   0.488   2.660   8.289 -0.0362 -0.2785 -0.6265
 4707TIP3   OH238315   0.891   1.233   7.585  0.7217 -0.6815  0.0829
 4707TIP3    H138316   0.948   1.157   7.574  1.4045 -0.4290  1.6028
 4707TIP3    H238317   0.951   1.306   7.599  0.0545 -0.0230 -0.4449
 4708TIP3   OH238318   2.145   7.116   8.359  0.9400 -0.4887  0.0000
 4708TIP3    H138319   2.190   7.032   8.374  0.8941 -0.6288 -0.6241
 4708TIP3    H238320   2.180   7.146   8.275 -0.4291 -0.7876 -0.6912
 4709TIP3   OH238321   6.352   7.427   7.706  0.4784 -0.3878  0.1064
 4709TIP3    H138322   6.419   7.408   7.772  0.4251 -0.1622  0.2276
 4709TIP3    H238323   6.278   7.371   7.729  0.1120  0.3536  0.7927
 4710TIP3   OH238324   6.507   2.507   6.978 -0.0729  0.2092 -0.2154
 4710TIP3    H138325   6.565   2.503   6.903  0.3154 -1.3775  0.1402
 4710TIP3    H238326   6.462   2.422   6.979 -0.5075  0.4272  0.9891
 4711TIP3   OH238327   1.847   7.029   7.506 -0.0551  0.1352 -0.0059
 4711TIP3    H138328   1.930   7.055   7.467  0.4363 -0.0690  0.8814
 4711TIP3    H238329   1.781   7.062   7.445  0.5413  2.8605  0.6813
 4712TIP3   OH238330   5.804   0.490   7.604  0.0724  0.5996 -0.4340
 4712TIP3    H138331   5.869   0.542   7.652  0.6299  0.4663 -1.0381
 4712TIP3    H238332   5.854   0.418   7.565 -0.6254 -0.1642  0.0458
 4713TIP3   OH238333   5.996   0.449   9.470 -0.4528 -0.5301 -0.0478
 4713TIP3    H138334   6.084   0.472   9.500 -1.1786 -0.6990  2.3969
 4713TIP3    H238335   5.937   0.499   9.525 -1.9343 -0.6754 -1.4199
 4714TIP3   OH238336   4.013   2.985   9.390 -0.3553  0.2959 -0.0724
 4714TIP3    H138337   3.934   2.953   9.433  0.9192 -1.7753  0.9071
 4714TIP3    H238338   4.011   2.944   9.303  0.2863 -0.9444  0.4653
 4715TIP3   OH238339   4.452   5.385   8.803 -0.6390 -0.6873  0.4900
 4715TIP3    H138340   4.434   5.385   8.897  0.1229 -0.2991  0.6444
 4715TIP3    H238341   4.403   5.310   8.770 -0.5052 -1.1412  1.2798
 4716TIP3   OH238342   2.874   7.586   8.834 -0.1077  0.2470  0.1287
 4716TIP3    H138343   2.968   7.570   8.833  0.0776  1.2212  0.3079
 4716TIP3    H238344   2.853   7.617   8.746  0.1989  2.3154  0.7350
 4717TIP3   OH238345   5.362   1.161   8.381 -0.2343  0.5763 -0.3588
 4717TIP3    H138346   5.440   1.214   8.366 -0.2683  0.7618  0.1044
 4717TIP3    H238347   5.377   1.081   8.330  0.0535  0.8028 -0.6316
 4718TIP3   OH238348   7.676   7.508   8.961 -0.2812  0.3543 -0.4919
 4718TIP3    H138349   7.640   7.485   9.046  1.6163  0.7155  0.4688
 4718TIP3    H238350   7.758   7.458   8.955 -0.0191  0.8824 -1.7871
 4719TIP3   OH238351   1.846   1.115   7.944 -0.3453  0.5234 -0.3896
 4719TIP3    H138352   1.883   1.035   7.982 -1.5619  0.1696  0.1084
 4719TIP3    H238353   1.829   1.172   8.018 -2.4073 -0.0340 -0.3565
 4720TIP3   OH238354   1.322   0.783   8.191  0.7080  0.3955 -0.2540
 4720TIP3    H138355   1.354   0.752   8.275 -0.6866  0.9761  0.5234
 4720TIP3    H238356   1.305   0.876   8.205  0.1869  0.4389 -1.0956
 4721TIP3   OH238357   6.329   1.822   6.638  0.2487 -0.1487  0.2741
 4721TIP3    H138358   6.383   1.775   6.574  1.5644 -0.8350  1.8082
 4721TIP3    H238359   6.306   1.904   6.594  1.9158 -0.1694 -0.7367
 4722TIP3   OH238360   3.618   1.827   6.950 -0.1922 -0.2450 -0.1194
 4722TIP3    H138361   3.666   1.806   7.030  0.2843 -1.4205 -0.6749
 4722TIP3    H238362   3.526   1.829   6.977 -0.1309 -1.6481  0.2923
 4723TIP3   OH238363   7.086   4.471   8.618 -0.8042 -0.2126  0.8748
 4723TIP3    H138364   7.155   4.439   8.676  0.1301  1.3881  0.7100
 4723TIP3    H238365   7.009   4.420   8.641 -0.3435  0.0744  3.2187
 4724TIP3   OH238366   4.262   2.230   7.191 -0.1227 -0.3876  0.3685
 4724TIP3    H138367   4.355   2.247   7.209 -0.4373  0.1543  1.5599
 4724TIP3    H238368   4.263   2.176   7.112  1.2576 -1.2020  0.8983
 4725TIP3   OH238369   4.789   0.154   8.889 -0.0213  0.3204 -0.3317
 4725TIP3    H138370   4.851   0.082   8.900 -0.4197 -0.0979 -0.8070
 4725TIP3    H238371   4.843   0.233   8.901  0.3792 -0.0492  0.3674
 4726TIP3   OH238372   2.554   0.937   9.126  0.2173 -0.1755 -0.5013
 4726TIP3    H138373   2.491   0.928   9.197  2.4458 -1.4159  1.4250
 4726TIP3    H238374   2.541   0.859   9.072  1.0765 -1.2315  0.7634
 4727TIP3   OH238375   2.508   0.343   7.609  0.2118 -0.0603 -0.3414
 4727TIP3    H138376   2.438   0.402   7.583  0.7591  0.9850  0.4813
 4727TIP3    H238377   2.506   0.345   7.705  0.9795 -0.4806 -0.3093
 4728TIP3   OH238378   6.417   1.022   7.530 -0.4770 -0.5844  0.5050
 4728TIP3    H138379   6.455   1.072   7.602  0.3071 -0.9505  0.3617
 4728TIP3    H238380   6.493   0.981   7.486 -0.9865 -0.8443 -0.1623
 4729TIP3   OH238381   5.795   2.680   7.180 -0.3076 -0.1098  0.8880
 4729TIP3    H138382   5.808   2.650   7.270 -0.1710 -0.9468  0.5992
 4729TIP3    H238383   5.787   2.599   7.128 -1.4330  0.3509  0.2917
 4730TIP3   OH238384   1.961   6.064   7.387 -0.4227  0.0209  0.1582
 4730TIP3    H138385   1.899   5.998   7.359  0.3534 -0.5487 -0.2479
 4730TIP3    H238386   1.909   6.144   7.398 -1.0575 -0.2022 -1.1109
 4731TIP3   OH238387   1.295   2.266   8.800  0.4693  0.0517 -0.0234
 4731TIP3    H138388   1.309   2.349   8.755  1.2078  0.5454  1.0571
 4731TIP3    H238389   1.218   2.281   8.855  1.0028  0.2617  0.6814
 4732TIP3   OH238390   6.491   6.799   8.401 -0.3629  0.5049  0.0025
 4732TIP3    H138391   6.461   6.887   8.422 -0.6221  0.3794  0.1578
 4732TIP3    H238392   6.576   6.792   8.445  0.1772  1.0689 -0.9268
 4733TIP3   OH238393   5.258   4.763   9.367 -0.0951 -0.7358  0.2544
 4733TIP3    H138394   5.203   4.842   9.370 -1.3941 -1.5483 -0.8612
 4733TIP3    H238395   5.337   4.792   9.321 -0.0667  0.1786  0.8407
 4734TIP3   OH238396   2.098   0.269   8.978  0.2047 -0.1451 -0.2285
 4734TIP3    H138397   2.127   0.179   8.962  0.7166 -0.0859  0.3176
 4734TIP3    H238398   2.113   0.315   8.896  0.5208 -0.4080 -0.3178
 4735TIP3   OH238399   1.152   2.045   8.159  0.1642 -0.2610  0.1272
 4735TIP3    H138400   1.085   2.100   8.118  0.3678 -0.1482 -0.0579
 4735TIP3    H238401   1.167   2.086   8.244  0.0080 -0.2767  0.1613
 4736TIP3   OH238402   5.665   4.143   8.125 -0.0393  0.5900  0.0535
 4736TIP3    H138403   5.711   4.227   8.132 -1.0121  1.1688 -0.2809
 4736TIP3    H238404   5.586   4.155   8.177  0.4059 -0.5753  1.0443
 4737TIP3   OH238405   4.358   5.094   7.918 -0.2605  0.1593 -0.1994
 4737TIP3    H138406   4.448   5.103   7.949  0.0328 -0.3810 -0.8704
 4737TIP3    H238407   4.316   5.177   7.942  0.7247  0.8932 -0.9275
 4738TIP3   OH238408   5.832   1.421   8.964  0.3549  0.2570 -0.2045
 4738TIP3    H138409   5.772   1.485   8.925  0.7066  0.2281 -0.8018
 4738TIP3    H238410   5.917   1.463   8.960  0.5925 -0.2523 -0.6188
 4739TIP3   OH238411   5.869   2.733   7.928 -0.0401 -0.4208 -0.2630
 4739TIP3    H138412   5.781   2.771   7.925 -0.5531 -1.5032  0.4249
 4739TIP3    H238413   5.921   2.796   7.978 -0.9083 -0.6645  0.9962
 4740TIP3   OH238414   5.206   6.174   7.782  0.1919  0.0502 -0.4439
 4740TIP3    H138415   5.266   6.164   7.857 -1.1410  2.0939  1.0124
 4740TIP3    H238416   5.164   6.089   7.773 -0.9524  0.1978  2.4161
 4741TIP3   OH238417   0.971   7.650   8.712  0.3362 -0.2613 -0.5630
 4741TIP3    H138418   0.927   7.688   8.635  1.7730 -0.7525 -1.6748
 4741TIP3    H238419   1.063   7.674   8.701  0.8552 -1.8450  0.0892
 4742TIP3   OH238420   0.989   4.932   9.175  0.3728  0.1589 -0.0699
 4742TIP3    H138421   1.025   5.021   9.182 -0.1777  0.5380 -1.7178
 4742TIP3    H238422   0.908   4.936   9.225  0.9945  0.1878  0.9793
 4743TIP3   OH238423   0.767   4.692   8.310 -0.3629  0.1532  0.5001
 4743TIP3    H138424   0.793   4.742   8.233  1.1141 -0.3555  0.6338
 4743TIP3    H238425   0.677   4.665   8.292 -0.4748  1.1073 -0.4706
 4744TIP3   OH238426   7.148   0.969   8.455 -0.6644 -0.1127  0.0495
 4744TIP3    H138427   7.069   0.918   8.471 -0.9540 -0.3294 -1.7780
 4744TIP3    H238428   7.167   1.012   8.538 -0.9012 -2.4829  1.4007
 4745TIP3   OH238429   3.780   1.106   6.872  0.2573 -0.7030  0.0701
 4745TIP3    H138430   3.793   1.020   6.833  1.3269 -0.5709  0.0895
 4745TIP3    H238431   3.856   1.157   6.843  1.4738 -0.7879  2.8049
 4746TIP3   OH238432   3.771   5.232   7.541 -0.2023  0.1947 -0.6454
 4746TIP3    H138433   3.691   5.285   7.536  0.8275  1.8693 -0.0273
 4746TIP3    H238434   3.747   5.158   7.597 -1.1551  0.9968  0.0452
 4747TIP3   OH238435   4.728   7.277   9.390 -0.3022  0.5842  0.8597
 4747TIP3    H138436   4.803   7.219   9.379 -0.6567  0.3144 -0.3589
 4747TIP3    H238437   4.763   7.365   9.378  0.0331  0.5544  1.5674
 4748TIP3   OH238438   1.162   4.528   8.669 -0.4188  0.2621  0.0504
 4748TIP3    H138439   1.136   4.468   8.598  1.3533 -1.0114  0.3983
 4748TIP3    H238440   1.103   4.507   8.741  1.0563 -2.2445  0.6738
 4749TIP3   OH238441   5.266   2.649   8.348  0.3845  0.4909 -0.0807
 4749TIP3    H138442   5.251   2.710   8.420 -0.6498 -0.5288  0.6156
 4749TIP3    H238443   5.254   2.562   8.388  1.8583 -0.1761 -1.0255
 4750TIP3   OH238444   6.607   0.264   7.872 -0.5584  0.0107  0.1161
 4750TIP3    H138445   6.577   0.177   7.899 -0.4827 -0.0823 -0.0930
 4750TIP3    H238446   6.543   0.324   7.908  0.2010  0.0011  1.5695
 4751TIP3   OH238447   7.464   2.531   8.732  0.1198  0.3676 -0.3460
 4751TIP3    H138448   7.446   2.548   8.824  2.2200  2.6642 -0.2636
 4751TIP3    H238449   7.546   2.481   8.732 -0.7024 -1.0736 -0.9892
 4752TIP3   OH238450   2.310   1.969   8.203 -0.3332  0.1713  0.3175
 4752TIP3    H138451   2.251   1.900   8.174 -0.5798  0.4219  0.2229
 4752TIP3    H238452   2.392   1.924   8.222 -1.1182 -0.4981  2.3446
 4753TIP3   OH238453   3.004   1.758   9.222  0.2152  0.0700 -0.2320
 4753TIP3    H138454   3.082   1.730   9.174  0.1184  1.1816 -1.0685
 4753TIP3    H238455   2.970   1.678   9.261  2.7199 -0.2100  1.5827
 4754TIP3   OH238456   0.938   2.595   9.334  0.2531 -0.5784 -0.3676
 4754TIP3    H138457   0.888   2.651   9.274  0.4220 -0.1721 -0.1270
 4754TIP3    H238458   1.017   2.645   9.354  1.6244 -1.8937 -2.1049
 4755TIP3   OH238459   3.994   4.146   9.130  0.3365 -0.5025 -0.2841
 4755TIP3    H138460   4.004   4.072   9.070  1.9209  0.5266 -1.3672
 4755TIP3    H238461   3.901   4.169   9.125 -0.0218 -1.9039 -0.5137
 4756TIP3   OH238462   2.383   6.970   9.451 -0.4125 -0.7510  0.7486
 4756TIP3    H138463   2.302   6.995   9.495 -1.2724 -0.2084 -1.0559
 4756TIP3    H238464   2.397   7.038   9.386  1.1148 -1.2336  0.5419
 4757TIP3   OH238465   1.264   5.021   8.169  0.2842  0.0719 -0.1172
 4757TIP3    H138466   1.269   5.098   8.226  1.5117 -0.9519  1.2305
 4757TIP3    H238467   1.325   5.041   8.098  0.5568  0.3747  0.1936
 4758TIP3   OH238468   1.805   6.260   8.812 -0.8354 -0.0505 -0.0510
 4758TIP3    H138469   1.861   6.293   8.882 -1.9647 -0.5737  1.1489
 4758TIP3    H238470   1.826   6.167   8.806 -0.9662 -0.0715 -0.1883
 4759TIP3   OH238471   2.169   1.140   8.952  0.3491 -0.6798 -0.5021
 4759TIP3    H138472   2.185   1.133   8.858  0.6562  0.6361 -0.5672
 4759TIP3    H238473   2.137   1.054   8.978  1.5945 -1.4916 -1.5520
 4760TIP3   OH238474   3.697   1.090   9.228  0.2532  0.2117 -0.6965
 4760TIP3    H138475   3.727   1.115   9.316  1.3426 -0.3330 -0.9011
 4760TIP3    H238476   3.660   1.002   9.240  0.0202  0.3045 -0.7181
 4761TIP3   OH238477   5.139   5.713   8.960  0.3614  0.4147 -0.6481
 4761TIP3    H138478   5.094   5.655   9.022 -1.6709  1.2634 -1.2474
 4761TIP3    H238479   5.209   5.659   8.923  0.5194 -0.6440  1.0853
 4762TIP3   OH238480   7.652   5.527   8.817 -0.1805  0.3433 -0.2388
 4762TIP3    H138481   7.691   5.560   8.735 -0.1742 -1.3194 -0.9388
 4762TIP3    H238482   7.685   5.587   8.884  2.6555 -0.2680 -0.9630
 4763TIP3   OH238483   3.505   4.719   7.185  0.5604  0.5693 -0.2765
 4763TIP3    H138484   3.592   4.724   7.146  0.2039 -0.5003 -1.2626
 4763TIP3    H238485   3.446   4.706   7.111 -0.6066  2.5245  0.2394
 4764TIP3   OH238486   2.156   0.031   7.141  0.1422 -0.0567  0.2337
 4764TIP3    H138487   2.196  -0.037   7.086  3.1555  1.3268  0.5201
 4764TIP3    H238488   2.094  -0.017   7.197  0.2319 -2.1337 -1.3105
 4765TIP3   OH238489   4.185   0.892   6.702  0.5253 -0.3367  0.4019
 4765TIP3    H138490   4.187   0.984   6.674  0.0564 -0.1816  0.8743
 4765TIP3    H238491   4.276   0.864   6.694  0.5524 -0.0550 -0.4644
 4766TIP3   OH238492   1.119   4.082   9.336 -0.1220 -0.0765  0.7312
 4766TIP3    H138493   1.091   4.086   9.245 -0.2603  1.8477  0.8090
 4766TIP3    H238494   1.199   4.030   9.334 -0.9452 -1.3521 -0.2431
 4767TIP3   OH238495   5.386   3.841   7.699  0.8646  0.3508  0.3605
 4767TIP3    H138496   5.381   3.902   7.625  1.7085  0.1892  0.1638
 4767TIP3    H238497   5.401   3.756   7.658 -0.3420 -0.0040  0.6333
 4768TIP3   OH238498   1.213   6.486   8.785 -0.4699 -0.1429  0.3529
 4768TIP3    H138499   1.223   6.581   8.787 -1.6292 -0.0105  1.2238
 4768TIP3    H238500   1.292   6.454   8.742 -1.1789  1.3612 -2.3416
 4769TIP3   OH238501   4.274   6.574   6.464 -0.1483 -0.3080 -0.1059
 4769TIP3    H138502   4.229   6.490   6.449  0.3908 -0.6870  0.3315
 4769TIP3    H238503   4.285   6.577   6.559 -0.5880  0.4918 -0.0767
 4770TIP3   OH238504   1.582   1.454   9.654  0.5495  0.2210 -0.3869
 4770TIP3    H138505   1.643   1.380   9.656 -0.4615 -0.7535 -2.2982
 4770TIP3    H238506   1.496   1.413   9.650 -0.2376  1.5611  1.2833
 4771TIP3   OH238507   4.335   4.475   7.302 -0.4021 -0.2662  0.6946
 4771TIP3    H138508   4.374   4.394   7.272  1.4921  0.4278  1.1508
 4771TIP3    H238509   4.392   4.544   7.267 -1.9300  0.8856  0.3482
 4772TIP3   OH238510   0.720   1.206   9.168  0.2826  0.2976 -0.1834
 4772TIP3    H138511   0.755   1.178   9.083  1.9064 -0.3044  0.6556
 4772TIP3    H238512   0.785   1.177   9.232 -0.0849  2.2142  1.1294
 4773TIP3   OH238513   2.991   1.116   7.948  0.4302  0.0194  0.1989
 4773TIP3    H138514   2.969   1.185   7.886  0.9075  1.2983  1.3974
 4773TIP3    H238515   2.970   1.035   7.902  0.4207  0.9278 -1.4780
 4774TIP3   OH238516   3.357   3.288   7.120  0.0607 -0.2244  0.3166
 4774TIP3    H138517   3.287   3.352   7.134  0.1246 -0.1721  0.3945
 4774TIP3    H238518   3.311   3.208   7.096 -0.0352 -0.2336  0.5259
 4775TIP3   OH238519   7.498   2.823   8.907  0.4366  0.3298 -0.0242
 4775TIP3    H138520   7.565   2.877   8.950 -0.6118  1.1091  0.6854
 4775TIP3    H238521   7.493   2.744   8.961 -0.3971  1.0146  0.9409
 4776TIP3   OH238522   2.054   5.048   6.570 -0.4059  0.3242 -0.2139
 4776TIP3    H138523   2.109   5.121   6.598  0.3617 -0.3733  0.1500
 4776TIP3    H238524   1.988   5.040   6.639 -0.0508  0.2210  0.1176
 4777TIP3   OH238525   7.179   0.849   8.154  0.2839  0.2529 -0.0700
 4777TIP3    H138526   7.222   0.822   8.072 -0.0003  0.2448 -0.2185
 4777TIP3    H238527   7.132   0.929   8.131 -0.3353 -0.1086 -0.0849
 4778TIP3   OH238528   6.980   5.408   9.218  0.2001 -0.1926  0.7152
 4778TIP3    H138529   7.026   5.462   9.153 -0.4261 -0.0668  0.3718
 4778TIP3    H238530   6.936   5.340   9.167 -0.5154  0.0647  0.9723
 4779TIP3   OH238531   2.642   5.232   7.329 -0.1466  0.2955  0.2498
 4779TIP3    H138532   2.607   5.143   7.324 -2.5190  1.1546  0.3358
 4779TIP3    H238533   2.708   5.227   7.398 -0.1158 -1.4160  0.1517
 4780TIP3   OH238534   1.570   3.754   9.167 -0.0133  0.0456 -0.0743
 4780TIP3    H138535   1.633   3.710   9.224 -0.6704 -2.0406 -0.8858
 4780TIP3    H238536   1.619   3.773   9.087 -0.0890 -0.4137 -0.2273
 4781TIP3   OH238537   5.093   5.211   7.215  0.2646 -0.2415  0.2278
 4781TIP3    H138538   5.062   5.121   7.205  1.4388 -0.5619 -0.7369
 4781TIP3    H238539   5.150   5.225   7.139 -1.8763  2.1718 -1.0804
 4782TIP3   OH238540   1.916   6.789   6.752 -0.2970  0.0861  0.0158
 4782TIP3    H138541   1.932   6.796   6.658 -0.0461 -1.2475 -0.0555
 4782TIP3    H238542   1.883   6.875   6.777 -0.3415  0.4666 -1.2877
 4783TIP3   OH238543   5.664   6.424   9.300  0.1667 -0.0059  0.2793
 4783TIP3    H138544   5.581   6.389   9.268 -0.3441  1.1614  0.2532
 4783TIP3    H238545   5.678   6.380   9.384 -1.0032  0.4959  0.7704
 4784TIP3   OH238546   1.929   2.846   8.313  0.2158 -0.0259 -0.0179
 4784TIP3    H138547   1.994   2.840   8.384  2.9943 -0.0689 -2.3622
 4784TIP3    H238548   1.946   2.768   8.260 -0.5509  0.8904 -1.6610
 4785TIP3   OH238549   3.662   7.634   8.992  0.2477  0.1967 -0.0686
 4785TIP3    H138550   3.740   7.664   9.039 -0.9457  2.8946  0.4011
 4785TIP3    H238551   3.689   7.552   8.951  2.5794 -0.1989  1.9912
 4786TIP3   OH238552   2.279   1.670   9.441 -0.2272 -0.1220  0.2950
 4786TIP3    H138553   2.346   1.726   9.401  0.8572 -1.7943 -0.3552
 4786TIP3    H238554   2.212   1.731   9.472  1.1632  1.5651  0.1676
 4787TIP3   OH238555   0.077   5.624   8.551 -0.2313  0.7096  0.2267
 4787TIP3    H138556   0.013   5.562   8.514 -1.6320  2.3513 -0.2658
 4787TIP3    H238557   0.118   5.664   8.475 -1.2703  2.2555  0.4237
 4788TIP3   OH238558   0.060   4.877   8.987  0.3875  0.4296 -0.7243
 4788TIP3    H138559   0.151   4.901   9.002 -0.0219  1.4299  0.2530
 4788TIP3    H238560   0.015   4.960   8.972 -0.6671  0.1010  0.5088
 4789TIP3   OH238561   3.771   7.524   7.748 -0.1599  0.6422 -0.3930
 4789TIP3    H138562   3.794   7.605   7.794 -1.7059  0.0180  1.6056
 4789TIP3    H238563   3.845   7.465   7.763  0.1266  1.0425 -0.2319
 4790TIP3   OH238564   2.274   6.215   7.177 -0.7349 -0.0479 -0.1882
 4790TIP3    H138565   2.316   6.257   7.102 -0.6847  0.1102 -0.0718
 4790TIP3    H238566   2.180   6.221   7.159 -0.7210 -0.0512 -0.2610
 4791TIP3   OH238567   1.478   1.558   8.430  0.1760 -0.6650  0.0001
 4791TIP3    H138568   1.538   1.554   8.504  0.3504 -1.7403 -0.1949
 4791TIP3    H238569   1.399   1.515   8.461 -0.1778 -0.0751 -0.0584
 4792TIP3   OH238570   3.298   0.586   6.924 -0.3993  0.1049  0.1339
 4792TIP3    H138571   3.212   0.546   6.916 -0.7122  0.6409  0.7564
 4792TIP3    H238572   3.281   0.672   6.962  0.4598 -0.0084  0.7965
 4793TIP3   OH238573   3.044   4.745   7.722 -0.3595  0.1021 -0.0499
 4793TIP3    H138574   3.025   4.752   7.815  0.8947 -1.9151  0.4078
 4793TIP3    H238575   2.972   4.691   7.687  0.0562 -0.5648  0.1005
 4794TIP3   OH238576   0.858   7.270   7.725  0.4095  0.2487 -0.4040
 4794TIP3    H138577   0.806   7.198   7.689 -1.3172  1.3057 -0.1523
 4794TIP3    H238578   0.875   7.327   7.650  2.3722 -0.7025 -0.7448
 4795TIP3   OH238579   1.630   5.614   8.369  0.8892 -0.0898 -0.3253
 4795TIP3    H138580   1.608   5.559   8.293  2.1675  0.0563 -0.8218
 4795TIP3    H238581   1.603   5.562   8.445 -1.3801  0.1860 -0.8609
 4796TIP3   OH238582   1.966   5.814   7.571  0.0371  0.2190 -0.0126
 4796TIP3    H138583   1.957   5.880   7.640 -1.3703  0.0543 -0.0273
 4796TIP3    H238584   2.052   5.774   7.588  0.0444  0.6962  1.1789
 4797TIP3   OH238585   6.609   6.634   9.083 -0.3150  0.1499 -0.4110
 4797TIP3    H138586   6.615   6.698   9.011 -0.0335  0.2617 -0.2925
 4797TIP3    H238587   6.680   6.660   9.142 -0.2590 -0.2197 -0.3177
 4798TIP3   OH238588   2.776   2.553   8.929  0.0435 -0.0375 -0.1201
 4798TIP3    H138589   2.775   2.631   8.985  0.3967 -0.2358  0.1655
 4798TIP3    H238590   2.823   2.581   8.851  0.4739 -0.0594  0.1280
 4799TIP3   OH238591   7.211   4.645   6.811 -0.4426 -0.1418 -0.3463
 4799TIP3    H138592   7.132   4.622   6.761 -0.5785 -1.2421  0.3248
 4799TIP3    H238593   7.266   4.691   6.748 -1.0075 -0.6440 -1.2474
 4800TIP3   OH238594   0.065   2.393   7.650  0.3066 -0.0397 -0.0089
 4800TIP3    H138595  -0.022   2.429   7.667  1.1814  1.7617  0.9188
 4800TIP3    H238596   0.090   2.351   7.733  0.7699  0.4464  0.1007
 4801TIP3   OH238597   0.415   0.494   8.104 -0.1604  0.0098  0.1442
 4801TIP3    H138598   0.510   0.506   8.105 -0.3828  2.1530 -0.6028
 4801TIP3    H238599   0.383   0.550   8.034 -1.9926 -0.7438  0.3004
 4802TIP3   OH238600   0.230   7.041   9.037 -0.1199  0.2466 -0.4097
 4802TIP3    H138601   0.159   7.099   9.064 -0.0460  0.4975 -0.7550
 4802TIP3    H238602   0.193   6.953   9.047 -0.2068  0.3497  0.1733
 4803TIP3   OH238603   1.336   1.040   8.968 -0.4040  0.2253 -0.1653
 4803TIP3    H138604   1.376   1.081   9.045  0.9536  0.7309 -1.0825
 4803TIP3    H238605   1.253   1.086   8.956 -1.0134 -0.3906  1.4188
 4804TIP3   OH238606   3.801   6.144   8.413 -0.5881 -0.2780  0.0060
 4804TIP3    H138607   3.865   6.204   8.452 -0.8064 -0.0261 -0.0256
 4804TIP3    H238608   3.716   6.182   8.435 -0.7278 -0.6404  0.0859
 4805TIP3   OH238609   3.448   7.272   7.936 -0.2185  0.0982  0.3433
 4805TIP3    H138610   3.356   7.292   7.953 -0.6762 -1.4274 -0.1810
 4805TIP3    H238611   3.494   7.354   7.956 -1.9037  1.6391 -1.5719
 4806TIP3   OH238612   3.173   4.073   7.123  0.1121 -0.2639 -0.6703
 4806TIP3    H138613   3.266   4.069   7.147 -0.1218 -3.0836  0.0293
 4806TIP3    H238614   3.171   4.043   7.033 -0.0632  0.6944 -0.9981
 4807TIP3   OH238615   3.107   2.308   7.407  0.4487  0.6872  0.6508
 4807TIP3    H138616   3.110   2.381   7.345 -2.0432  0.0668 -0.3061
 4807TIP3    H238617   3.191   2.311   7.452  0.6767  3.7424  0.1953
 4808TIP3   OH238618   5.738   3.766   8.516  0.0665 -0.2052 -0.4427
 4808TIP3    H138619   5.829   3.768   8.544 -0.2487 -0.9451  0.6956
 4808TIP3    H238620   5.736   3.822   8.438  0.8109  2.6411  1.4270
 4809TIP3   OH238621   5.519   6.905   8.809 -0.8783  0.3879  0.0152
 4809TIP3    H138622   5.439   6.903   8.755 -0.7948 -0.6154 -0.0916
 4809TIP3    H238623   5.530   6.997   8.832 -0.3644  1.0318 -2.5161
 4810TIP3   OH238624   5.004   5.318   7.760 -0.5893  0.2267 -0.7982
 4810TIP3    H138625   5.040   5.251   7.818  0.0134  1.3213  0.1445
 4810TIP3    H238626   5.016   5.283   7.672 -0.2248 -0.8636 -0.3283
 4811TIP3   OH238627   1.538   6.404   8.927 -0.5062  0.0469  0.0116
 4811TIP3    H138628   1.589   6.389   9.007 -0.5093 -1.9915 -0.3008
 4811TIP3    H238629   1.528   6.499   8.922 -1.3363  0.2295  2.9419
 4812TIP3   OH238630   0.509   2.967   8.084 -0.4632  0.1982  0.3744
 4812TIP3    H138631   0.506   2.989   8.177 -1.0661  0.2239  0.3523
 4812TIP3    H238632   0.603   2.957   8.064 -0.3288  0.2954  0.9557
 4813TIP3   OH238633   1.219   0.571   6.879 -0.0216 -0.1432  0.1413
 4813TIP3    H138634   1.288   0.519   6.838 -1.9769 -0.7703 -2.6022
 4813TIP3    H238635   1.239   0.661   6.855 -0.7444 -0.4360 -1.7509
 4814TIP3   OH238636   0.431   1.212   8.678 -0.4552  0.5578  0.2468
 4814TIP3    H138637   0.374   1.210   8.755 -0.8062  0.0353 -0.0180
 4814TIP3    H238638   0.407   1.293   8.633 -0.8302  0.4638  0.2681
 4815TIP3   OH238639   0.977   0.432   7.297  0.0842  0.6204 -0.3860
 4815TIP3    H138640   0.909   0.464   7.356 -0.6317  0.7792 -1.2785
 4815TIP3    H238641   0.931   0.410   7.216  1.0836  0.6835 -0.9930
 4816TIP3   OH238642   6.095   4.735   8.025  0.4390 -0.1276  0.0380
 4816TIP3    H138643   6.122   4.693   7.943  0.6124 -2.3314  1.1476
 4816TIP3    H238644   6.039   4.670   8.067 -3.2631  2.5860 -0.1963
 4817TIP3   OH238645   1.331   0.792   7.136 -0.4668 -0.5210  0.4105
 4817TIP3    H138646   1.286   0.808   7.053 -0.2629  1.9423  0.7022
 4817TIP3    H238647   1.378   0.710   7.122  0.5881  0.4376 -2.4045
 4818TIP3   OH238648   2.049   1.132   8.497  0.2039  0.3372  0.2904
 4818TIP3    H138649   2.106   1.134   8.573  1.2675  0.7549 -0.4911
 4818TIP3    H238650   1.996   1.212   8.504  2.8331  2.3951 -1.2223
 4819TIP3   OH238651   2.330   6.755   7.451  0.6717 -0.2444  0.2024
 4819TIP3    H138652   2.401   6.705   7.410 -0.0075 -1.0288 -0.0481
 4819TIP3    H238653   2.252   6.731   7.400  0.2649  0.7881  0.3185
 4820TIP3   OH238654   6.652   0.404   9.230  0.5075 -0.0994 -0.2690
 4820TIP3    H138655   6.680   0.319   9.263  3.0675  1.1900  1.2113
 4820TIP3    H238656   6.732   0.444   9.196 -0.4160  2.0839 -0.0334
 4821TIP3   OH238657   2.533   4.959   7.271  0.0700 -0.1419 -0.2952
 4821TIP3    H138658   2.567   4.882   7.318 -0.2461  0.7380  1.4531
 4821TIP3    H238659   2.571   4.952   7.184 -0.7348 -2.8064 -0.5322
 4822TIP3   OH238660   5.169   6.345   7.209  1.0157 -0.1211 -0.2097
 4822TIP3    H138661   5.206   6.407   7.146  2.3491 -0.1716  0.4662
 4822TIP3    H238662   5.081   6.377   7.227  0.6957  0.0080 -1.9260
 4823TIP3   OH238663   1.047   2.107   9.105 -0.4647  0.3390  0.8761
 4823TIP3    H138664   1.044   2.087   9.011  0.8489 -0.0503  0.8932
 4823TIP3    H238665   1.131   2.152   9.117 -0.7763  0.6930  1.8203
 4824TIP3   OH238666   1.972   4.215   7.272 -0.0414 -0.6236 -0.3858
 4824TIP3    H138667   2.012   4.188   7.189 -0.7975 -0.6033 -0.7592
 4824TIP3    H238668   1.972   4.311   7.268  1.3693 -0.5719  0.3363
 4825TIP3   OH238669   6.260   5.198   7.675 -0.1433  0.1166  0.2497
 4825TIP3    H138670   6.193   5.256   7.712  0.0922  0.7972 -0.3585
 4825TIP3    H238671   6.341   5.223   7.719  0.0519  0.6080 -0.3680
 4826TIP3   OH238672   1.758   1.248   9.659 -0.3547  0.3799  0.1043
 4826TIP3    H138673   1.802   1.181   9.606 -0.6938  1.5500 -1.7702
 4826TIP3    H238674   1.797   1.241   9.745  1.0964 -0.8390 -0.6140
 4827TIP3   OH238675   6.844   3.072   9.379  0.0264 -0.3561 -0.3613
 4827TIP3    H138676   6.885   3.033   9.302  1.6251 -0.1896  0.3652
 4827TIP3    H238677   6.853   3.004   9.447 -1.1822 -0.4234 -0.2493
 4828TIP3   OH238678   4.476   0.411   6.614 -0.1165  0.3625  0.0765
 4828TIP3    H138679   4.535   0.339   6.638  1.7793  1.0454 -2.1071
 4828TIP3    H238680   4.417   0.372   6.549 -0.0254  0.4337 -0.0488
 4829TIP3   OH238681   2.482   7.560   8.496  0.0962  0.6931 -0.4307
 4829TIP3    H138682   2.531   7.478   8.495 -0.5356  0.3247 -1.2833
 4829TIP3    H238683   2.544   7.623   8.535  1.5935  0.4351 -2.2648
 4830TIP3   OH238684   7.341   2.026   7.941  0.3726 -0.6260 -0.1811
 4830TIP3    H138685   7.314   2.110   7.904 -0.5631 -0.2475  1.2708
 4830TIP3    H238686   7.266   1.998   7.994  1.5700 -1.1689  1.3253
 4831TIP3   OH238687   1.762   7.233   8.810  0.9818 -0.4865 -0.1668
 4831TIP3    H138688   1.755   7.147   8.852  0.4874 -0.4456 -0.1606
 4831TIP3    H238689   1.705   7.228   8.734  0.7063 -0.0580  0.0107
 4832TIP3   OH238690   6.358   1.647   9.326  0.4989 -0.6502 -0.3168
 4832TIP3    H138691   6.312   1.634   9.243  0.1840 -0.4813 -0.1703
 4832TIP3    H238692   6.295   1.619   9.393 -0.2833  1.7656  0.0280
 4833TIP3   OH238693   2.119   3.352   7.296  0.6068 -0.4610  0.5702
 4833TIP3    H138694   2.047   3.373   7.356  1.4984 -0.4786  1.6577
 4833TIP3    H238695   2.075   3.322   7.216 -0.6033  0.1238  0.9972
 4834TIP3   OH238696   4.524   7.013   8.841 -0.3493  0.0130 -0.3453
 4834TIP3    H138697   4.447   6.992   8.893 -0.7084  1.0298 -0.4505
 4834TIP3    H238698   4.537   7.107   8.854  0.7259 -0.0926 -0.5277
 4835TIP3   OH238699   4.463   1.190   8.447  0.3602 -0.4347  0.2296
 4835TIP3    H138700   4.392   1.181   8.383 -1.1474 -0.8355  1.8708
 4835TIP3    H238701   4.517   1.111   8.435  0.8805  0.1403 -1.4059
 4836TIP3   OH238702   1.225   0.580   8.930 -0.2600 -0.3910 -0.1728
 4836TIP3    H138703   1.234   0.667   8.890 -1.2428 -0.3165 -0.2478
 4836TIP3    H238704   1.134   0.557   8.917  0.1222 -1.6962 -0.6655
 4837TIP3   OH238705   1.828   1.804   8.054  0.2368 -0.4391  0.5758
 4837TIP3    H138706   1.878   1.886   8.049 -0.1125 -0.0219  2.8697
 4837TIP3    H238707   1.738   1.832   8.071 -0.1971 -1.2794 -0.2523
 4838TIP3   OH238708   6.794   4.272   8.198 -0.0056  0.2424 -0.1564
 4838TIP3    H138709   6.849   4.194   8.209  0.7139  0.6758 -0.5994
 4838TIP3    H238710   6.815   4.326   8.274  0.4201  0.5402 -0.4782
 4839TIP3   OH238711   2.014   0.701   7.146 -0.1997 -0.0337  0.8849
 4839TIP3    H138712   1.941   0.655   7.105  0.0868 -0.7807  1.2008
 4839TIP3    H238713   2.052   0.754   7.076  0.3885 -1.4209  0.1281
 4840TIP3   OH238714   4.007   6.097   7.681 -0.5766 -0.3040 -0.1736
 4840TIP3    H138715   3.919   6.130   7.699 -0.5793  0.9910 -2.2367
 4840TIP3    H238716   4.065   6.153   7.732 -0.7567  1.4510 -1.7614
 4841TIP3   OH238717   2.128   2.196   7.612 -0.5437 -0.1747 -0.1352
 4841TIP3    H138718   2.047   2.155   7.582 -0.8933 -0.6838  1.4094
 4841TIP3    H238719   2.193   2.125   7.609 -0.7526 -0.4350  0.9307
 4842TIP3   OH238720   3.005   6.988   6.988  0.4907 -0.3320 -0.2682
 4842TIP3    H138721   2.981   7.072   6.948  1.5854  0.0380 -0.1839
 4842TIP3    H238722   3.006   7.005   7.082  0.9793 -0.3715 -0.2674
 4843TIP3   OH238723   4.911   1.937   6.944 -0.1416  0.3567  0.0182
 4843TIP3    H138724   4.878   1.887   6.869  0.1747  1.1411 -0.6491
 4843TIP3    H238725   4.854   1.911   7.016 -1.5003  0.8212 -0.8571
 4844TIP3   OH238726   2.041   4.652   9.075  0.2297  0.1495 -0.2455
 4844TIP3    H138727   2.136   4.662   9.076  0.3140 -0.6179  0.8797
 4844TIP3    H238728   2.022   4.591   9.146 -1.0588 -0.1681 -0.8318
 4845TIP3   OH238729   4.940   1.275   7.490  0.0155 -0.3168  0.7416
 4845TIP3    H138730   5.035   1.268   7.482  0.0279  0.9780 -0.6191
 4845TIP3    H238731   4.923   1.259   7.583  1.3528 -2.4423  0.6820
 4846TIP3   OH238732   6.350   7.543   8.501 -0.2836  0.5505  0.5215
 4846TIP3    H138733   6.382   7.623   8.543 -0.8433  0.3246  1.4231
 4846TIP3    H238734   6.428   7.487   8.494 -0.0971  0.7563  0.8989
 4847TIP3   OH238735   1.075   1.526   9.029  0.2548 -0.2347  0.2715
 4847TIP3    H138736   1.119   1.473   8.962  2.5767  0.6387  1.0044
 4847TIP3    H238737   1.017   1.464   9.074  0.8286 -1.5057 -0.6748
 4848TIP3   OH238738   3.084   0.861   8.084  0.0096  0.2836  0.2370
 4848TIP3    H138739   3.043   0.833   8.002  1.1319  0.0132 -0.2522
 4848TIP3    H238740   3.012   0.861   8.148 -1.2796  2.2234 -1.0889
 4849TIP3   OH238741   4.953   2.701   9.185  0.3719 -0.4285  0.0380
 4849TIP3    H138742   5.008   2.628   9.214  1.7437 -0.0377 -1.4130
 4849TIP3    H238743   4.864   2.674   9.208  1.0862 -1.2286  2.2045
 4850TIP3   OH238744   3.716   3.742   9.313  0.0938 -0.3044  0.3175
 4850TIP3    H138745   3.804   3.780   9.308 -0.1757  0.3356  0.2758
 4850TIP3    H238746   3.724   3.671   9.377  0.7521 -0.5838 -0.0609
 4851TIP3   OH238747   6.509   7.680   8.224 -0.0639  0.6907 -0.2437
 4851TIP3    H138748   6.478   7.769   8.207 -2.5247 -0.1697 -0.6184
 4851TIP3    H238749   6.504   7.670   8.319  1.3255  1.2799 -0.0801
 4852TIP3   OH238750   3.380   4.960   9.075 -0.4294  0.3269  0.0831
 4852TIP3    H138751   3.448   4.918   9.022 -1.0505 -0.2551 -0.2785
 4852TIP3    H238752   3.380   4.911   9.158  0.5413  1.2365  0.6293
 4853TIP3   OH238753   6.948   7.053   7.687  0.1143  0.0214  0.3722
 4853TIP3    H138754   6.929   7.122   7.750  0.1249 -0.3256  0.7564
 4853TIP3    H238755   7.027   7.011   7.721 -0.2623 -0.6012  0.4932
 4854TIP3   OH238756   5.475   2.653   8.745  0.4365 -0.1784 -0.6635
 4854TIP3    H138757   5.558   2.664   8.791  0.7682  1.8260 -1.6078
 4854TIP3    H238758   5.437   2.741   8.743 -0.7797 -0.6876 -1.9293
 4855TIP3   OH238759   6.837   2.624   8.705  0.5758 -0.4614 -0.0415
 4855TIP3    H138760   6.869   2.585   8.786 -0.4954 -2.4656 -0.5296
 4855TIP3    H238761   6.795   2.706   8.733  3.0392  0.5422  0.9830
 4856TIP3   OH238762   1.512   2.479   8.274  0.1373 -0.2229  0.3880
 4856TIP3    H138763   1.446   2.414   8.298  0.4822 -0.3194  1.0888
 4856TIP3    H238764   1.475   2.522   8.196 -2.0584  1.5361  2.2331
 4857TIP3   OH238765   0.890   4.073   9.532  0.0699  0.3731  0.0822
 4857TIP3    H138766   0.937   4.070   9.449 -1.0739  2.1351 -0.7084
 4857TIP3    H238767   0.877   4.166   9.549 -0.5993  0.0191  1.7312
 4858TIP3   OH238768   0.196   0.911   9.553  0.0033  0.4976  0.2538
 4858TIP3    H138769   0.225   0.949   9.470 -0.6652  1.0385  0.2577
 4858TIP3    H238770   0.116   0.959   9.574 -0.7665 -0.7957  0.3512
 4859TIP3   OH238771   4.978   0.852   7.146  0.0018 -0.0587  0.5356
 4859TIP3    H138772   5.072   0.869   7.154 -0.2213  1.1230  0.8162
 4859TIP3    H238773   4.937   0.919   7.199 -1.0627  0.2151 -0.5850
 4860TIP3   OH238774   5.426   7.193   7.645  0.2019  0.5618 -0.6923
 4860TIP3    H138775   5.338   7.226   7.628  0.0006 -0.5034 -1.9379
 4860TIP3    H238776   5.454   7.154   7.562  2.2837  1.7773 -0.6390
 4861TIP3   OH238777   1.260   5.474   9.067  0.5620 -0.2671 -0.3524
 4861TIP3    H138778   1.344   5.440   9.099  0.2502 -0.1212  0.6653
 4861TIP3    H238779   1.282   5.556   9.023  0.8709  0.2105  0.6639
 4862TIP3   OH238780   3.484   0.040   8.139  0.7017  0.1708 -0.1045
 4862TIP3    H138781   3.407   0.097   8.146  0.0965 -0.7357  0.9161
 4862TIP3    H238782   3.545   0.074   8.205  1.7224  1.6197 -1.6927
 4863TIP3   OH238783   2.695   5.460   9.026 -0.0189 -0.2018 -0.1567
 4863TIP3    H138784   2.607   5.498   9.023  1.2140  3.2402  1.4842
 4863TIP3    H238785   2.721   5.470   9.117  1.9776 -1.3870 -0.5608
 4864TIP3   OH238786   0.284   5.523   8.888 -0.0971  0.3641 -0.0041
 4864TIP3    H138787   0.244   5.603   8.922  0.2927 -0.0810  1.6051
 4864TIP3    H238788   0.226   5.495   8.818 -0.3779  1.9131 -0.4267
 4865TIP3   OH238789   3.783   6.518   7.990 -0.0855 -0.4871 -0.0346
 4865TIP3    H138790   3.857   6.466   8.023  1.8984  1.2920 -1.3966
 4865TIP3    H238791   3.750   6.564   8.067  1.7640  0.4361  0.2740
 4866TIP3   OH238792   6.115   6.568   9.219 -0.0815  0.7790  0.3947
 4866TIP3    H138793   6.207   6.583   9.199 -0.2639 -0.2586 -1.4384
 4866TIP3    H238794   6.069   6.586   9.137 -1.6665  2.3228  1.5452
 4867TIP3   OH238795   3.526   0.989   7.508 -0.5726  0.0188 -0.8864
 4867TIP3    H138796   3.576   1.008   7.587 -1.5876 -0.0547 -0.2081
 4867TIP3    H238797   3.583   1.016   7.436  0.5140 -0.2641 -0.1452
 4868TIP3   OH238798   3.532   2.675   9.537 -0.2315  0.0554  0.3481
 4868TIP3    H138799   3.461   2.739   9.540  1.0180  1.6008 -1.1457
 4868TIP3    H238800   3.594   2.706   9.604  0.2404  0.2584 -0.1776
 4869TIP3   OH238801   7.615   0.833   8.101 -0.3408  0.1867  0.3626
 4869TIP3    H138802   7.578   0.884   8.173  0.4669 -0.3551  1.1781
 4869TIP3    H238803   7.565   0.751   8.100  0.4385 -0.3153  1.1113
 4870TIP3   OH238804   3.016   1.125   7.585  0.3158 -0.0609  0.2064
 4870TIP3    H138805   3.000   1.141   7.492  1.7250  1.3960  0.1805
 4870TIP3    H238806   3.101   1.082   7.588  1.1831  1.6293  0.9129
 4871TIP3   OH238807   5.231   6.530   8.274  0.1302  0.2636  0.1902
 4871TIP3    H138808   5.193   6.614   8.301  0.9229  0.9885 -0.8433
 4871TIP3    H238809   5.308   6.520   8.331  3.0800  2.8504 -2.8650
 4872TIP3   OH238810   1.272   7.432   6.786 -0.1349  0.0724 -0.3909
 4872TIP3    H138811   1.187   7.474   6.778 -0.5525 -0.1953  2.0394
 4872TIP3    H238812   1.256   7.352   6.836  1.4121 -0.4401 -0.6359
 4873TIP3   OH238813   0.117   2.539   7.426  0.1346  0.4983  0.3276
 4873TIP3    H138814   0.120   2.482   7.502  0.8191  0.6344  0.4160
 4873TIP3    H238815   0.053   2.499   7.368  0.8641 -0.5640  0.2296
 4874TIP3   OH238816   6.523   4.830   9.399  0.1631  0.0879  0.3022
 4874TIP3    H138817   6.559   4.919   9.397  1.3062 -0.3601 -0.8459
 4874TIP3    H238818   6.428   4.842   9.404  0.3463  1.3466  1.2316
 4875TIP3   OH238819   0.272   4.641   8.133  0.2953  0.4589 -0.3965
 4875TIP3    H138820   0.250   4.548   8.132 -4.0866  1.2239  1.2894
 4875TIP3    H238821   0.255   4.671   8.044 -0.0693 -0.0528 -0.5038
 4876TIP3   OH238822   7.538   1.148   7.264  0.0943  0.0169 -0.5250
 4876TIP3    H138823   7.611   1.188   7.312 -0.3089  0.4835 -0.2887
 4876TIP3    H238824   7.576   1.121   7.181  0.9063 -1.1493  0.1872
 4877TIP3   OH238825   3.114   4.708   9.107 -0.1101  0.0204  0.2354
 4877TIP3    H138826   3.171   4.699   9.184  0.3243 -1.7632 -0.2450
 4877TIP3    H238827   3.150   4.784   9.060 -0.1346  0.8893  1.5555
 4878TIP3   OH238828   0.496   0.169   7.382  0.7544  0.9016  0.2201
 4878TIP3    H138829   0.476   0.098   7.322  1.3724  0.6257  0.3296
 4878TIP3    H238830   0.494   0.248   7.327  1.1417  0.6724 -0.1345
 4879TIP3   OH238831   3.991   6.397   7.506  0.1763  0.8611 -0.1868
 4879TIP3    H138832   3.948   6.476   7.540 -3.4775 -1.3031  0.8177
 4879TIP3    H238833   3.950   6.325   7.554  3.4314 -1.7194 -0.9439
 4880TIP3   OH238834   4.085   2.270   7.833 -0.0587 -0.3324  0.0797
 4880TIP3    H138835   4.164   2.299   7.878 -0.5231 -0.5328  1.0427
 4880TIP3    H238836   4.074   2.179   7.860 -1.5510  0.1816  1.3554
 4881TIP3   OH238837   1.656   4.174   8.510 -0.3718 -0.0186  0.1816
 4881TIP3    H138838   1.663   4.267   8.531 -0.2523  0.2737 -1.0488
 4881TIP3    H238839   1.570   4.149   8.541 -0.4957  0.5612  0.3215
 4882TIP3   OH238840   3.008   1.102   9.099  0.0924  0.0215 -0.0891
 4882TIP3    H138841   2.939   1.094   9.165 -0.0417  0.0929 -0.2190
 4882TIP3    H238842   3.083   1.137   9.147  0.6270 -1.7308  0.4455
 4883TIP3   OH238843   1.935   6.771   8.139 -0.1497  0.1160 -0.2168
 4883TIP3    H138844   1.895   6.831   8.076 -0.0709  0.8552  0.4321
 4883TIP3    H238845   2.016   6.742   8.096 -0.0688  0.6544 -0.4324
 4884TIP3   OH238846   6.865   1.305   7.344  0.2151  0.8114  0.2214
 4884TIP3    H138847   6.960   1.298   7.356  0.3660 -1.2323 -1.6585
 4884TIP3    H238848   6.852   1.302   7.250 -1.7855  0.0401  0.4690
 4885TIP3   OH238849   5.791   7.568   9.578 -0.1564  0.2117  0.5003
 4885TIP3    H138850   5.842   7.487   9.575  1.8208  1.3133  2.0203
 4885TIP3    H238851   5.781   7.593   9.486  2.7319  0.2668  0.1124
 4886TIP3   OH238852   2.782   5.303   9.536 -0.6005  0.3204 -0.0092
 4886TIP3    H138853   2.796   5.245   9.611 -0.6707  1.1178  0.6467
 4886TIP3    H238854   2.824   5.260   9.463 -0.1843 -0.2932  0.5822
 4887TIP3   OH238855   3.816   3.528   9.453  0.5178  0.2731 -0.8118
 4887TIP3    H138856   3.827   3.454   9.393  2.3765 -0.3968  0.2773
 4887TIP3    H238857   3.887   3.517   9.517  0.1829  2.4195 -0.0205
 4888TIP3   OH238858   4.025   5.371   8.770 -0.8102 -0.1055  0.4222
 4888TIP3    H138859   3.997   5.397   8.858  1.6092 -0.6591  1.4380
 4888TIP3    H238860   4.029   5.453   8.721 -1.7385  0.2740  0.9630
 4889TIP3   OH238861   1.957   5.422   8.346  0.3569  0.1181 -0.1217
 4889TIP3    H138862   1.910   5.356   8.397 -1.0645  0.5301 -0.8361
 4889TIP3    H238863   2.040   5.433   8.392  0.3588 -1.6879  0.3650
 4890TIP3   OH238864   1.608   5.827   9.339 -0.1287 -0.4188 -0.4631
 4890TIP3    H138865   1.689   5.876   9.332  0.1397 -1.0140 -1.6954
 4890TIP3    H238866   1.543   5.881   9.294 -0.4939  0.1601  0.7053
 4891TIP3   OH238867   1.877   5.519   9.128  0.5649  0.0019  0.3766
 4891TIP3    H138868   1.802   5.564   9.091  0.8223  1.2341  1.2954
 4891TIP3    H238869   1.909   5.577   9.197  3.1782  0.1728 -0.8531
 4892TIP3   OH238870   4.656   7.625   9.010 -0.6094  0.0694 -0.5048
 4892TIP3    H138871   4.698   7.704   8.974  2.5153 -1.9041 -1.5616
 4892TIP3    H238872   4.613   7.584   8.934  2.0549 -1.7128 -1.1676
 4893TIP3   OH238873   7.436   1.806   9.189  0.6039  0.1598  0.1306
 4893TIP3    H138874   7.521   1.830   9.227  0.4726 -1.0900  1.2825
 4893TIP3    H238875   7.450   1.718   9.154  0.4860  0.9444 -2.0613
 4894TIP3   OH238876   1.350   0.508   9.566  0.0093  0.6894 -0.1683
 4894TIP3    H138877   1.417   0.482   9.630 -0.1224  2.3834  0.7198
 4894TIP3    H238878   1.392   0.577   9.514 -0.6351  0.8787 -0.4393
 4895TIP3   OH238879   4.787   1.064   9.179 -0.0284 -0.0634 -0.6747
 4895TIP3    H138880   4.722   1.015   9.129  1.9116 -3.0496 -0.5243
 4895TIP3    H238881   4.776   1.033   9.269 -0.6531  2.0805  0.0598
 4896TIP3   OH238882   6.133   3.075   8.512  0.1876 -1.0177  0.1129
 4896TIP3    H138883   6.042   3.066   8.481  0.5575 -1.8816 -0.7693
 4896TIP3    H238884   6.160   3.161   8.479 -0.1715 -0.9521 -0.0179
 4897TIP3   OH238885   5.978   4.301   9.047 -0.7431 -0.1897 -0.2563
 4897TIP3    H138886   5.964   4.276   8.955  2.0367 -2.7372 -0.1513
 4897TIP3    H238887   5.965   4.220   9.096 -1.6817  1.0122  1.5875
 4898TIP3   OH238888   6.304   7.553   9.207  0.2297 -0.5219  0.0317
 4898TIP3    H138889   6.267   7.465   9.208 -0.3225 -0.2995 -0.2982
 4898TIP3    H238890   6.230   7.611   9.225  0.8360 -0.1861  1.5883
 4899TIP3   OH238891   1.809   2.143   9.034  0.3099 -0.8963 -0.7895
 4899TIP3    H138892   1.865   2.068   9.049 -1.4890 -1.9688  1.0518
 4899TIP3    H238893   1.826   2.168   8.943  2.6231 -2.0639 -0.7295
 4900TIP3   OH238894   6.868   6.521   9.226 -0.0948 -0.4394 -0.0574
 4900TIP3    H138895   6.790   6.563   9.262 -0.7413 -1.1602 -0.5760
 4900TIP3    H238896   6.855   6.428   9.244 -0.7237 -0.9226 -2.5457
 4901TIP3   OH238897   6.669   6.376   8.996 -0.2852  0.6640 -0.4532
 4901TIP3    H138898   6.682   6.470   9.012  2.6352  0.3138 -0.0921
 4901TIP3    H238899   6.584   6.357   9.035  0.2292  2.6661  1.9646
 4902TIP3   OH238900   1.315   7.426   7.645  0.1541 -0.2315 -0.0845
 4902TIP3    H138901   1.384   7.484   7.614  0.2497 -0.0987  0.3706
 4902TIP3    H238902   1.281   7.385   7.566  0.9744 -0.5504 -0.2783
 4903TIP3   OH238903   1.808   0.726   7.569  0.2872 -0.0567  0.0879
 4903TIP3    H138904   1.853   0.785   7.508 -1.1772  1.2716  0.2312
 4903TIP3    H238905   1.718   0.722   7.536  0.1398 -1.5990  0.5649
 4904TIP3   OH238906   6.423   1.744   7.527  0.2626 -0.0691  0.2818
 4904TIP3    H138907   6.454   1.698   7.605  1.5679 -0.7505 -0.5943
 4904TIP3    H238908   6.343   1.699   7.503  0.8490 -1.0703  0.1698
 4905TIP3   OH238909   2.191   3.165   8.790  0.5668 -0.2401  0.1182
 4905TIP3    H138910   2.163   3.089   8.842 -0.4278 -1.5393 -2.1542
 4905TIP3    H238911   2.281   3.144   8.763  0.6243 -0.1859  0.2722
 4906TIP3   OH238912   2.624   4.076   8.389  0.0146  0.3222 -0.0086
 4906TIP3    H138913   2.592   4.128   8.315  0.7416  1.2313  0.2969
 4906TIP3    H238914   2.687   4.016   8.350 -0.8705 -0.4085 -0.3724
 4907TIP3   OH238915   2.538   6.523   7.472  0.1231  0.0564 -0.7172
 4907TIP3    H138916   2.588   6.501   7.393  0.4397 -0.3967 -0.3959
 4907TIP3    H238917   2.602   6.518   7.543 -0.6067 -1.7002 -0.1306
 4908TIP3   OH238918   0.286   0.038   8.305 -0.6036 -0.0177 -0.3135
 4908TIP3    H138919   0.309   0.040   8.398  0.8102 -0.2437 -0.6329
 4908TIP3    H238920   0.303   0.127   8.274  0.2865 -0.2873 -0.6405
 4909TIP3   OH238921   0.035   7.533   8.496 -0.0687 -0.4580  0.6694
 4909TIP3    H138922  -0.007   7.529   8.582  1.5154 -2.1145  1.4428
 4909TIP3    H238923   0.104   7.467   8.501 -1.4972 -2.4349 -2.7649
 4910TIP3   OH238924   2.962   7.656   7.613  0.1959  0.2108  0.5250
 4910TIP3    H138925   2.964   7.609   7.529 -0.7041  1.4854 -0.2336
 4910TIP3    H238926   2.945   7.747   7.589  0.5409  0.7045  2.0676
 4911TIP3   OH238927   3.657   2.786   8.100 -0.0297  0.1738  0.0656
 4911TIP3    H138928   3.585   2.749   8.151  0.2748  1.6167  1.6434
 4911TIP3    H238929   3.712   2.711   8.079 -0.3413 -0.5308  1.6125
 4912TIP3   OH238930   0.515   1.934   7.976  0.8928  0.5311 -0.3519
 4912TIP3    H138931   0.426   1.919   8.010  0.8643  3.5000  1.1659
 4912TIP3    H238932   0.501   1.981   7.894  1.0855 -1.2643 -1.4627
 4913TIP3   OH238933   5.318   5.160   6.669  0.1531  0.1013  0.8291
 4913TIP3    H138934   5.386   5.130   6.609  0.0864  1.6019 -0.0406
 4913TIP3    H238935   5.268   5.081   6.690  1.5754 -0.8499  0.7421
 4914TIP3   OH238936   4.029   6.954   9.361  0.2638 -0.1140 -0.2028
 4914TIP3    H138937   4.124   6.941   9.371  0.5188  1.0558 -0.8063
 4914TIP3    H238938   4.014   7.042   9.396 -0.5649 -0.2156 -0.3036
 4915TIP3   OH238939   4.223   0.801   7.885  0.0966  0.0376 -0.1032
 4915TIP3    H138940   4.231   0.892   7.914 -1.7925  0.2113 -0.0162
 4915TIP3    H238941   4.240   0.750   7.964  1.1492  0.2934 -0.1472
 4916TIP3   OH238942   4.621   2.791   7.875  0.3423 -0.0946 -0.2906
 4916TIP3    H138943   4.618   2.742   7.957 -0.1950  2.9155  1.6372
 4916TIP3    H238944   4.591   2.729   7.809 -0.8300 -2.1811  2.0436
 4917TIP3   OH238945   4.160   3.546   8.848  0.3158  0.4312 -0.1520
 4917TIP3    H138946   4.228   3.582   8.905 -0.3405 -0.1861  1.0696
 4917TIP3    H238947   4.102   3.620   8.831  1.1946  0.9268 -1.0874
 4918TIP3   OH238948   0.331   6.759   8.079  0.0930  0.0677  0.0204
 4918TIP3    H138949   0.399   6.795   8.022  2.0929 -2.0198  0.9532
 4918TIP3    H238950   0.319   6.825   8.147  1.3044  0.4429 -0.1013
 4919TIP3   OH238951   1.571   0.254   8.545  0.6983  0.0968 -0.1007
 4919TIP3    H138952   1.585   0.330   8.603  3.0854  0.2176 -0.7528
 4919TIP3    H238953   1.614   0.278   8.463  0.8311 -1.6728 -0.5789
 4920TIP3   OH238954   3.971   3.345   8.934 -0.3195 -0.0646  0.6360
 4920TIP3    H138955   3.916   3.316   8.860  1.1995 -0.6778 -0.2899
 4920TIP3    H238956   4.033   3.406   8.894  0.8590 -0.8089  1.2999
 4921TIP3   OH238957   5.362   0.596   8.729  0.2544  0.0972 -0.3982
 4921TIP3    H138958   5.295   0.644   8.681 -0.5156 -0.2959  0.2532
 4921TIP3    H238959   5.321   0.575   8.813  0.7129 -1.3214 -0.4965
 4922TIP3   OH238960   7.644   7.078   7.660  0.0902 -0.7211 -0.0934
 4922TIP3    H138961   7.697   7.076   7.581 -0.3027 -0.9026 -0.3510
 4922TIP3    H238962   7.570   7.135   7.639  0.0638 -0.6427  0.1952
 4923TIP3   OH238963   5.880   4.602   7.508 -0.0476  0.5108  0.1727
 4923TIP3    H138964   5.947   4.533   7.503  0.8953  1.4391 -0.5054
 4923TIP3    H238965   5.901   4.661   7.435 -2.0205  0.4831 -0.4713
 4924TIP3   OH238966   2.707   4.920   7.784  0.1507 -0.0986  0.0562
 4924TIP3    H138967   2.695   4.978   7.859 -0.5322 -1.4550  1.0405
 4924TIP3    H238968   2.775   4.963   7.732  1.9096  0.0937  2.3012
 4925TIP3   OH238969   3.632   5.797   7.161  0.3384  0.1482 -0.4037
 4925TIP3    H138970   3.563   5.764   7.103  0.0288  0.0783 -0.0013
 4925TIP3    H238971   3.714   5.774   7.116  0.1108 -0.2314 -0.6372
 4926TIP3   OH238972   1.989   4.824   7.074 -0.0200 -0.3848  0.1328
 4926TIP3    H138973   1.917   4.879   7.043 -1.5224 -2.6112 -0.4812
 4926TIP3    H238974   2.055   4.830   7.005  1.1076  2.7253  1.2884
 4927TIP3   OH238975   1.776   0.622   8.027  0.1771 -0.7401 -0.7359
 4927TIP3    H138976   1.701   0.671   7.995  1.5565  0.5585 -2.1468
 4927TIP3    H238977   1.807   0.672   8.103  0.1828 -0.7573 -0.7274
 4928TIP3   OH238978   0.874   5.266   7.578  0.0414  0.2714 -0.4364
 4928TIP3    H138979   0.786   5.301   7.566  0.4028  1.5724  0.5159
 4928TIP3    H238980   0.909   5.314   7.653  2.1822  1.0830 -1.8511
 4929TIP3   OH238981   2.429   7.279   6.836 -0.4829  0.3039  0.0329
 4929TIP3    H138982   2.511   7.295   6.791 -0.5916 -0.4644 -0.4652
 4929TIP3    H238983   2.415   7.356   6.891  0.4244  0.5579 -0.0888
 4930TIP3   OH238984   5.056   0.865   9.415  0.0628 -0.7988 -0.2893
 4930TIP3    H138985   5.150   0.879   9.403 -0.1285  0.0085 -0.9108
 4930TIP3    H238986   5.051   0.800   9.484  1.0591 -0.0840  0.4871
 4931TIP3   OH238987   0.444   0.230   9.271  0.1117  0.0576  0.4144
 4931TIP3    H138988   0.460   0.299   9.335  1.8164 -0.1199  0.2227
 4931TIP3    H238989   0.355   0.246   9.240 -1.0878 -0.3134  3.3637
 4932TIP3   OH238990   5.446   4.000   8.303  0.2970  0.1707 -0.0253
 4932TIP3    H138991   5.439   4.094   8.320  0.8569  0.4948 -1.4446
 4932TIP3    H238992   5.382   3.983   8.234 -0.2038 -0.6189  0.6160
 4933TIP3   OH238993   3.985   6.595   8.811  0.0470 -0.3789  0.3900
 4933TIP3    H138994   4.019   6.658   8.747 -0.6730 -0.6712 -0.2794
 4933TIP3    H238995   3.890   6.606   8.808 -0.1102 -1.7261  0.0322
 4934TIP3   OH238996   2.527   1.655   8.999 -0.3856  0.3332 -0.1535
 4934TIP3    H138997   2.531   1.632   9.092  0.8761 -0.3910 -0.3684
 4934TIP3    H238998   2.513   1.572   8.954 -1.0745  0.6928 -0.6184
 4935TIP3   OH238999   5.781   2.835   7.570  0.3364  0.5499 -0.1399
 4935TIP3    H139000   5.760   2.763   7.512 -0.4744  0.6640  0.0089
 4935TIP3    H239001   5.877   2.835   7.575  0.3700 -0.0002 -0.7792
 4936TIP3   OH239002   0.638   3.077   6.618 -0.3136  0.0508  0.2022
 4936TIP3    H139003   0.563   3.035   6.576 -2.6835  3.0533  1.0803
 4936TIP3    H239004   0.646   3.162   6.574  0.8627  0.8842  1.8959
 4937TIP3   OH239005   2.330   2.763   7.624 -0.1911 -0.4844  0.1387
 4937TIP3    H139006   2.334   2.829   7.693  0.1066  0.9205 -1.1701
 4937TIP3    H239007   2.273   2.695   7.660  0.5499 -0.1755  2.0478
 4938TIP3   OH239008   0.352   7.670   8.981  0.0370 -0.0327 -0.0283
 4938TIP3    H139009   0.442   7.672   8.949  0.2411 -2.0884  0.2675
 4938TIP3    H239010   0.312   7.596   8.934 -1.4264  0.6906  0.0313
 4939TIP3   OH239011   6.042   0.937   8.418 -0.3721 -0.3193  0.1615
 4939TIP3    H139012   6.028   0.919   8.325 -0.9250 -2.8654  0.6679
 4939TIP3    H239013   5.957   0.968   8.449 -0.7647 -1.3548  0.1754
 4940TIP3   OH239014   4.007   1.414   8.087 -0.1026  0.0375  0.5192
 4940TIP3    H139015   4.089   1.405   8.135  1.1935 -0.9085 -1.7294
 4940TIP3    H239016   3.939   1.403   8.154  1.4549  3.5360  2.9477
 4941TIP3   OH239017   2.790   0.685   9.249  0.5985 -0.1372 -0.2303
 4941TIP3    H139018   2.879   0.695   9.283  0.1254  1.9881  0.5485
 4941TIP3    H239019   2.758   0.604   9.289  1.4852  0.1785  1.1870
 4942TIP3   OH239020   7.061   0.532   8.653  0.0962  0.1485 -0.7014
 4942TIP3    H139021   6.994   0.533   8.585 -1.0416 -0.4922  0.3710
 4942TIP3    H239022   7.057   0.444   8.689 -0.0605  0.7645  0.8849
 4943TIP3   OH239023   3.246   6.286   7.206 -0.2921  0.1110  0.5176
 4943TIP3    H139024   3.181   6.243   7.151 -0.8119  0.2108  1.0461
 4943TIP3    H239025   3.225   6.379   7.201  0.2304  0.2151  0.1558
 4944TIP3   OH239026   0.938   5.873   7.244  0.2079 -0.3834 -0.7136
 4944TIP3    H139027   1.015   5.893   7.298  0.6773 -1.2489 -1.0490
 4944TIP3    H239028   0.885   5.816   7.300 -0.6911  0.9952 -0.1036
 4945TIP3   OH239029   4.713   2.100   8.081  0.2899 -0.2945 -0.7862
 4945TIP3    H139030   4.727   2.106   8.175  0.3689  0.6419 -0.8528
 4945TIP3    H239031   4.791   2.057   8.048  1.0086  0.8536 -0.6154
 4946TIP3   OH239032   4.953   6.676   7.333 -0.9858  0.0495  0.0500
 4946TIP3    H139033   4.886   6.693   7.267  0.8150  1.3798 -1.5578
 4946TIP3    H239034   5.036   6.693   7.288  0.4048 -0.4308  2.2629
 4947TIP3   OH239035   6.225   6.860   9.113  0.1907 -0.1176 -0.1803
 4947TIP3    H139036   6.220   6.765   9.128 -2.3538 -0.2023 -1.0303
 4947TIP3    H239037   6.244   6.897   9.199  0.7418 -1.3804  0.2569
 4948TIP3   OH239038   4.880   0.602   9.004  0.2449 -0.1706 -0.2924
 4948TIP3    H139039   4.850   0.622   8.916 -0.0801 -1.3370 -0.4662
 4948TIP3    H239040   4.922   0.683   9.035 -0.7876  0.6660 -1.0193
 4949TIP3   OH239041   0.694   0.983   7.399 -1.0255  0.1238 -0.6846
 4949TIP3    H139042   0.672   1.061   7.449 -3.1620 -0.4466 -0.6520
 4949TIP3    H239043   0.756   0.936   7.455 -0.2549  1.4372 -0.4007
 4950TIP3   OH239044   7.205   0.490   9.603  0.2870  0.3508 -0.2268
 4950TIP3    H139045   7.112   0.466   9.597  0.4619 -0.2441 -0.6242
 4950TIP3    H239046   7.252   0.411   9.578  0.8764  1.1923 -1.9047
 4951TIP3   OH239047   7.553   5.516   7.483  0.2800 -0.6928  0.5453
 4951TIP3    H139048   7.622   5.479   7.428  1.0681  0.7560  0.5163
 4951TIP3    H239049   7.519   5.590   7.432 -0.8063 -0.9526  0.8708
 4952TIP3   OH239050   4.539   7.017   7.150 -0.4226  0.8700 -0.0286
 4952TIP3    H139051   4.588   7.079   7.095  1.0658 -0.0413  0.2183
 4952TIP3    H239052   4.449   7.023   7.118 -0.0866  2.2847 -0.7979
 4953TIP3   OH239053   4.426   5.492   9.053  0.0347  0.0556  0.4733
 4953TIP3    H139054   4.476   5.487   9.134  1.9220  2.6257 -0.3893
 4953TIP3    H239055   4.340   5.523   9.080  0.4286  0.2534  1.5757
 4954TIP3   OH239056   2.670   0.768   7.466 -0.1242  0.2170  0.2823
 4954TIP3    H139057   2.649   0.726   7.549  0.2661 -1.9451 -0.6288
 4954TIP3    H239058   2.766   0.766   7.462 -0.1447  0.1232 -0.2773
 4955TIP3   OH239059   3.378   5.524   7.301 -0.0606  0.3588 -0.3966
 4955TIP3    H139060   3.391   5.615   7.327 -2.7501  1.1074 -1.3613
 4955TIP3    H239061   3.344   5.529   7.211  0.6481 -1.6677 -0.8287
 4956TIP3   OH239062   4.043   0.970   9.451 -0.2324 -0.0620  0.3488
 4956TIP3    H139063   4.048   0.939   9.360  0.1043  0.0536  0.3246
 4956TIP3    H239064   4.095   1.050   9.451 -0.8868  0.3681  0.4710
 4957TIP3   OH239065   5.216   3.831   7.197  0.0591 -0.3549  0.4496
 4957TIP3    H139066   5.258   3.769   7.138 -2.0032 -1.5321  0.1463
 4957TIP3    H239067   5.126   3.838   7.165 -0.6162  0.3852  2.3750
 4958TIP3   OH239068   6.188   6.709   7.107 -0.1623  0.2078 -0.0828
 4958TIP3    H139069   6.165   6.674   7.193 -0.0799  0.0180 -0.1362
 4958TIP3    H239070   6.125   6.669   7.047  1.1766 -1.4813 -0.4555
 4959TIP3   OH239071   5.683   5.413   8.227 -0.1529  0.3069  0.1212
 4959TIP3    H139072   5.630   5.465   8.167 -0.8994  0.2070  0.6777
 4959TIP3    H239073   5.715   5.340   8.174 -0.0296  0.7166 -0.3793
 4960TIP3   OH239074   6.557   1.380   7.797  0.0236  0.0542  0.3056
 4960TIP3    H139075   6.648   1.378   7.767 -0.4827  2.8975 -1.8910
 4960TIP3    H239076   6.505   1.392   7.717 -1.9297  2.1542  1.7322
 4961TIP3   OH239077   5.214   3.230   9.130 -0.3033  0.4443 -0.1853
 4961TIP3    H139078   5.300   3.257   9.099 -0.3225 -0.0263 -0.6698
 4961TIP3    H239079   5.221   3.135   9.139 -0.6367  0.4549  0.2091
 4962TIP3   OH239080   3.101   0.029   8.281 -0.0284 -0.1665  0.0220
 4962TIP3    H139081   3.118  -0.020   8.201  0.5296  1.1018 -0.6569
 4962TIP3    H239082   3.187   0.062   8.308 -0.2290 -0.4434  1.0593
 4963TIP3   OH239083   2.243   7.407   7.844  0.3436  0.2375 -0.1719
 4963TIP3    H139084   2.276   7.321   7.817 -0.0634  0.1991 -0.5592
 4963TIP3    H239085   2.155   7.389   7.877  0.7052  0.3314  0.9073
 4964TIP3   OH239086   7.087   3.068   8.626 -0.1383 -0.1150 -0.2318
 4964TIP3    H139087   7.170   3.062   8.579  0.3718  1.3358  0.4233
 4964TIP3    H239088   7.111   3.102   8.712 -1.2400 -1.2158  0.5405
 4965TIP3   OH239089   3.385   2.872   7.849 -0.6181  0.1424 -0.3735
 4965TIP3    H139090   3.399   2.790   7.802 -0.6429 -0.0908  0.0277
 4965TIP3    H239091   3.366   2.846   7.939 -0.7177  0.5833 -0.2643
 4966TIP3   OH239092   3.551   1.965   9.263  0.2497  0.3798 -0.4838
 4966TIP3    H139093   3.608   1.906   9.311  0.1987 -0.3309 -1.2703
 4966TIP3    H239094   3.597   2.049   9.264  1.0998 -0.0690 -0.7180
 4967TIP3   OH239095   6.049   7.604   9.445  0.1423 -0.0627  0.3119
 4967TIP3    H139096   6.026   7.647   9.363  1.9094  0.9188  0.2660
 4967TIP3    H239097   6.059   7.676   9.508  1.5394 -0.5134  0.6584
 4968TIP3   OH239098   5.847   4.712   7.766  0.4040 -0.1010 -0.9847
 4968TIP3    H139099   5.844   4.643   7.832  1.4896 -0.3519 -1.1893
 4968TIP3    H239100   5.883   4.670   7.688 -0.5009  0.2909 -1.6339
 4969TIP3   OH239101   3.692   1.825   8.282  0.4526 -0.6549  0.5014
 4969TIP3    H139102   3.681   1.918   8.299 -0.2483 -0.8008  0.8877
 4969TIP3    H239103   3.736   1.790   8.359  2.8342 -0.2648 -0.5942
 4970TIP3   OH239104   6.933   3.616   6.817  0.3449  0.0676 -0.4234
 4970TIP3    H139105   6.855   3.561   6.826  1.1279 -0.9639  0.5740
 4970TIP3    H239106   6.939   3.663   6.900  0.5569  0.4509 -0.6529
 4971TIP3   OH239107   0.500   7.389   9.021 -0.4218 -0.0828 -0.0911
 4971TIP3    H139108   0.530   7.419   9.107  1.0272  0.7116 -0.8351
 4971TIP3    H239109   0.522   7.296   9.020 -1.4863 -0.3758  0.7912
 4972TIP3   OH239110   1.154   1.282   9.879 -0.6421 -0.3867  0.0477
 4972TIP3    H139111   1.081   1.254   9.934 -1.5362  0.3989 -0.7041
 4972TIP3    H239112   1.122   1.360   9.834  0.6160 -0.1030 -0.4096
 4973TIP3   OH239113   6.862   7.276   9.498  0.7291  0.4473 -0.4876
 4973TIP3    H139114   6.940   7.317   9.534  0.7367  1.1544 -1.2667
 4973TIP3    H239115   6.883   7.261   9.406  0.7080 -1.2999 -0.2387
 4974TIP3   OH239116   5.681   7.146   8.888  0.2221  0.1579  0.8219
 4974TIP3    H139117   5.776   7.137   8.886  0.1046 -1.1607 -0.1717
 4974TIP3    H239118   5.656   7.157   8.796 -0.6572 -0.2674  0.9999
 4975TIP3   OH239119   1.724   5.093   8.151  0.5200 -0.1117 -0.1874
 4975TIP3    H139120   1.793   5.095   8.086  1.8177  0.8081  1.1460
 4975TIP3    H239121   1.688   5.004   8.146  0.1344  0.1225 -2.5342
 4976TIP3   OH239122   0.131   1.469   9.543  0.4002  0.0530  0.0998
 4976TIP3    H139123   0.163   1.436   9.459 -4.3800  0.6843 -2.3254
 4976TIP3    H239124   0.136   1.565   9.533 -1.4234  0.1531 -0.1318
 4977TIP3   OH239125   6.474   7.321   9.103 -0.3447 -0.2269 -0.0636
 4977TIP3    H139126   6.395   7.275   9.133  0.1331 -0.3221  1.1035
 4977TIP3    H239127   6.501   7.373   9.179 -0.8502  1.9975 -1.3227
 4978TIP3   OH239128   4.776   1.589   9.230  0.4894  0.3125 -0.8004
 4978TIP3    H139129   4.768   1.580   9.325 -3.1851  0.4383 -0.9650
 4978TIP3    H239130   4.818   1.507   9.202  1.6607  0.2848  0.8752
 4979TIP3   OH239131   6.922   5.641   8.725  0.1727 -0.2647 -0.1713
 4979TIP3    H139132   6.899   5.629   8.633  0.4217  2.4603 -0.6813
 4979TIP3    H239133   6.846   5.609   8.773 -0.3421 -0.8856 -1.3544
 4980TIP3   OH239134   2.753   0.526   8.471  0.4921  0.0882  0.3683
 4980TIP3    H139135   2.737   0.572   8.553 -0.4598 -0.9467  0.8024
 4980TIP3    H239136   2.819   0.460   8.493 -0.8498 -1.1905  0.7251
 4981TIP3   OH239137   3.859   1.557   8.526 -0.1316  0.2144 -0.1832
 4981TIP3    H139138   3.933   1.527   8.473  1.1394 -0.9436  2.1112
 4981TIP3    H239139   3.795   1.486   8.521 -0.1727  0.2683 -0.4449
 4982TIP3   OH239140   1.937   4.166   9.304  0.1911  0.1094  0.2524
 4982TIP3    H139141   1.845   4.142   9.315  0.6765 -3.6550 -2.0522
 4982TIP3    H239142   1.937   4.227   9.230 -0.4214 -2.9484 -2.5521
 4983TIP3   OH239143   2.595   1.539   8.440 -0.2431 -0.2285  0.1475
 4983TIP3    H139144   2.574   1.626   8.475 -0.6383 -0.3569  0.2308
 4983TIP3    H239145   2.510   1.503   8.414 -0.5638 -1.9227  3.1025
 4984TIP3   OH239146   0.172   6.344   8.685 -0.6151 -0.1873  0.1049
 4984TIP3    H139147   0.185   6.290   8.763 -1.6932 -1.0194 -0.2629
 4984TIP3    H239148   0.220   6.298   8.616 -0.6731 -0.1153  0.0154
 4985TIP3   OH239149   5.428   7.329   9.203 -0.1641 -0.4870 -0.6207
 4985TIP3    H139150   5.333   7.331   9.213 -0.2039  3.5068 -0.1907
 4985TIP3    H239151   5.461   7.325   9.293  0.0892 -1.1958 -0.7398
 4986TIP3   OH239152   1.984   6.486   6.688  0.2605  0.2788  0.2742
 4986TIP3    H139153   1.948   6.575   6.693  0.3033  0.2627  1.0756
 4986TIP3    H239154   1.924   6.438   6.632 -0.0330  0.6916  0.2374
 4987TIP3   OH239155   5.151   3.175   8.187 -0.1708 -0.3907  0.0953
 4987TIP3    H139156   5.063   3.213   8.178 -0.0608 -0.5078 -2.0690
 4987TIP3    H239157   5.160   3.157   8.280 -3.1002 -1.8736  0.2157
 4988TIP3   OH239158   0.791   4.305   6.722  0.6460 -0.0065 -0.1106
 4988TIP3    H139159   0.735   4.335   6.793  0.0590  0.1710 -0.6388
 4988TIP3    H239160   0.841   4.383   6.697  0.4193  0.0820 -0.2891
 4989TIP3   OH239161   7.669   1.260   8.984 -0.1203 -0.1468 -0.6602
 4989TIP3    H139162   7.574   1.260   8.975 -0.2273 -0.4709  0.3890
 4989TIP3    H239163   7.701   1.267   8.894 -1.1316 -0.0204 -1.0247
 4990TIP3   OH239164   6.602   7.163   7.652  0.0792  0.3403  0.1415
 4990TIP3    H139165   6.667   7.206   7.708  0.9281 -0.5792 -0.1030
 4990TIP3    H239166   6.529   7.142   7.710  1.6608 -2.1931  1.3709
 4991TIP3   OH239167   0.934   2.273   8.106 -0.1581 -0.0315 -0.2415
 4991TIP3    H139168   0.870   2.264   8.177  1.7455 -2.5265  1.3860
 4991TIP3    H239169   0.993   2.343   8.135 -0.2990  0.0373 -0.1218
 4992TIP3   OH239170   5.457   0.003   7.517 -0.2799  0.7691  0.3544
 4992TIP3    H139171   5.381  -0.049   7.491  0.5219 -0.2904  0.0622
 4992TIP3    H239172   5.432   0.093   7.498 -0.8090  0.2857 -1.4378
 4993TIP3   OH239173   2.436   4.986   9.070 -0.0620  0.3281  0.2996
 4993TIP3    H139174   2.474   5.028   8.993 -1.3103 -0.2292 -0.6458
 4993TIP3    H239175   2.468   5.038   9.144 -0.5674  2.2128 -0.7409
 4994TIP3   OH239176   7.228   4.890   8.107 -0.3478 -0.0127 -0.2731
 4994TIP3    H139177   7.208   4.802   8.138  0.9239 -0.0149  0.6164
 4994TIP3    H239178   7.281   4.929   8.177 -0.0236  1.0823 -1.1002
 4995TIP3   OH239179   1.423   2.924   8.860  0.0969  0.2834  0.5833
 4995TIP3    H139180   1.341   2.967   8.836  0.1419 -0.8853 -1.9661
 4995TIP3    H239181   1.469   2.989   8.913 -1.2845  2.0497 -0.2489
 4996TIP3   OH239182   3.179   7.324   7.847  0.4864 -0.2092 -0.1656
 4996TIP3    H139183   3.117   7.264   7.888  2.4421 -1.0526  1.7680
 4996TIP3    H239184   3.128   7.403   7.831 -0.9842 -0.6273  1.9437
 4997TIP3   OH239185   0.483   5.628   7.315  0.1637  0.7017  0.1502
 4997TIP3    H139186   0.483   5.578   7.233  0.9152  0.8297  0.0645
 4997TIP3    H239187   0.457   5.717   7.289 -0.8967  0.4267  0.2590
 4998TIP3   OH239188   1.121   4.676   7.660  0.1571  0.2731 -0.2922
 4998TIP3    H139189   1.209   4.660   7.692  1.0003  2.0989 -1.4777
 4998TIP3    H239190   1.077   4.723   7.731  1.1181  1.8796 -0.7017
 4999TIP3   OH239191   1.234   4.250   8.102  0.0855  0.4007 -0.2740
 4999TIP3    H139192   1.170   4.261   8.031  0.7340  0.0678 -0.9295
 4999TIP3    H239193   1.295   4.323   8.090  0.5476 -0.0110 -0.4397
 5000TIP3   OH239194   0.484   0.779   7.304  0.5536  0.4060  0.2014
 5000TIP3    H139195   0.432   0.744   7.377  0.3657 -2.2265 -1.0832
 5000TIP3    H239196   0.506   0.868   7.331 -0.3970 -0.1058  2.9846
 5001TIP3   OH239197   3.934   7.194   8.576  0.1087  0.6651 -0.1315
 5001TIP3    H139198   3.960   7.142   8.499  0.8713 -0.3670  0.7916
 5001TIP3    H239199   3.840   7.177   8.585  0.2807 -0.3006 -0.0437
 5002TIP3   OH239200   7.520   6.239   8.608 -0.0768  0.2049  0.5082
 5002TIP3    H139201   7.467   6.318   8.610 -1.1021 -0.4862  1.4569
 5002TIP3    H239202   7.598   6.264   8.558  0.5739  2.3815  2.4461
 5003TIP3   OH239203   0.525   7.323   8.406  0.1975  0.1241  0.2914
 5003TIP3    H139204   0.513   7.374   8.326  0.3558  0.2489  0.3452
 5003TIP3    H239205   0.605   7.360   8.445 -0.2065  0.4633  0.8031
 5004TIP3   OH239206   3.673   2.208   9.314  0.5572 -0.1663 -0.0693
 5004TIP3    H139207   3.753   2.229   9.362 -1.0249 -0.7557  3.0465
 5004TIP3    H239208   3.609   2.272   9.345 -0.4306 -0.1990 -1.9011
 5005TIP3   OH239209   0.168   0.895   6.570 -0.3604  0.0791  0.2728
 5005TIP3    H139210   0.185   0.988   6.555 -0.3001 -0.3919 -3.5562
 5005TIP3    H239211   0.255   0.854   6.569 -0.5371 -0.2831 -0.5325
 5006TIP3   OH239212   5.988   3.534   8.155 -0.0172 -0.0404  0.6903
 5006TIP3    H139213   5.935   3.605   8.117  0.3191 -0.9048 -1.6067
 5006TIP3    H239214   6.079   3.562   8.142  0.1287 -0.9702 -0.5724
 5007TIP3   OH239215   1.523   0.674   7.627 -0.3536 -0.0801  0.2593
 5007TIP3    H139216   1.449   0.655   7.685  0.4561  0.9121  1.6519
 5007TIP3    H239217   1.497   0.754   7.581 -0.5715 -0.3058 -0.0139
 5008TIP3   OH239218   6.692   2.853   8.293 -0.2784 -0.8156 -0.6103
 5008TIP3    H139219   6.724   2.880   8.379  0.9154 -2.3352 -0.5417
 5008TIP3    H239220   6.768   2.860   8.236  0.0502 -3.5562 -0.6488
 5009TIP3   OH239221   6.561   4.447   8.450  0.2881 -0.0770 -0.3524
 5009TIP3    H139222   6.471   4.479   8.439  0.5879  0.6405 -0.7903
 5009TIP3    H239223   6.564   4.415   8.540 -0.6314 -0.8601 -0.5714
 5010TIP3   OH239224   7.507   0.464   8.758  0.4770  0.2655  0.2080
 5010TIP3    H139225   7.482   0.372   8.757 -0.6221  0.4960  2.0175
 5010TIP3    H239226   7.570   0.472   8.686 -0.5183 -1.5469 -0.9433
 5011TIP3   OH239227   4.661   5.704   8.434 -0.0256  0.2821  0.2013
 5011TIP3    H139228   4.596   5.689   8.504  1.4220 -1.6184  1.2337
 5011TIP3    H239229   4.705   5.785   8.460 -1.6143  1.3516 -0.2742
 5012TIP3   OH239230   7.123   6.818   8.193 -0.1734  0.3039  0.4580
 5012TIP3    H139231   7.050   6.848   8.140  0.1894 -0.0656 -0.2717
 5012TIP3    H239232   7.147   6.894   8.246  0.3630  1.1511 -0.9391
 5013TIP3   OH239233   5.950   3.187   8.799 -1.0226 -0.4320  0.2513
 5013TIP3    H139234   5.921   3.274   8.826  0.9309  0.2963  0.1583
 5013TIP3    H239235   6.039   3.200   8.768 -1.5204 -2.0344 -2.1664
 5014TIP3   OH239236   2.393   0.857   8.668  0.3133  0.3711 -0.2535
 5014TIP3    H139237   2.432   0.783   8.713  0.9448  1.4941  1.1079
 5014TIP3    H239238   2.442   0.863   8.585  0.7379 -0.2723 -0.0556
 5015TIP3   OH239239   1.930   0.253   8.515  0.1527  0.0431  0.2598
 5015TIP3    H139240   1.946   0.342   8.484  0.8034  0.4066  1.5393
 5015TIP3    H239241   1.915   0.201   8.436 -0.5550  1.3407 -0.4891
 5016TIP3   OH239242   1.068   2.054   8.776 -0.1274 -0.4005 -0.2467
 5016TIP3    H139243   0.976   2.073   8.789 -0.0333  0.2793 -0.5269
 5016TIP3    H239244   1.100   2.126   8.721  0.1435 -1.5837 -1.7079
 5017TIP3   OH239245   2.228   7.367   8.834  0.1132  0.5135  0.1144
 5017TIP3    H139246   2.271   7.298   8.886 -2.0049 -0.6062  0.4731
 5017TIP3    H239247   2.163   7.405   8.893 -0.0646  1.5071 -0.6986
 5018TIP3   OH239248   7.622   1.034   9.511 -0.1083 -0.1221  0.6934
 5018TIP3    H139249   7.569   1.095   9.460 -0.6268 -1.6063 -0.6121
 5018TIP3    H239250   7.569   0.954   9.516  0.7618 -0.6553  1.9173
 5019TIP3   OH239251   7.543   7.605   8.053  0.2593 -0.5461 -0.2502
 5019TIP3    H139252   7.597   7.558   8.117  0.2576  0.1807  0.2924
 5019TIP3    H239253   7.469   7.547   8.037  0.6316 -1.0550 -0.1429
 5020TIP3   OH239254   4.324   3.731   8.947 -0.1896  0.1024  0.0187
 5020TIP3    H139255   4.304   3.809   8.998 -0.3435 -0.9770  1.6938
 5020TIP3    H239256   4.405   3.753   8.901 -0.6430  1.5048 -0.1546
 5021TIP3   OH239257   1.255   5.988   7.143 -0.1624 -0.1552  0.2383
 5021TIP3    H139258   1.292   6.067   7.183 -0.5657  0.6836 -0.9860
 5021TIP3    H239259   1.228   5.933   7.218  0.6555  0.5963  1.1087
 5022TIP3   OH239260   6.090   3.613   8.949 -0.5224 -0.1526  0.0698
 5022TIP3    H139261   6.021   3.560   8.990 -0.5142 -0.4320 -0.2737
 5022TIP3    H239262   6.133   3.553   8.888  0.9955 -0.4120  1.3362
 5023TIP3   OH239263   0.549   5.572   7.900  0.2165 -0.1053  0.6985
 5023TIP3    H139264   0.459   5.543   7.885  0.1392 -0.7425  2.1789
 5023TIP3    H239265   0.542   5.664   7.923  0.1883  0.4429 -1.3588
 5024TIP3   OH239266   5.760   1.225   8.086  0.0613 -0.1153  0.0552
 5024TIP3    H139267   5.821   1.276   8.139 -1.2524  2.4181 -0.6921
 5024TIP3    H239268   5.766   1.264   7.999 -0.5238 -1.7278 -0.7358
 5025TIP3   OH239269   7.381   6.260   7.353  0.5824 -0.7863 -0.3144
 5025TIP3    H139270   7.391   6.208   7.273  1.0416 -0.1339 -0.6964
 5025TIP3    H239271   7.321   6.331   7.329 -0.1461 -1.1974  0.2390
 5026TIP3   OH239272   6.843   5.499   7.187  0.0787  0.1021 -0.1470
 5026TIP3    H139273   6.769   5.472   7.242  1.0704  0.3803  1.3583
 5026TIP3    H239274   6.884   5.416   7.162  0.3211  0.0140  0.5240
 5027TIP3   OH239275   0.844   6.289   7.910 -0.5362 -0.1170 -0.3368
 5027TIP3    H139276   0.873   6.198   7.904 -0.7078 -0.1431 -0.8258
 5027TIP3    H239277   0.756   6.285   7.948 -0.6691 -0.1774 -0.6519
 5028TIP3   OH239278   6.804   7.414   6.960 -0.1495 -0.1833 -0.4620
 5028TIP3    H139279   6.737   7.345   6.958 -1.0182  0.6027  0.3755
 5028TIP3    H239280   6.760   7.491   6.923 -0.4408  0.9226  2.0002
 5029TIP3   OH239281   4.929   7.124   9.295  0.6386 -0.2947 -0.2108
 5029TIP3    H139282   4.916   7.093   9.205 -1.4930 -0.7242  0.2053
 5029TIP3    H239283   4.976   7.053   9.339  1.3997 -0.2173 -0.8650
 5030TIP3   OH239284   3.145   1.422   8.913  0.3460 -0.3068 -0.0458
 5030TIP3    H139285   3.056   1.388   8.918  0.4905 -1.1764 -2.3109
 5030TIP3    H239286   3.163   1.455   9.001 -2.5126  0.7211  0.2659
 5031TIP3   OH239287   2.601   2.526   9.244  0.2090 -0.0619  0.1226
 5031TIP3    H139288   2.679   2.562   9.202  1.6755 -1.5902  1.4092
 5031TIP3    H239289   2.549   2.604   9.268  1.0305  0.9551 -1.2570
 5032TIP3   OH239290   2.316   7.233   8.599  0.0936 -0.3278  0.5199
 5032TIP3    H139291   2.248   7.188   8.548  1.0569 -0.5891 -0.5703
 5032TIP3    H239292   2.268   7.302   8.646 -1.2224 -1.7482  1.3529
 5033TIP3   OH239293   7.078   7.148   7.968 -0.5580  0.0673  0.5514
 5033TIP3    H139294   7.081   7.219   8.031  1.3413  0.1110  0.4792
 5033TIP3    H239295   7.156   7.161   7.913 -0.3518 -1.8433  0.3138
 5034TIP3   OH239296   3.347   3.832   8.299 -0.2244 -0.0904  0.2328
 5034TIP3    H139297   3.394   3.904   8.339 -1.9996  0.1440  2.0570
 5034TIP3    H239298   3.368   3.838   8.206  1.0905  1.6452  0.6011
 5035TIP3   OH239299   6.826   6.621   8.860  0.7737  0.0435  0.1364
 5035TIP3    H139300   6.858   6.623   8.769 -1.4372  1.9232 -0.7046
 5035TIP3    H239301   6.855   6.704   8.897 -0.4583  0.4109  0.3116
 5036TIP3   OH239302   2.200   0.044   6.552 -0.5496 -0.4325 -0.4510
 5036TIP3    H139303   2.164   0.030   6.465 -0.5473 -0.9985 -0.3628
 5036TIP3    H239304   2.204   0.139   6.561 -0.2833 -0.3702 -1.1732
 5037TIP3   OH239305   0.916   4.509   7.977 -0.0865  0.2747 -0.6670
 5037TIP3    H139306   0.984   4.576   7.985 -1.0278  1.1952 -0.1063
 5037TIP3    H239307   0.844   4.552   7.931 -0.5366 -0.4996 -0.7166
 5038TIP3   OH239308   5.139   4.494   9.411  0.0953  0.3198  0.1186
 5038TIP3    H139309   5.179   4.581   9.403  2.6970 -0.7314  0.8269
 5038TIP3    H239310   5.197   4.436   9.363 -2.9174 -0.7976 -2.5373
 5039TIP3   OH239311   0.299   3.614   9.080 -0.0104 -0.0559  0.4756
 5039TIP3    H139312   0.301   3.526   9.118  0.3163  0.5716  1.9960
 5039TIP3    H239313   0.208   3.642   9.088  0.3394  0.6820  2.3519
 5040TIP3   OH239314   4.024   0.986   8.145  0.6213  0.7642  0.1942
 5040TIP3    H139315   3.954   0.970   8.080  0.6714 -0.6242  0.4492
 5040TIP3    H239316   4.104   0.988   8.093  0.7337 -0.9864  0.2329
 5041TIP3   OH239317   3.969   1.318   8.362 -0.1049 -0.4302 -0.4116
 5041TIP3    H139318   4.028   1.330   8.437 -1.4550  0.1697  0.5893
 5041TIP3    H239319   3.882   1.333   8.398 -0.7387  0.5956 -2.2769
 5042TIP3   OH239320   4.277   7.096   6.406  0.0745  0.0267  0.4046
 5042TIP3    H139321   4.309   7.014   6.368  0.3609  0.4096 -0.1862
 5042TIP3    H239322   4.242   7.145   6.332  0.3898  0.6661  0.6703
 5043TIP3   OH239323   2.760   7.646   8.575 -0.0811 -0.0206 -0.7157
 5043TIP3    H139324   2.802   7.578   8.523  1.8378  1.2028 -0.8661
 5043TIP3    H239325   2.763   7.725   8.520  2.6435  1.4949  1.3102
 5044TIP3   OH239326   6.681   2.460   7.190 -0.6137 -0.3031  0.4716
 5044TIP3    H139327   6.618   2.435   7.122 -0.5573 -0.4747  0.4817
 5044TIP3    H239328   6.762   2.479   7.141 -0.3272 -1.2409  0.5555
 5045TIP3   OH239329   6.736   5.137   8.216  0.0944 -0.3457  0.4272
 5045TIP3    H139330   6.760   5.215   8.165  1.7236 -0.5458  0.8412
 5045TIP3    H239331   6.769   5.064   8.165  0.0532 -0.6604  0.8474
 5046TIP3   OH239332   1.745   4.448   8.525 -0.0711 -0.8510  0.7178
 5046TIP3    H139333   1.807   4.490   8.584 -0.8289 -0.5523  1.3233
 5046TIP3    H239334   1.733   4.512   8.454 -2.0599  0.5334  2.1817
 5047TIP3   OH239335   6.135   1.514   9.438 -0.2429  0.1324 -0.0233
 5047TIP3    H139336   6.057   1.569   9.449 -1.0111 -1.4014  3.4355
 5047TIP3    H239337   6.100   1.425   9.432  1.1971 -0.4369 -0.2396
 5048TIP3   OH239338   4.933   4.709   7.992  0.7418  0.1536 -0.4009
 5048TIP3    H139339   4.953   4.716   7.899 -0.8364 -0.2229 -0.7984
 5048TIP3    H239340   4.852   4.659   7.996  0.0797  1.2398  1.0893
 5049TIP3   OH239341   4.441   0.164   9.325 -0.1578 -0.1422  0.4653
 5049TIP3    H139342   4.373   0.102   9.352 -0.4103  0.1306  0.4645
 5049TIP3    H239343   4.397   0.220   9.261  0.1333 -0.1058  0.2971
 5050TIP3   OH239344   0.723   3.299   6.490  0.1637  0.0515 -0.0876
 5050TIP3    H139345   0.815   3.300   6.465 -0.5819  0.4453 -3.2772
 5050TIP3    H239346   0.708   3.386   6.528  1.3212 -0.4977  1.7794
 5051TIP3   OH239347   1.408   2.324   7.984 -0.7146 -0.0927 -0.5224
 5051TIP3    H139348   1.492   2.304   8.025 -1.4854 -2.0132  0.2634
 5051TIP3    H239349   1.391   2.415   8.006  0.2718 -0.2317  0.9789
 5052TIP3   OH239350   5.744   0.493   9.107 -0.7599  0.0849  0.3028
 5052TIP3    H139351   5.777   0.583   9.113  1.0688 -0.5753  0.9317
 5052TIP3    H239352   5.755   0.457   9.195 -0.2273 -1.1517 -0.2431
 5053TIP3   OH239353   7.220   0.579   7.611  0.4120 -0.2389 -0.1685
 5053TIP3    H139354   7.151   0.518   7.638 -0.0494 -0.9819 -2.6836
 5053TIP3    H239355   7.298   0.550   7.657 -0.3972 -1.0337  0.7428
 5054TIP3   OH239356   1.320   0.100   7.127 -0.0642  0.6625  0.3468
 5054TIP3    H139357   1.406   0.127   7.159 -0.4159  2.2720 -0.0283
 5054TIP3    H239358   1.285   0.176   7.082 -1.4035 -0.1965 -0.1352
 5055TIP3   OH239359   1.133   0.844   7.878  0.3416 -0.1544  0.0520
 5055TIP3    H139360   1.090   0.834   7.793  3.4703  0.7951 -1.8250
 5055TIP3    H239361   1.155   0.754   7.903 -2.1273 -0.6151  0.8365
 5056TIP3   OH239362   1.752   2.123   7.991  0.0345 -0.1243  0.2292
 5056TIP3    H139363   1.690   2.082   8.052 -1.5411  2.2043  0.2848
 5056TIP3    H239364   1.755   2.215   8.017  1.3757  0.3995 -1.5813
 5057TIP3   OH239365   1.654   6.366   9.186 -0.5720  0.5258 -0.4122
 5057TIP3    H139366   1.630   6.436   9.246  0.8739 -0.7908  1.8684
 5057TIP3    H239367   1.742   6.390   9.157 -0.3406  0.0088 -0.1466
 5058TIP3   OH239368   3.415   1.131   7.209  0.0057  0.0605 -0.7002
 5058TIP3    H139369   3.468   1.126   7.129 -1.8489 -1.0173 -1.9330
 5058TIP3    H239370   3.412   1.040   7.241  0.3130  0.4041  0.3456
 5059TIP3   OH239371   0.649   0.643   7.614  0.0689 -0.0394  0.1016
 5059TIP3    H139372   0.717   0.709   7.628  1.3397 -1.6569  2.1462
 5059TIP3    H239373   0.568   0.685   7.646  0.8704  0.5379  1.4865
 5060TIP3   OH239374   5.033   1.750   9.699  0.1731 -0.2120 -0.1635
 5060TIP3    H139375   4.971   1.764   9.627  0.7240  1.9914 -0.2815
 5060TIP3    H239376   5.017   1.823   9.758  0.7843 -1.1515  1.2068
 5061TIP3   OH239377   7.460   1.441   7.252  0.0233  0.4026 -0.1775
 5061TIP3    H139378   7.452   1.350   7.279  2.1696  0.4373  0.7548
 5061TIP3    H239379   7.428   1.442   7.161 -3.6189 -0.4707  0.9459
 5062TIP3   OH239380   0.041   2.438   8.726 -0.6615 -0.3921  0.3393
 5062TIP3    H139381   0.049   2.433   8.630  0.9986 -1.0165  0.4852
 5062TIP3    H239382   0.129   2.459   8.756 -1.0448 -0.7718  1.7744
 5063TIP3   OH239383   0.937   3.745   8.929 -0.2220 -0.2413 -0.0245
 5063TIP3    H139384   0.906   3.789   9.008  2.0672  0.6391  0.4588
 5063TIP3    H239385   0.871   3.765   8.863 -0.9879  1.0177  1.0699
 5064TIP3   OH239386   2.270   3.262   8.153  0.1561 -0.1746  0.1906
 5064TIP3    H139387   2.253   3.342   8.204 -0.1624 -1.0514  1.5157
 5064TIP3    H239388   2.192   3.252   8.099  0.4020  0.6583 -0.3459
 5065TIP3   OH239389   5.738   6.424   7.119  0.4058 -0.4603  0.3370
 5065TIP3    H139390   5.752   6.347   7.173  0.2837  0.8976  2.3983
 5065TIP3    H239391   5.670   6.398   7.057  1.3530 -2.4100  0.0214
 5066TIP3   OH239392   5.688   2.035   8.950 -0.7404  0.2672 -0.4481
 5066TIP3    H139393   5.771   2.065   8.987  0.7177 -1.6953 -1.8919
 5066TIP3    H239394   5.653   2.111   8.904 -0.9112  1.7569  2.0039
 5067TIP3   OH239395   2.381   7.653   6.765 -0.4247 -0.0741 -0.1104
 5067TIP3    H139396   2.297   7.687   6.735 -1.0447 -1.3531  0.1000
 5067TIP3    H239397   2.358   7.577   6.818  0.8631 -0.3448  0.0859
 5068TIP3   OH239398   0.895   3.038   9.064 -0.1194 -0.0932 -0.2020
 5068TIP3    H139399   0.821   2.984   9.037 -2.4619  1.3624  2.6975
 5068TIP3    H239400   0.877   3.124   9.026 -0.5307  0.5282  1.3316
 5069TIP3   OH239401   6.571   7.595   8.881  0.1345 -0.0481  0.8502
 5069TIP3    H139402   6.640   7.661   8.870  0.3798 -0.1542  1.6803
 5069TIP3    H239403   6.499   7.642   8.923  0.5482 -0.4368  2.0280
 5070TIP3   OH239404   2.239   7.583   8.667  0.1557  0.9237  0.4220
 5070TIP3    H139405   2.243   7.497   8.708  0.0181 -0.5639 -2.4412
 5070TIP3    H239406   2.293   7.575   8.589 -0.1899  3.3337 -0.1445
 5071TIP3   OH239407   1.242   0.589   7.952 -0.3270  0.2407  0.3497
 5071TIP3    H139408   1.211   0.498   7.946  0.2957  0.1098 -1.6578
 5071TIP3    H239409   1.325   0.582   8.001 -0.6300 -0.1655  0.8200
 5072TIP3   OH239410   4.066   3.107   9.056 -0.4346  0.3633  0.0984
 5072TIP3    H139411   4.032   3.164   8.986  0.5583 -0.3676 -1.0289
 5072TIP3    H239412   4.144   3.153   9.088 -0.8709  0.6813  0.7117
 5073TIP3   OH239413   6.204   1.178   7.448  0.1475 -0.0263 -0.3050
 5073TIP3    H139414   6.222   1.258   7.497  0.7588  0.4141 -1.2321
 5073TIP3    H239415   6.279   1.121   7.466  0.3468  0.1152 -0.6811
 5074TIP3   OH239416   1.727   2.314   7.583 -0.3143  0.0430  0.2566
 5074TIP3    H139417   1.703   2.247   7.647  0.5018 -0.0784  0.4479
 5074TIP3    H239418   1.726   2.396   7.633  3.6621 -0.4057  1.4097
 5075TIP3   OH239419   7.256   6.762   8.621 -0.1720 -0.0689 -0.0512
 5075TIP3    H139420   7.280   6.852   8.643 -1.2334  0.2112  0.0192
 5075TIP3    H239421   7.314   6.738   8.549  1.1112  0.1524  0.8792
 5076TIP3   OH239422   4.857   0.155   8.100  0.5618 -0.3606 -0.6696
 5076TIP3    H139423   4.911   0.145   8.021  0.2931  1.2766 -1.0932
 5076TIP3    H239424   4.773   0.115   8.076  0.9286 -1.1601 -0.6844
 5077TIP3   OH239425   2.960   4.316   8.074 -1.2903 -0.6837 -0.5594
 5077TIP3    H139426   2.908   4.255   8.022 -0.6656  1.2201 -3.7077
 5077TIP3    H239427   3.021   4.261   8.123 -2.3955 -2.6690 -1.3118
 5078TIP3   OH239428   5.074   7.161   7.974 -0.5877 -0.0979 -0.0044
 5078TIP3    H139429   5.045   7.162   8.065 -1.9255  0.3172 -0.4162
 5078TIP3    H239430   5.111   7.073   7.962  2.1649  0.7007  1.6593
 5079TIP3   OH239431   6.701   1.923   7.197  0.5866 -0.1757 -0.8774
 5079TIP3    H139432   6.632   1.864   7.168  0.5911 -0.0299 -1.1837
 5079TIP3    H239433   6.666   2.011   7.182  0.7521 -0.1004 -0.8276
 5080TIP3   OH239434   6.493   3.293   8.177  0.0916 -0.1519 -0.0448
 5080TIP3    H139435   6.445   3.349   8.239 -0.5242 -0.3387 -0.3425
 5080TIP3    H239436   6.431   3.277   8.106  0.9426  0.4310 -0.9474
 5081TIP3   OH239437   0.583   0.035   8.840 -0.4649  0.2809  0.4077
 5081TIP3    H139438   0.642  -0.040   8.835 -0.4928  0.3267 -0.6927
 5081TIP3    H239439   0.641   0.110   8.854 -0.4986 -0.0249  2.5378
 5082TIP3   OH239440   3.409   3.262   8.948  0.2658 -0.4127  0.0255
 5082TIP3    H139441   3.449   3.226   8.869  2.4622 -0.7894  1.1939
 5082TIP3    H239442   3.478   3.318   8.986 -0.7742 -0.0954  1.5477
 5083TIP3   OH239443   7.014   0.918   7.629  0.4731  1.1171 -0.6332
 5083TIP3    H139444   7.070   0.943   7.702 -0.1375  1.3136 -0.2271
 5083TIP3    H239445   6.936   0.880   7.670  0.4514  0.5363 -1.1974
 5084TIP3   OH239446   7.206   1.992   8.337  0.2375 -0.2446 -0.0935
 5084TIP3    H139447   7.126   1.958   8.378  0.0711  0.3367  0.0679
 5084TIP3    H239448   7.259   2.024   8.410 -0.3681  1.4544 -0.3555
 5085TIP3   OH239449   5.961   3.731   7.835  0.1875 -0.2874 -0.6975
 5085TIP3    H139450   5.932   3.653   7.789  2.6064 -1.1659 -0.8474
 5085TIP3    H239451   5.904   3.736   7.912  0.4501 -2.6605 -0.2754
 5086TIP3   OH239452   7.341   6.626   7.719 -0.4524 -0.2483  0.1891
 5086TIP3    H139453   7.339   6.548   7.774 -1.3806  0.0871  0.6412
 5086TIP3    H239454   7.300   6.694   7.772  0.9932  0.7584  0.0888
 5087TIP3   OH239455   7.659   7.050   9.486 -0.2994 -0.2960  1.0180
 5087TIP3    H139456   7.669   6.966   9.441  0.4357  0.6106 -0.5665
 5087TIP3    H239457   7.657   7.027   9.579  1.2841 -1.9512  0.6951
 5088TIP3   OH239458   2.938   2.481   8.201 -0.0911 -0.1254  0.6653
 5088TIP3    H139459   3.017   2.445   8.162  0.0624  1.1493 -0.2555
 5088TIP3    H239460   2.957   2.483   8.295  0.1222 -1.8040  0.6852
 5089TIP3   OH239461   5.453   1.340   7.323  0.2711 -0.8957 -0.1324
 5089TIP3    H139462   5.380   1.384   7.281  0.3965 -1.1178 -0.6000
 5089TIP3    H239463   5.422   1.250   7.337 -0.0248 -0.6427  0.9163
 5090TIP3   OH239464   6.616   1.671   6.589 -0.2297 -0.3964  1.0468
 5090TIP3    H139465   6.536   1.632   6.554  0.6696 -0.0856 -1.5857
 5090TIP3    H239466   6.678   1.599   6.596  0.5038 -0.0165 -0.9550
 5091TIP3   OH239467   1.419   1.331   8.147 -0.1405  0.4841  0.2750
 5091TIP3    H139468   1.443   1.239   8.156  0.4365  0.5584 -0.4345
 5091TIP3    H239469   1.326   1.333   8.168 -0.1671 -0.2655  0.2629
 5092TIP3   OH239470   5.751   0.176   9.610 -0.5246 -0.0123 -0.8732
 5092TIP3    H139471   5.773   0.084   9.628  0.5250  0.5214  0.8299
 5092TIP3    H239472   5.701   0.173   9.529 -0.2274 -2.0583 -1.0436
 5093TIP3   OH239473   7.657   7.174   8.363  0.3620 -0.1345 -0.0918
 5093TIP3    H139474   7.722   7.128   8.416 -0.0856  0.4384  0.9840
 5093TIP3    H239475   7.708   7.219   8.295  0.7733 -2.7699 -1.6819
 5094TIP3   OH239476   7.110   7.325   7.388  0.4395  0.2122  0.8524
 5094TIP3    H139477   7.145   7.406   7.426 -0.0591  1.3155 -0.9542
 5094TIP3    H239478   7.173   7.301   7.320 -0.4850  0.2510 -0.0318
 5095TIP3   OH239479   3.322   0.353   7.963 -0.1914 -0.2260 -0.2458
 5095TIP3    H139480   3.243   0.331   7.913  0.8489 -2.1810 -1.1205
 5095TIP3    H239481   3.303   0.325   8.052  0.2887 -2.9484 -0.9057
 5096TIP3   OH239482   1.951   7.218   9.155 -0.3268 -0.3901  0.0958
 5096TIP3    H139483   1.972   7.297   9.204  0.7417 -1.5446  1.5928
 5096TIP3    H239484   1.945   7.247   9.064  0.0202  1.4055  0.6149
 5097TIP3   OH239485   5.875   7.366   9.287 -0.5321  0.1766 -0.0494
 5097TIP3    H139486   5.946   7.339   9.345  0.4046  0.2014 -1.1678
 5097TIP3    H239487   5.913   7.367   9.200 -1.5382  1.5439 -0.5142
 5098TIP3   OH239488   7.339   6.618   6.886 -0.2906 -0.2268 -0.0801
 5098TIP3    H139489   7.378   6.628   6.799 -0.3602  1.1570  0.0188
 5098TIP3    H239490   7.276   6.690   6.892 -0.3989 -0.3995  1.0534
 5099TIP3   OH239491   2.635   4.915   8.687 -0.6025 -0.0151 -0.6255
 5099TIP3    H139492   2.581   4.984   8.724 -0.7781 -2.0644  3.5504
 5099TIP3    H239493   2.724   4.935   8.719 -0.3743 -0.8047 -0.7480
 5100TIP3   OH239494   4.708   1.962   8.709 -0.5241 -0.4298 -0.3236
 5100TIP3    H139495   4.664   1.882   8.739 -0.0714 -0.5233  0.1139
 5100TIP3    H239496   4.648   2.033   8.734  0.1090 -0.4544  1.4015
 5101TIP3   OH239497   6.469   4.838   7.449 -0.0826 -0.5301 -0.3114
 5101TIP3    H139498   6.443   4.887   7.527 -1.3253 -0.9465 -0.4308
 5101TIP3    H239499   6.496   4.905   7.386 -3.5740  0.2752 -1.1693
 5102TIP3   OH239500   5.486   7.425   7.787  0.6466 -0.0354 -0.1530
 5102TIP3    H139501   5.485   7.339   7.745  1.2609 -0.3267  0.4222
 5102TIP3    H239502   5.427   7.478   7.733  1.8485 -0.2311 -1.7174
 5103TIP3   OH239503   1.825   3.998   9.507 -0.2293 -0.0865 -0.0788
 5103TIP3    H139504   1.851   3.921   9.455 -0.1515 -0.7394  0.9040
 5103TIP3    H239505   1.908   4.036   9.536 -0.2737  0.2780 -0.4138
 5104TIP3   OH239506   5.859   6.782   6.942 -0.4973  0.0775 -0.1992
 5104TIP3    H139507   5.897   6.699   6.970 -1.3518 -0.7150 -1.2937
 5104TIP3    H239508   5.933   6.842   6.935  0.6856 -1.5290 -2.7246
 5105TIP3   OH239509   7.280   7.232   7.802 -0.1478 -0.0278  0.0802
 5105TIP3    H139510   7.311   7.189   7.723 -1.0894 -0.6257  0.0184
 5105TIP3    H239511   7.359   7.266   7.844  0.5584 -1.2305 -0.2252
 5106TIP3   OH239512   1.836   6.841   7.161  0.2024 -0.0295 -0.7228
 5106TIP3    H139513   1.810   6.923   7.119  0.9234  0.3187 -0.5048
 5106TIP3    H239514   1.758   6.814   7.210  0.0899  0.7612 -0.4455
 5107TIP3   OH239515   0.881   6.012   7.892 -0.2444 -0.5713  0.0076
 5107TIP3    H139516   0.902   5.932   7.942 -1.0951  0.3117  1.8992
 5107TIP3    H239517   0.841   5.980   7.812 -0.0481 -2.0685  0.4648
 5108TIP3   OH239518   3.645   2.853   7.616 -0.0150  0.4134 -0.7506
 5108TIP3    H139519   3.691   2.920   7.666 -1.2799 -0.2402  1.4432
 5108TIP3    H239520   3.571   2.899   7.577 -1.8969  0.1528  2.1733
 5109TIP3   OH239521   6.639   4.058   7.239  0.1375  0.2781 -0.1208
 5109TIP3    H139522   6.731   4.054   7.213  0.2770 -1.0053  0.4979
 5109TIP3    H239523   6.633   4.003   7.317 -1.5439 -1.4394 -1.3492
 5110TIP3   OH239524   5.524   3.607   8.519 -0.1068  0.2752 -0.1113
 5110TIP3    H139525   5.599   3.666   8.523 -0.7878  1.2783 -1.1070
 5110TIP3    H239526   5.448   3.666   8.519 -0.7815 -0.4530 -2.6894
 5111TIP3   OH239527   3.858   3.643   7.620 -0.3655  0.0917  0.2780
 5111TIP3    H139528   3.786   3.599   7.663  0.2062 -1.7833 -0.5910
 5111TIP3    H239529   3.836   3.639   7.527  0.3368  0.5041  0.0869
 5112TIP3   OH239530   6.907   0.839   8.541  0.4277  0.8954 -0.0516
 5112TIP3    H139531   6.818   0.853   8.508 -0.2301  0.0645  1.3107
 5112TIP3    H239532   6.899   0.846   8.636  1.9864  1.6398  0.0503
 5113TIP3   OH239533   4.770   2.955   9.298  0.0905 -0.0400 -0.2526
 5113TIP3    H139534   4.826   3.022   9.339  0.7464 -0.2361 -0.8002
 5113TIP3    H239535   4.822   2.923   9.224 -0.6701 -0.3865 -0.6465
 5114TIP3   OH239536   1.314   2.495   8.646  0.4196 -0.4131 -0.2529
 5114TIP3    H139537   1.248   2.563   8.636  0.0491 -0.6019  0.8191
 5114TIP3    H239538   1.375   2.529   8.712  0.8131 -0.6833 -0.4684
 5115TIP3   OH239539   2.023   3.300   7.050  0.1221 -0.1768  0.1764
 5115TIP3    H139540   1.945   3.355   7.050  0.2723  0.0694  1.1991
 5115TIP3    H239541   2.010   3.238   6.979 -0.3795  0.7241 -0.5241
 5116TIP3   OH239542   4.871   7.180   8.706 -0.2290  0.2156 -0.2394
 5116TIP3    H139543   4.848   7.087   8.697  1.9076 -0.3005 -1.2715
 5116TIP3    H239544   4.899   7.205   8.618 -0.0056  1.6108  0.2134
 5117TIP3   OH239545   0.956   0.678   8.500 -0.0867 -0.2186  0.0819
 5117TIP3    H139546   1.023   0.718   8.555  2.0620 -1.0489 -1.7866
 5117TIP3    H239547   0.899   0.750   8.475  1.8931  1.1626 -0.6999
 5118TIP3   OH239548   2.293   2.508   8.248  0.0827  0.2474 -0.4588
 5118TIP3    H139549   2.345   2.428   8.242 -0.9864 -0.4255 -0.9890
 5118TIP3    H239550   2.358   2.577   8.258  1.0336 -0.6741  0.0040
 5119TIP3   OH239551   0.228   4.392   8.089 -0.2133 -0.3245 -0.0500
 5119TIP3    H139552   0.263   4.303   8.099  3.6035  1.0729  1.2500
 5119TIP3    H239553   0.171   4.404   8.165  0.5280 -1.2203  0.6825
 5120TIP3   OH239554   6.315   5.126   9.455  0.4296 -0.4334  0.0875
 5120TIP3    H139555   6.300   5.094   9.544  0.1834 -1.1275 -0.1973
 5120TIP3    H239556   6.239   5.182   9.437  1.0461  0.6480  0.7242
 5121TIP3   OH239557   4.543   4.187   7.872  0.0935 -0.1958  0.2826
 5121TIP3    H139558   4.615   4.161   7.815 -1.1110 -0.3874 -1.2251
 5121TIP3    H239559   4.476   4.120   7.858 -1.3007  1.2297 -0.1943
 5122TIP3   OH239560   6.184   6.383   8.716  0.3233 -0.4907 -0.0013
 5122TIP3    H139561   6.231   6.406   8.796  0.0521 -1.7647  0.5482
 5122TIP3    H239562   6.092   6.377   8.743 -0.1690  1.6499 -0.9875
 5123TIP3   OH239563   2.093   5.498   7.593 -0.0733 -0.2449  0.8220
 5123TIP3    H139564   2.101   5.531   7.504 -2.4147  0.1892  0.7117
 5123TIP3    H239565   2.175   5.450   7.608  2.2194  2.9827 -0.0738
 5124TIP3   OH239566   3.839   2.513   9.456  0.0222 -0.0430 -0.1116
 5124TIP3    H139567   3.862   2.422   9.474 -0.3324 -0.3689 -1.2208
 5124TIP3    H239568   3.743   2.514   9.458  0.0346  0.5816  1.1165
 5125TIP3   OH239569   2.503   3.601   7.272  0.4095  0.0544  0.4522
 5125TIP3    H139570   2.452   3.544   7.329 -0.4719  0.3314 -0.0389
 5125TIP3    H239571   2.441   3.627   7.204  1.1262  0.6635  0.0285
 5126TIP3   OH239572   3.595   5.026   9.317  0.5165  0.4806 -0.0366
 5126TIP3    H139573   3.665   5.045   9.380  1.4759 -2.2178 -0.1131
 5126TIP3    H239574   3.642   4.992   9.240 -0.8014  0.0922 -0.6915
 5127TIP3   OH239575   0.709   2.962   9.600 -0.0984 -0.3196  0.3619
 5127TIP3    H139576   0.681   2.871   9.594 -0.7330 -0.1070  0.0655
 5127TIP3    H239577   0.743   2.971   9.689 -2.8154 -0.0765  1.4639
 5128TIP3   OH239578   6.829   7.624   8.091  0.2330 -0.4873  0.3779
 5128TIP3    H139579   6.760   7.667   8.040 -0.4387 -1.4037  0.4959
 5128TIP3    H239580   6.818   7.659   8.180  1.8199  1.6115 -0.1725
 5129TIP3   OH239581   3.330   0.081   8.462  0.4772 -0.6463  0.3635
 5129TIP3    H139582   3.389   0.008   8.483 -1.2211 -2.2869 -0.2555
 5129TIP3    H239583   3.371   0.157   8.501  2.1860 -1.9860  1.3213
 5130TIP3   OH239584   1.198   3.297   7.172  0.2377 -0.4498  0.0134
 5130TIP3    H139585   1.189   3.221   7.230 -0.2978 -1.1116 -0.9315
 5130TIP3    H239586   1.148   3.274   7.094  0.0205  0.9066 -0.2604
 5131TIP3   OH239587   0.492   2.412   6.987 -0.1501  0.4181  0.1803
 5131TIP3    H139588   0.456   2.351   6.923 -0.9619  1.8177 -0.7417
 5131TIP3    H239589   0.559   2.460   6.940 -1.4836  2.2038  0.0066
 5132TIP3   OH239590   1.938   2.703   9.149 -0.2024  0.1885  0.7072
 5132TIP3    H139591   1.866   2.763   9.131  0.0386  1.1358  2.6478
 5132TIP3    H239592   1.936   2.641   9.076 -0.9768  2.0507 -0.9472
 5133TIP3   OH239593   4.943   4.422   7.652  0.4139  0.2057 -0.0932
 5133TIP3    H139594   4.900   4.430   7.566  1.9530  0.0098 -0.9243
 5133TIP3    H239595   4.888   4.360   7.700 -0.8912  0.8762 -0.6447
 5134TIP3   OH239596   2.451   4.806   6.937  0.2757 -0.0219  0.0812
 5134TIP3    H139597   2.506   4.884   6.935  0.1480  0.0630 -0.1239
 5134TIP3    H239598   2.512   4.733   6.924  0.2669  0.1106 -0.7961
 5135TIP3   OH239599   2.265   2.339   7.180 -0.7709 -0.1218  0.5123
 5135TIP3    H139600   2.295   2.386   7.102 -0.7318 -1.4289 -0.2890
 5135TIP3    H239601   2.169   2.345   7.175 -0.7702 -0.2412  0.3337
 5136TIP3   OH239602   0.032   0.668   9.431  0.3463  0.3430 -0.0996
 5136TIP3    H139603   0.085   0.667   9.351  0.7659 -1.4538  0.1483
 5136TIP3    H239604   0.085   0.717   9.493  0.9694 -0.0006 -0.3451
 5137TIP3   OH239605   2.981   5.504   7.536  0.3756 -0.2544 -0.1197
 5137TIP3    H139606   2.970   5.498   7.441 -2.2533  0.2643  0.0740
 5137TIP3    H239607   3.070   5.538   7.548  0.3312  0.8557 -2.4422
 5138TIP3   OH239608   4.574   0.656   8.929 -0.0683  0.0676 -0.4046
 5138TIP3    H139609   4.623   0.675   8.849 -1.7578 -1.3525 -1.8560
 5138TIP3    H239610   4.603   0.568   8.954  0.9509  0.7614  0.9930
 5139TIP3   OH239611   2.009   5.864   8.682 -0.0207 -0.0705 -0.1764
 5139TIP3    H139612   2.041   5.785   8.726  0.6918  0.6434  0.6140
 5139TIP3    H239613   1.916   5.846   8.665  0.5578 -1.8925 -1.8444
 5140TIP3   OH239614   0.067   3.399   8.782  0.4064 -0.0487  0.0394
 5140TIP3    H139615   0.054   3.315   8.740 -0.1200 -0.4856  1.0431
 5140TIP3    H239616   0.143   3.387   8.840  1.0658  0.5157 -0.6825
 5141TIP3   OH239617   4.514   0.671   7.008  0.1969 -0.3717  0.0419
 5141TIP3    H139618   4.534   0.608   6.939  1.3243  0.9654 -0.9053
 5141TIP3    H239619   4.596   0.683   7.054 -0.2889 -0.4407  0.9458
 5142TIP3   OH239620   3.145   1.905   7.802  0.4329  0.0672  0.1973
 5142TIP3    H139621   3.071   1.961   7.823  0.4730  0.4735 -0.6839
 5142TIP3    H239622   3.131   1.881   7.711  1.2850  0.0059  0.0754
 5143TIP3   OH239623   7.450   5.312   7.652  0.1664 -0.1018 -0.2569
 5143TIP3    H139624   7.534   5.266   7.652 -0.1302 -0.7151 -1.9143
 5143TIP3    H239625   7.461   5.382   7.587  0.2598  1.5671  1.4670
 5144TIP3   OH239626   6.236   0.642   8.400 -0.6805  0.3796  0.7632
 5144TIP3    H139627   6.166   0.636   8.466  0.2075  2.0562  1.9216
 5144TIP3    H239628   6.316   0.655   8.451  0.5584 -1.6253 -0.5217
 5145TIP3   OH239629   5.177   3.608   8.249  0.3424  0.1041 -0.6380
 5145TIP3    H139630   5.136   3.554   8.317  0.2461  0.4184 -0.4471
 5145TIP3    H239631   5.115   3.607   8.177  1.1095 -1.4938 -1.3295
 5146TIP3   OH239632   1.689   6.511   7.117  0.2672  0.2286 -0.0013
 5146TIP3    H139633   1.667   6.420   7.099  0.4337  0.3759 -0.9633
 5146TIP3    H239634   1.605   6.557   7.116  0.3302  0.3362 -1.0191
 5147TIP3   OH239635   1.494   7.211   7.845  0.2103  0.1864 -0.3001
 5147TIP3    H139636   1.585   7.239   7.849 -0.0953  1.1297  0.5087
 5147TIP3    H239637   1.478   7.195   7.752  1.7768 -2.0718 -0.2494
 5148TIP3   OH239638   0.208   0.961   8.181  0.0929 -0.2343  0.1922
 5148TIP3    H139639   0.188   0.998   8.267 -0.6042 -1.2472  0.4961
 5148TIP3    H239640   0.125   0.922   8.152  0.5359 -0.6461 -0.5631
 5149TIP3   OH239641   6.569   7.406   7.928  0.1252 -0.2134  0.2206
 5149TIP3    H139642   6.575   7.312   7.914  0.8336 -0.1190 -0.1658
 5149TIP3    H239643   6.589   7.419   8.020  0.3025 -0.4175  0.2104
 5150TIP3   OH239644   3.976   6.489   6.821  0.5032 -0.0576 -0.2455
 5150TIP3    H139645   3.884   6.512   6.825  0.0825 -0.5129 -3.9494
 5150TIP3    H239646   3.978   6.394   6.827  0.4527 -0.2179 -2.2141
 5151TIP3   OH239647   6.529   6.086   7.116 -0.1993 -0.0017  0.5647
 5151TIP3    H139648   6.518   6.051   7.027 -1.4995  0.3217  0.5720
 5151TIP3    H239649   6.508   6.179   7.107  0.0170  0.1045  1.1490
 5152TIP3   OH239650   7.527   7.076   9.811  0.8041  0.0809 -0.0095
 5152TIP3    H139651   7.564   7.156   9.776 -0.3143  1.1238  1.0699
 5152TIP3    H239652   7.552   7.076   9.904 -0.5956  0.0870  0.4019
 5153TIP3   OH239653   1.429   7.495   8.889  0.9540  0.9288 -0.4400
 5153TIP3    H139654   1.450   7.418   8.942 -0.3168  1.0508  0.2566
 5153TIP3    H239655   1.398   7.560   8.952  0.2551  1.3774 -1.2315
 5154TIP3   OH239656   2.943   6.804   8.406 -0.1643  0.3193 -0.3090
 5154TIP3    H139657   3.033   6.829   8.384 -0.1772  0.3136 -0.3665
 5154TIP3    H239658   2.888   6.860   8.350 -0.1961  0.2954 -0.3016
 5155TIP3   OH239659   0.790   7.089   9.560 -0.3693  0.0441 -0.0410
 5155TIP3    H139660   0.807   7.125   9.647  0.9243  0.7357 -0.5527
 5155TIP3    H239661   0.810   6.996   9.569  0.9489  0.3252  0.1215
 5156TIP3   OH239662   6.047   1.477   9.179  0.5934  0.0139 -0.3355
 5156TIP3    H139663   6.037   1.389   9.141  1.4056 -0.4951  0.5889
 5156TIP3    H239664   6.120   1.468   9.241  0.8290  1.4040 -0.3974
 5157TIP3   OH239665   3.436   4.910   7.482  0.0567  0.8281 -0.0590
 5157TIP3    H139666   3.493   4.834   7.490 -1.2676 -0.0231  2.3034
 5157TIP3    H239667   3.348   4.874   7.475 -0.6641  2.1140  1.7479
 5158TIP3   OH239668   6.673   0.536   8.804  0.0576  0.3315 -0.1511
 5158TIP3    H139669   6.595   0.548   8.858 -0.8814  0.9436 -1.5891
 5158TIP3    H239670   6.742   0.585   8.850 -0.8316  1.2247  0.2598
 5159TIP3   OH239671   5.909   6.104   7.922  0.3307 -0.3276  0.1571
 5159TIP3    H139672   5.874   6.124   8.008  0.8997  1.6824 -0.0288
 5159TIP3    H239673   5.864   6.164   7.863  1.4341 -0.2399 -0.6191
 5160TIP3   OH239674   5.402   6.523   7.078 -0.0584 -0.1350 -0.2026
 5160TIP3    H139675   5.396   6.582   7.003 -0.0252  0.4216  0.2322
 5160TIP3    H239676   5.486   6.478   7.067 -0.2273 -0.3365 -0.6992
 5161TIP3   OH239677   0.957   0.492   8.294  0.2013  0.4470 -1.0508
 5161TIP3    H139678   1.044   0.510   8.258  1.4907 -1.6473  0.8384
 5161TIP3    H239679   0.953   0.544   8.374 -0.0214  0.0033 -0.7727
 5162TIP3   OH239680   5.156   2.797   7.907 -0.0088 -0.5161  0.0828
 5162TIP3    H139681   5.153   2.834   7.819 -1.7083 -0.6535  0.0633
 5162TIP3    H239682   5.203   2.864   7.959  1.5082 -0.6901 -0.9969
 5163TIP3   OH239683   1.142   4.798   8.212  0.6835 -0.5167 -0.2411
 5163TIP3    H139684   1.129   4.771   8.122  0.0262  1.0837 -0.6626
 5163TIP3    H239685   1.146   4.893   8.208 -0.3213 -0.3509  1.5158
 5164TIP3   OH239686   7.149   1.591   7.321  0.4038  0.4661 -0.4794
 5164TIP3    H139687   7.129   1.513   7.373 -0.2386  1.2463  0.4811
 5164TIP3    H239688   7.119   1.569   7.233  0.4695 -0.4685 -0.2783
 5165TIP3   OH239689   6.156   7.262   7.820 -0.2840  0.2271  0.1751
 5165TIP3    H139690   6.149   7.304   7.906  1.6197 -0.4691  0.7343
 5165TIP3    H239691   6.065   7.248   7.793 -0.9673  2.6718  0.9287
 5166TIP3   OH239692   3.164   6.425   7.643  0.0172  0.1872 -0.4879
 5166TIP3    H139693   3.242   6.406   7.590  0.1914  0.9229 -0.5024
 5166TIP3    H239694   3.114   6.343   7.642  0.5457 -0.1367 -0.8961
 5167TIP3   OH239695   0.682   7.082   7.624 -0.0952 -0.2150 -0.0393
 5167TIP3    H139696   0.715   6.994   7.605  0.8138  0.3861 -1.4741
 5167TIP3    H239697   0.617   7.069   7.692  0.0114 -1.9984 -0.2180
 5168TIP3   OH239698   4.929   6.248   9.065 -0.5362 -0.3867  0.5519
 5168TIP3    H139699   4.915   6.159   9.033  0.1977 -0.2483 -0.2028
 5168TIP3    H239700   4.841   6.284   9.074 -0.8098 -0.8414 -0.1639
 5169TIP3   OH239701   7.132   5.459   8.753  0.2507 -0.4866 -0.2014
 5169TIP3    H139702   7.056   5.516   8.738  0.3625  0.5752  2.7133
 5169TIP3    H239703   7.104   5.374   8.718 -0.5416  0.8366 -3.1685
 5170TIP3   OH239704   0.958   6.816   7.960  0.2561  0.5964 -0.0215
 5170TIP3    H139705   0.970   6.786   7.870  0.0968  0.0131  0.1469
 5170TIP3    H239706   0.996   6.904   7.962  1.0842  0.2577 -0.4310
 5171TIP3   OH239707   7.443   2.935   6.992  0.0953  0.1347 -0.1687
 5171TIP3    H139708   7.349   2.949   6.986  0.0719 -0.1444 -0.4431
 5171TIP3    H239709   7.462   2.941   7.086 -0.1997  0.1522 -0.1099
 5172TIP3   OH239710   7.628   6.184   9.447 -0.5940  0.2262 -0.3609
 5172TIP3    H139711   7.547   6.139   9.423  0.2667 -0.5669 -1.9268
 5172TIP3    H239712   7.614   6.275   9.422 -0.4041 -0.2330 -2.2766
 5173TIP3   OH239713   4.422   4.512   7.570 -0.0549  0.6681 -0.0546
 5173TIP3    H139714   4.511   4.488   7.544 -0.1535 -2.9490  2.2131
 5173TIP3    H239715   4.370   4.499   7.491  0.9183 -0.9259 -0.4917
 5174TIP3   OH239716   2.712   0.634   8.052  0.8926 -0.7026 -0.5865
 5174TIP3    H139717   2.756   0.585   7.983 -2.5047 -0.1233 -3.4819
 5174TIP3    H239718   2.630   0.587   8.066 -0.5086  1.6395 -0.3049
 5175TIP3   OH239719   3.175   7.507   8.985  0.5739  0.0234  0.2889
 5175TIP3    H139720   3.149   7.500   9.077 -1.1908 -0.8605 -0.2301
 5175TIP3    H239721   3.251   7.565   8.986  0.8902 -0.3452  2.3472
 5176TIP3   OH239722   0.609   3.083   9.351  0.1054 -0.7552 -0.1590
 5176TIP3    H139723   0.619   3.050   9.441 -1.4495  1.7024  1.0075
 5176TIP3    H239724   0.551   3.020   9.309 -0.8662 -0.8404  1.2413
 5177TIP3   OH239725   4.542   3.407   9.042 -0.7759  0.1450  0.2019
 5177TIP3    H139726   4.530   3.489   9.090  1.1289  0.3153  0.4816
 5177TIP3    H239727   4.580   3.435   8.958  1.4988 -0.4804  0.9442
 5178TIP3   OH239728   6.810   7.527   8.507 -0.3861 -0.0948 -0.7064
 5178TIP3    H139729   6.815   7.590   8.435 -0.3229 -0.8551 -1.3788
 5178TIP3    H239730   6.900   7.515   8.535 -0.5183  1.1825  0.3967
 5179TIP3   OH239731   6.839   5.362   7.491  0.3540 -0.3551 -0.3921
 5179TIP3    H139732   6.804   5.443   7.528  1.3665 -0.1817  0.2161
 5179TIP3    H239733   6.804   5.292   7.547 -0.5006 -0.3641 -0.9035
 5180TIP3   OH239734   6.290   1.626   7.134 -0.7977  1.0821 -0.8768
 5180TIP3    H139735   6.275   1.642   7.041  0.9488  0.2269 -1.3626
 5180TIP3    H239736   6.333   1.705   7.166  0.4765  0.6052 -1.3302
 5181TIP3   OH239737   7.593   1.170   7.959 -0.1230 -0.1876 -0.6250
 5181TIP3    H139738   7.600   1.077   7.979  1.1107  0.0829  0.3494
 5181TIP3    H239739   7.516   1.199   8.008 -1.1340 -0.8850 -1.7717
 5182TIP3   OH239740   3.199   3.967   9.241  0.0961  0.1823 -0.2874
 5182TIP3    H139741   3.256   3.897   9.270 -0.0206  0.1765 -0.0732
 5182TIP3    H239742   3.259   4.035   9.209  0.2334  0.2900  0.1925
 5183TIP3   OH239743   1.735   2.157   6.454 -0.7811 -0.0544 -0.0708
 5183TIP3    H139744   1.776   2.103   6.521  1.2944 -0.6139 -1.6641
 5183TIP3    H239745   1.733   2.102   6.376 -2.3420  0.8487 -0.7251
 5184TIP3   OH239746   1.342   4.920   9.151 -0.0218 -0.1859  0.1576
 5184TIP3    H139747   1.382   4.930   9.237  0.9308  0.6593 -0.3538
 5184TIP3    H239748   1.384   4.842   9.114  1.5291  0.8980 -0.5214
 5185TIP3   OH239749   0.411   2.380   7.252 -0.0297  0.3333  0.3376
 5185TIP3    H139750   0.392   2.473   7.268 -0.0789  0.3840  0.0020
 5185TIP3    H239751   0.427   2.375   7.157 -0.1657 -0.0255  0.3324
 5186TIP3   OH239752   1.783   4.160   8.883  0.4506  0.1431 -0.3253
 5186TIP3    H139753   1.703   4.207   8.859 -0.0133 -0.6253 -0.2979
 5186TIP3    H239754   1.841   4.228   8.919 -0.3709  0.6279  0.1086
 5187TIP3   OH239755   3.475   7.433   8.361  0.0345  0.2388 -0.3611
 5187TIP3    H139756   3.522   7.352   8.342  0.2527  0.2350  0.1863
 5187TIP3    H239757   3.424   7.413   8.439 -1.9013 -0.1772 -1.6531
 5188TIP3   OH239758   7.136   1.860   7.361 -0.5007 -0.1323  0.3127
 5188TIP3    H139759   7.044   1.868   7.337 -0.8221 -1.1789  1.1478
 5188TIP3    H239760   7.156   1.767   7.352  0.6627  0.1600 -0.4563
 5189TIP3   OH239761   1.805   2.202   8.766  0.0570 -0.1490 -0.3269
 5189TIP3    H139762   1.874   2.170   8.708  0.7055  0.8933 -0.1596
 5189TIP3    H239763   1.750   2.256   8.710  0.0044 -0.0990 -0.2270
 5190TIP3   OH239764   6.748   5.387   8.069  0.3139  0.2146  0.0141
 5190TIP3    H139765   6.832   5.430   8.083  0.2260  0.5960 -0.5907
 5190TIP3    H239766   6.720   5.416   7.982 -0.3903  0.0028  0.1605
 5191TIP3   OH239767   7.335   4.189   8.485  0.5916  0.0601 -0.3010
 5191TIP3    H139768   7.288   4.174   8.567  0.7210  1.8434  0.1443
 5191TIP3    H239769   7.355   4.101   8.452 -2.5287 -0.7953 -0.2405
 5192TIP3   OH239770   1.543   6.705   8.804 -0.4619  0.4167 -1.0161
 5192TIP3    H139771   1.524   6.789   8.763  0.8011  1.1426 -0.1764
 5192TIP3    H239772   1.602   6.662   8.742 -0.1139  0.6879 -0.8778
 5193TIP3   OH239773   1.970   1.558   7.973  0.2400  0.2968  0.4522
 5193TIP3    H139774   2.035   1.540   7.905  2.1108  1.1882  1.8953
 5193TIP3    H239775   1.946   1.650   7.959  1.2991  0.7538  1.4658
 5194TIP3   OH239776   7.513   6.737   7.489  0.7529 -0.2508  0.0487
 5194TIP3    H139777   7.478   6.741   7.577  2.5437  3.0407  0.7717
 5194TIP3    H239778   7.608   6.744   7.500  1.1375 -1.0944 -2.1268
 5195TIP3   OH239779   4.182   3.745   7.443  0.1184 -0.2997  0.2170
 5195TIP3    H139780   4.219   3.815   7.498  0.3441  0.3949 -0.8028
 5195TIP3    H239781   4.185   3.779   7.354 -0.2826 -1.3990 -0.2422
 5196TIP3   OH239782   2.488   3.537   9.540  0.5330  0.1893 -0.2028
 5196TIP3    H139783   2.478   3.577   9.454 -2.0350 -0.4819 -0.3048
 5196TIP3    H239784   2.583   3.527   9.551  0.9740  1.0742 -2.5570
 5197TIP3   OH239785   1.061   3.763   8.673 -0.4501 -0.6073  0.2094
 5197TIP3    H139786   1.010   3.769   8.754  0.1647 -1.9804  0.7238
 5197TIP3    H239787   1.135   3.823   8.686  0.6243 -2.1279  1.4327
 5198TIP3   OH239788   1.785   7.561   7.751  0.4814 -0.2186  0.2323
 5198TIP3    H139789   1.741   7.538   7.833 -1.7656 -1.2851 -1.1604
 5198TIP3    H239790   1.800   7.655   7.756 -0.5731 -0.0989  1.4264
 5199TIP3   OH239791   1.620   3.138   7.901  0.6941 -0.1879  0.0110
 5199TIP3    H139792   1.658   3.061   7.858  0.3180 -0.6012  0.4085
 5199TIP3    H239793   1.696   3.191   7.927  1.0326 -1.1262  1.0094
 5200TIP3   OH239794   1.742   6.894   9.672 -0.2289 -0.1988 -0.3209
 5200TIP3    H139795   1.649   6.904   9.691 -0.1726 -0.0349 -0.1201
 5200TIP3    H239796   1.762   6.964   9.610  0.0806  0.7361  0.7877
 5201TIP3   OH239797   3.164   0.011   8.685  0.1592 -0.4924 -0.5038
 5201TIP3    H139798   3.205   0.048   8.606 -0.5542 -0.0799 -0.6851
 5201TIP3    H239799   3.137   0.087   8.736 -1.4889 -0.7319 -0.9608
 5202TIP3   OH239800   0.824   1.760   7.829  0.4833 -0.7928  0.1222
 5202TIP3    H139801   0.830   1.855   7.823 -2.8565 -0.4597 -0.0961
 5202TIP3    H239802   0.759   1.736   7.762 -0.9383 -2.8211  2.0800
 5203TIP3   OH239803   2.766   1.685   7.119  0.2456 -0.2195 -0.0314
 5203TIP3    H139804   2.682   1.704   7.078  0.3610  0.0565 -0.1406
 5203TIP3    H239805   2.823   1.757   7.093  0.4012 -0.1874  0.3793
 5204TIP3   OH239806   2.061   4.376   9.616 -0.1470 -0.4250 -0.6312
 5204TIP3    H139807   1.965   4.369   9.609 -0.2592  0.0963  0.3380
 5204TIP3    H239808   2.092   4.286   9.609 -0.6598 -0.5473 -1.5257
 5205TIP3   OH239809   5.220   7.532   7.469  0.0970 -0.5405  0.3268
 5205TIP3    H139810   5.184   7.590   7.402  0.6640  1.1664  1.4327
 5205TIP3    H239811   5.235   7.449   7.424  0.1229  0.4364 -1.5520
 5206TIP3   OH239812   3.671   3.902   7.627  0.1066 -0.5403 -0.1885
 5206TIP3    H139813   3.594   3.947   7.662 -0.3184  1.1252 -2.9730
 5206TIP3    H239814   3.644   3.810   7.619 -0.1913 -0.7603  2.4000
 5207TIP3   OH239815   3.574   3.543   8.413  0.1999 -0.2870 -0.1523
 5207TIP3    H139816   3.659   3.555   8.456 -0.5099  0.8245  1.0043
 5207TIP3    H239817   3.520   3.615   8.446 -1.6887 -1.8528  0.3701
 5208TIP3   OH239818   7.389   5.979   7.544 -0.4970 -0.5633 -0.1108
 5208TIP3    H139819   7.429   5.987   7.631 -1.5142  0.4462  0.2790
 5208TIP3    H239820   7.432   5.902   7.506 -0.1664 -1.1482  1.3523
 5209TIP3   OH239821   4.448   5.425   8.484  0.0167 -0.1493 -0.6092
 5209TIP3    H139822   4.498   5.507   8.484 -0.3730  0.0970 -0.0715
 5209TIP3    H239823   4.387   5.435   8.557  0.7250 -1.3822  0.1740
 5210TIP3   OH239824   6.246   1.708   6.884  0.1090  0.6548 -0.2991
 5210TIP3    H139825   6.302   1.719   6.807  0.0318  1.1118 -0.2897
 5210TIP3    H239826   6.172   1.767   6.869 -0.4263 -0.0080 -0.3563
 5211TIP3   OH239827   7.159   4.243   8.087  0.6590 -0.5545 -0.2418
 5211TIP3    H139828   7.069   4.275   8.097 -0.1848 -3.1093  1.1499
 5211TIP3    H239829   7.161   4.204   7.999 -0.2619 -2.2121  0.4206
 5212TIP3   OH239830   2.848   4.746   8.191  0.2926 -0.1304 -0.0993
 5212TIP3    H139831   2.802   4.671   8.152 -1.3933  0.7240  0.1583
 5212TIP3    H239832   2.895   4.709   8.266  0.2034 -1.0721 -0.4938
 5213TIP3   OH239833   6.553   7.401   8.212 -0.0272  0.4359  0.1790
 5213TIP3    H139834   6.553   7.405   8.308 -0.0990 -3.3011  0.4762
 5213TIP3    H239835   6.542   7.492   8.185  0.8938  1.7799  3.6699
 5214TIP3   OH239836   1.605   5.059   9.187 -0.2989 -0.4930 -0.8522
 5214TIP3    H139837   1.613   4.964   9.174 -0.0614 -0.6492  0.3108
 5214TIP3    H239838   1.650   5.097   9.112 -1.7902 -1.2672 -2.2013
 5215TIP3   OH239839   0.191   1.324   8.213  0.2974 -0.1120  0.1185
 5215TIP3    H139840   0.106   1.337   8.171  1.4871 -2.2858 -3.3484
 5215TIP3    H239841   0.178   1.248   8.270 -0.2649  0.0906  0.2694
 5216TIP3   OH239842   7.286   2.992   7.700  0.4309 -0.0605 -0.0807
 5216TIP3    H139843   7.329   3.052   7.761  1.9220 -1.4936  0.3463
 5216TIP3    H239844   7.312   3.024   7.613 -1.4930  1.8322 -0.0226
 5217TIP3   OH239845   5.571   0.298   7.603 -0.6294 -0.3348 -0.0400
 5217TIP3    H139846   5.627   0.324   7.530  0.2302  1.7323  1.2364
 5217TIP3    H239847   5.501   0.363   7.604  0.4596  0.9524  2.0549
 5218TIP3   OH239848   6.206   0.830   7.671 -0.0879 -0.5191  0.3437
 5218TIP3    H139849   6.255   0.845   7.752 -1.2829 -0.4147  1.0833
 5218TIP3    H239850   6.254   0.878   7.604 -0.2654  1.2679  1.4216
 5219TIP3   OH239851   1.492   3.128   9.056  0.6076  0.4672  0.2988
 5219TIP3    H139852   1.547   3.128   9.134 -0.7583  1.5117  1.3052
 5219TIP3    H239853   1.403   3.122   9.089 -0.0819  2.1979 -1.0734
 5220TIP3   OH239854   3.636   4.967   7.690  0.1915  0.3512  0.1496
 5220TIP3    H139855   3.559   4.963   7.632  0.4471  2.8582 -0.4585
 5220TIP3    H239856   3.606   5.013   7.767  0.2617 -1.6617  1.4555
 5221TIP3   OH239857   6.555   0.680   9.284  0.0388  0.3200  0.5329
 5221TIP3    H139858   6.644   0.690   9.249 -0.4178  1.7381 -0.3335
 5221TIP3    H239859   6.549   0.588   9.309  2.6384  0.7073  3.1421
 5222TIP3   OH239860   3.897   2.561   7.349  0.3975 -0.3508 -0.5066
 5222TIP3    H139861   3.969   2.606   7.306  0.6098  0.0428  0.2405
 5222TIP3    H239862   3.882   2.483   7.296 -0.9632  1.2801 -2.7287
 5223TIP3   OH239863   7.248   3.133   6.789  0.0144  0.0660 -0.4380
 5223TIP3    H139864   7.329   3.160   6.747  0.5057 -0.6831  0.0070
 5223TIP3    H239865   7.195   3.213   6.793  1.1282  0.7937  0.1782
 5224TIP3   OH239866   3.861   2.572   7.618  0.1349 -0.1708  0.9882
 5224TIP3    H139867   3.796   2.641   7.602 -0.7113 -1.3737 -1.0336
 5224TIP3    H239868   3.893   2.548   7.531  2.9396 -0.0236  1.8781
 5225TIP3   OH239869   0.724   4.896   6.420 -0.0670 -0.3426 -0.3501
 5225TIP3    H139870   0.728   4.968   6.357 -1.1897  1.2252  1.2869
 5225TIP3    H239871   0.799   4.840   6.397 -0.0359  0.5315 -2.5878
 5226TIP3   OH239872   0.566   5.551   8.828 -0.3838 -0.1234 -0.0321
 5226TIP3    H139873   0.471   5.545   8.840 -0.2129 -1.8864  0.7524
 5226TIP3    H239874   0.602   5.496   8.898  1.1829 -0.1767 -0.8474
 5227TIP3   OH239875   4.676   1.507   8.230 -0.0721 -0.1784 -0.6160
 5227TIP3    H139876   4.732   1.449   8.281  1.2691 -0.1185 -1.9624
 5227TIP3    H239877   4.638   1.567   8.294  0.8068 -0.7025  0.4187
 5228TIP3   OH239878   1.047   6.947   9.689  0.0579 -0.2371  0.0763
 5228TIP3    H139879   1.105   6.891   9.741 -1.0063  1.3097  3.1141
 5228TIP3    H239880   0.967   6.896   9.679  0.2727 -0.5485 -0.0682
 5229TIP3   OH239881   6.446   1.930   9.387  0.1820 -0.3520 -0.8993
 5229TIP3    H139882   6.374   1.992   9.377  0.1551 -0.0627  0.7588
 5229TIP3    H239883   6.408   1.845   9.366 -1.0092 -0.3626  1.0299
 5230TIP3   OH239884   1.807   1.068   7.512 -0.0001  0.4092  0.7441
 5230TIP3    H139885   1.890   1.019   7.518  0.0169  0.2469 -0.5400
 5230TIP3    H239886   1.756   1.036   7.586  0.6866 -0.2636  0.9476
 5231TIP3   OH239887   7.314   5.269   8.981  0.6295 -0.0045 -0.7033
 5231TIP3    H139888   7.339   5.332   8.914 -0.9640  0.3031 -1.0555
 5231TIP3    H239889   7.281   5.323   9.053 -2.4120 -0.3513 -1.6764
 5232TIP3   OH239890   1.400   4.731   8.303  0.0748 -0.2211 -0.5523
 5232TIP3    H139891   1.324   4.780   8.270  0.5959 -0.1592 -1.7219
 5232TIP3    H239892   1.396   4.741   8.398 -1.2380 -0.0046 -0.6139
 5233TIP3   OH239893   2.029   4.486   8.102  0.1246 -0.2246  0.1431
 5233TIP3    H139894   1.972   4.561   8.084  1.2833  0.8476  0.7433
 5233TIP3    H239895   2.068   4.465   8.017  0.9473  0.8617  0.2335
 5234TIP3   OH239896   0.706   1.988   8.175  0.1709  0.0009  0.2497
 5234TIP3    H139897   0.693   1.962   8.083 -0.6089  0.4863  0.2160
 5234TIP3    H239898   0.634   2.049   8.193 -0.2172 -0.7865  1.4591
 5235TIP3   OH239899   3.226   0.649   9.263  0.4475 -0.1194  0.0853
 5235TIP3    H139900   3.142   0.636   9.220  0.7005  0.2959 -0.5410
 5235TIP3    H239901   3.205   0.693   9.345  0.1119  0.6065 -0.3833
 5236TIP3   OH239902   2.953   5.352   9.182 -0.1931  0.1154  0.4783
 5236TIP3    H139903   3.007   5.430   9.194 -1.1052  0.5885  1.7427
 5236TIP3    H239904   2.863   5.385   9.188 -0.6035 -0.8907  0.0056
 5237TIP3   OH239905   3.470   0.837   8.285  0.8598 -1.1231 -0.5052
 5237TIP3    H139906   3.469   0.741   8.293 -0.2200 -1.0791  0.0882
 5237TIP3    H239907   3.562   0.859   8.269  1.9076 -1.9792  3.2969
 5238TIP3   OH239908   3.322   1.204   6.774  0.0641 -0.0872 -0.2549
 5238TIP3    H139909   3.292   1.189   6.684  0.7729  0.3147 -0.5699
 5238TIP3    H239910   3.310   1.298   6.788  2.8754  0.5216 -1.0933
 5239TIP3   OH239911   1.260   5.204   9.457  0.2689  0.3187 -0.0531
 5239TIP3    H139912   1.302   5.245   9.533  0.7792 -0.0127 -0.1493
 5239TIP3    H239913   1.226   5.277   9.406 -0.4264  0.5354  0.6815
 5240TIP3   OH239914   5.558   1.557   9.221  0.4464  0.5764 -0.3311
 5240TIP3    H139915   5.484   1.525   9.272  0.5910  1.9622  0.8084
 5240TIP3    H239916   5.621   1.486   9.223  0.1030  0.2792  0.7332
 5241TIP3   OH239917   1.791   6.748   7.492 -0.2944 -0.4427  0.2275
 5241TIP3    H139918   1.777   6.713   7.580  0.6626 -0.5859  0.3359
 5241TIP3    H239919   1.799   6.843   7.504 -1.8179 -0.2617  0.0668
 5242TIP3   OH239920   0.746   0.572   9.284  0.8261 -0.4440  0.4311
 5242TIP3    H139921   0.712   0.501   9.230 -0.4312 -0.1778  0.8338
 5242TIP3    H239922   0.750   0.648   9.225  0.0906 -0.3190  0.5329
 5243TIP3   OH239923   6.093   5.027   8.005 -0.0564  0.1927 -0.3420
 5243TIP3    H139924   6.115   5.037   7.913 -1.6552  0.2161 -0.7570
 5243TIP3    H239925   6.085   4.933   8.018  1.8484  0.0657  0.2366
 5244TIP3   OH239926   6.334   0.827   7.033 -0.3106 -0.2533 -0.0210
 5244TIP3    H139927   6.242   0.847   7.052 -0.2928 -0.3402  0.1571
 5244TIP3    H239928   6.359   0.890   6.965 -0.8693 -1.0521 -0.9865
 5245TIP3   OH239929   0.824   5.034   7.718  0.1199  0.1247  0.2454
 5245TIP3    H139930   0.858   5.104   7.662  1.0371 -0.1689  0.4116
 5245TIP3    H239931   0.774   5.079   7.786  2.0202  0.7868  1.2927
 5246TIP3   OH239932   3.946   3.888   7.697  0.4523  0.3854  0.2098
 5246TIP3    H139933   3.852   3.904   7.698  0.3887  0.0311  1.6445
 5246TIP3    H239934   3.954   3.793   7.701  0.8811  0.3807 -0.5254
 5247TIP3   OH239935   5.849   6.923   8.000 -0.0018  0.7442 -0.2978
 5247TIP3    H139936   5.816   6.994   8.055  0.9543  1.2569 -0.3552
 5247TIP3    H239937   5.878   6.856   8.062  0.8681  1.2272 -0.1647
 5248TIP3   OH239938   1.466   6.971   8.700  0.3060 -0.6981  0.4689
 5248TIP3    H139939   1.546   7.024   8.691 -0.9607  1.5871  1.8650
 5248TIP3    H239940   1.399   7.022   8.655 -1.4223  0.1107  3.6930
 5249TIP3   OH239941   4.520   6.102   6.948 -0.8845 -0.3032  0.1045
 5249TIP3    H139942   4.444   6.153   6.978 -0.6692  0.0223  0.1087
 5249TIP3    H239943   4.533   6.036   7.015 -0.0249  0.8046  1.0781
 5250TIP3   OH239944   1.621   6.941   7.758 -0.1868  0.2397 -0.5698
 5250TIP3    H139945   1.614   6.920   7.851  0.5387  0.3548 -0.4850
 5250TIP3    H239946   1.530   6.938   7.726 -0.3405 -0.7912 -0.0832
 5251TIP3   OH239947   3.045   6.715   7.621  0.0616 -0.7426 -0.0657
 5251TIP3    H139948   2.997   6.653   7.565 -0.7840  0.4397 -0.7016
 5251TIP3    H239949   3.061   6.667   7.702  1.8927 -2.7479 -1.5079
 5252TIP3   OH239950   6.753   6.775   8.512 -0.2374  0.4404  0.6611
 5252TIP3    H139951   6.800   6.787   8.594  0.7011  0.0643  0.2007
 5252TIP3    H239952   6.797   6.833   8.450  0.0973 -0.4353  0.0464
 5253TIP3   OH239953   5.927   3.560   8.446 -0.6424  0.3027  0.0076
 5253TIP3    H139954   5.959   3.637   8.492  0.6591  0.3097 -0.8737
 5253TIP3    H239955   5.960   3.569   8.357 -1.0024 -0.9529 -0.2782
 5254TIP3   OH239956   2.491   5.358   8.449 -0.2512 -0.0262 -0.0130
 5254TIP3    H139957   2.488   5.275   8.402 -2.0743 -0.4213  0.7564
 5254TIP3    H239958   2.477   5.424   8.381 -0.4507 -0.4437 -0.3823
 5255TIP3   OH239959   6.590   4.606   7.972  0.2249  0.3893  0.1651
 5255TIP3    H139960   6.603   4.671   7.903 -2.2961  1.2593  0.4349
 5255TIP3    H239961   6.501   4.573   7.959  0.8943 -1.9673  0.9574
 5256TIP3   OH239962   7.137   4.096   7.849  0.0012 -0.0976 -0.3058
 5256TIP3    H139963   7.085   4.086   7.769 -1.8471 -0.4980  0.9037
 5256TIP3    H239964   7.227   4.108   7.817 -0.7721  0.4845 -2.4626
 5257TIP3   OH239965   7.074   6.625   9.640  0.3356  0.0401 -0.4114
 5257TIP3    H139966   7.125   6.552   9.605 -1.2194 -1.0933 -0.4277
 5257TIP3    H239967   7.072   6.611   9.734  0.4479  0.3516 -0.3614
 5258TIP3   OH239968   2.016   6.986   7.776 -0.8814  0.1182 -0.0894
 5258TIP3    H139969   2.051   6.950   7.695 -2.3848 -0.6014 -0.4559
 5258TIP3    H239970   1.921   6.972   7.770 -1.0331 -0.0245  1.8178
 5259TIP3   OH239971   2.693   1.249   8.374 -0.5492 -0.6821  0.1008
 5259TIP3    H139972   2.715   1.184   8.441 -1.2711 -1.1784 -0.1268
 5259TIP3    H239973   2.734   1.215   8.294  2.5895  1.2202  0.7132
 5260TIP3   OH239974   0.862   4.003   7.033 -0.0895  0.0178 -0.4480
 5260TIP3    H139975   0.857   3.976   6.941 -1.4590 -0.8659 -0.1432
 5260TIP3    H239976   0.770   4.010   7.060  0.2759  1.6561  0.4709
 5261TIP3   OH239977   2.793   5.162   8.198  0.3358  0.0050  0.4348
 5261TIP3    H139978   2.882   5.131   8.182  0.3022  0.1084  0.0510
 5261TIP3    H239979   2.766   5.117   8.278 -0.7288 -3.1539 -1.5349
 5262TIP3   OH239980   0.406   0.617   7.861  0.0057  0.0836  0.1748
 5262TIP3    H139981   0.352   0.668   7.922 -0.9137  0.5954 -1.0323
 5262TIP3    H239982   0.492   0.659   7.865 -0.9242  2.2770 -1.3504
 5263TIP3   OH239983   1.365   3.659   7.885  0.0308  0.4739 -0.4007
 5263TIP3    H139984   1.399   3.616   7.806  0.9272  0.0328  0.2006
 5263TIP3    H239985   1.350   3.750   7.859 -0.6271  0.1048 -1.3382
 5264TIP3   OH239986   5.076   3.137   7.197 -0.0944 -0.3693  0.0650
 5264TIP3    H139987   5.086   3.101   7.285 -1.4576 -1.2258 -0.0976
 5264TIP3    H239988   5.114   3.071   7.140 -1.7677 -1.1988 -0.1649
 5265TIP3   OH239989   1.453   6.039   8.155  0.0119 -0.0300  0.0498
 5265TIP3    H139990   1.479   6.089   8.232 -0.7614  0.8365 -0.2315
 5265TIP3    H239991   1.518   5.969   8.149 -0.3842 -0.6447  1.9745
 5266TIP3   OH239992   2.498   1.993   8.642 -0.2080  0.2247 -0.0891
 5266TIP3    H139993   2.416   2.021   8.601 -0.3885  0.6635  0.5440
 5266TIP3    H239994   2.471   1.927   8.706 -0.0508  0.2597  0.0135
 5267TIP3   OH239995   3.071   0.864   7.807 -0.4833  0.0304  0.4897
 5267TIP3    H139996   3.099   0.773   7.819  0.6817  0.2099 -0.6298
 5267TIP3    H239997   3.122   0.895   7.732 -0.9847  1.5600  0.7455
 5268TIP3   OH239998   1.975   6.051   6.773 -0.2564  0.4059 -0.4886
 5268TIP3    H139999   1.967   6.125   6.714  1.3722  0.8521 -0.2064
 5268TIP3    H240000   1.905   6.063   6.837 -0.7400  1.0422 -1.1313
 5269TIP3   OH240001   1.460   5.738   7.419 -0.3442  0.5004  0.1622
 5269TIP3    H140002   1.460   5.759   7.512  0.3619 -0.1099  0.3029
 5269TIP3    H240003   1.536   5.682   7.406 -1.7572 -1.3934 -0.3505
 5270TIP3   OH240004   7.672   6.345   8.341 -0.3724  0.3175 -0.3439
 5270TIP3    H140005   7.695   6.375   8.253  0.9522  0.7310  0.1157
 5270TIP3    H240006   7.659   6.425   8.391  0.7529  0.1395  0.2812
 5271TIP3   OH240007   3.839   6.250   9.072 -0.4970  0.1998 -0.2553
 5271TIP3    H140008   3.830   6.269   8.979  0.2388 -0.4058 -0.4645
 5271TIP3    H240009   3.751   6.226   9.101 -0.6854  0.1656 -0.8481
 5272TIP3   OH240010   7.513   6.238   8.008  0.1586 -0.0949  0.4712
 5272TIP3    H140011   7.530   6.161   7.954 -2.7736 -0.5535  0.0587
 5272TIP3    H240012   7.494   6.203   8.095 -0.8516  0.1588  0.3665
 5273TIP3   OH240013   4.740   7.445   8.158  0.3145  0.5095  0.2475
 5273TIP3    H140014   4.658   7.486   8.131 -0.8463 -0.6812  1.7601
 5273TIP3    H240015   4.780   7.417   8.076 -0.9688  0.8009 -0.5170
 5274TIP3   OH240016   1.887   5.355   7.281  0.4854 -0.1619 -0.1471
 5274TIP3    H140017   1.919   5.352   7.190  1.4394 -0.0255  0.1743
 5274TIP3    H240018   1.800   5.394   7.274  1.2705  1.5913 -0.8240
 5275TIP3   OH240019   5.354   1.756   8.036  0.1407  0.1473 -0.3750
 5275TIP3    H140020   5.358   1.662   8.054  2.6044  0.0939 -0.9218
 5275TIP3    H240021   5.397   1.797   8.112  0.6560  0.6913 -0.9497
 5276TIP3   OH240022   3.893   6.796   8.375  0.7631 -0.0192 -0.8823
 5276TIP3    H140023   3.862   6.886   8.378  0.9963  0.0513 -0.3788
 5276TIP3    H240024   3.823   6.747   8.332  0.1291  0.2076 -0.1351
 5277TIP3   OH240025   2.652   7.142   9.590  0.3040  0.0498 -0.2423
 5277TIP3    H140026   2.598   7.069   9.619  1.0257 -0.9799 -1.3955
 5277TIP3    H240027   2.732   7.101   9.558  1.4473  1.4815  0.6739
 5278TIP3   OH240028   1.408   1.126   9.243 -0.1098  0.4713  0.4714
 5278TIP3    H140029   1.420   1.195   9.177 -0.7157 -0.1288 -0.2868
 5278TIP3    H240030   1.338   1.158   9.299 -1.6891 -0.2816 -0.9735
 5279TIP3   OH240031   3.933   5.382   8.224 -0.1413 -0.0726  0.0027
 5279TIP3    H140032   3.947   5.471   8.192  0.2526  0.1756  0.8328
 5279TIP3    H240033   4.012   5.335   8.198  0.1935  0.1378  0.6249
 5280TIP3   OH240034   2.076   1.404   8.153 -0.3729 -0.3806 -0.3052
 5280TIP3    H140035   2.158   1.378   8.112 -0.2695  0.5363 -0.6994
 5280TIP3    H240036   2.037   1.466   8.092 -1.5147 -1.0446 -0.2711
 5281TIP3   OH240037   5.618   6.746   6.799 -0.1729  0.1487  0.1965
 5281TIP3    H140038   5.620   6.800   6.720 -0.0025 -0.9283 -0.5640
 5281TIP3    H240039   5.706   6.756   6.837 -0.6024  1.5300  0.8741
 5282TIP3   OH240040   4.765   5.320   7.385 -0.0038 -0.3867  0.0435
 5282TIP3    H140041   4.776   5.266   7.307  1.0234 -0.8241  0.4805
 5282TIP3    H240042   4.777   5.260   7.459 -0.4217  0.1312  0.5480
 5283TIP3   OH240043   0.569   0.427   7.272 -0.0633 -0.0781  0.1911
 5283TIP3    H140044   0.604   0.454   7.187 -1.8154  0.2432 -0.4746
 5283TIP3    H240045   0.617   0.479   7.336  1.2568 -0.2978 -0.5946
 5284TIP3   OH240046   4.684   2.275   8.574  0.3881 -0.1826 -0.1894
 5284TIP3    H140047   4.762   2.329   8.587 -0.4711  0.9614  0.3275
 5284TIP3    H240048   4.661   2.244   8.661  1.5664 -2.4444 -0.6118
 5285TIP3   OH240049   2.275   7.139   7.818  0.2602 -0.0260 -0.5698
 5285TIP3    H140050   2.332   7.062   7.814 -1.0911 -1.1263  0.3817
 5285TIP3    H240051   2.202   7.118   7.760  0.8781  1.4537 -1.9391
 5286TIP3   OH240052   0.456   3.910   8.418 -0.0066  0.0345  0.5747
 5286TIP3    H140053   0.394   3.917   8.491  0.3132  1.6105  0.7312
 5286TIP3    H240054   0.475   4.001   8.394 -0.4457 -0.4281 -1.7870
 5287TIP3   OH240055   2.616   6.824   7.596  0.3554  0.1360  0.3923
 5287TIP3    H140056   2.688   6.883   7.614  1.1435 -0.6611 -0.0578
 5287TIP3    H240057   2.549   6.879   7.555  0.2989  1.0753  1.6950
 5288TIP3   OH240058   0.255   1.640   7.551 -0.0519  0.1341 -0.0117
 5288TIP3    H140059   0.236   1.728   7.518  0.5719  1.1330  2.0925
 5288TIP3    H240060   0.169   1.598   7.557 -0.4391  0.8477 -0.3925
 5289TIP3   OH240061   4.509   6.627   8.834 -0.0856 -0.0510 -0.3224
 5289TIP3    H140062   4.566   6.658   8.905  1.9933 -0.7917 -1.5547
 5289TIP3    H240063   4.474   6.544   8.866 -1.6490  1.0578  0.9957
 5290TIP3   OH240064   2.375   2.997   8.183 -0.0872 -0.0354  0.3413
 5290TIP3    H140065   2.316   3.073   8.183  0.4340  0.3732  0.2988
 5290TIP3    H240066   2.429   3.008   8.106 -0.6745 -0.9949 -0.2341
 5291TIP3   OH240067   7.464   0.781   9.397  0.2780  0.6916 -0.4400
 5291TIP3    H140068   7.377   0.762   9.431  1.1339 -0.9749  0.9482
 5291TIP3    H240069   7.513   0.700   9.407  2.3647  1.9184 -0.0156
 5292TIP3   OH240070   6.577   7.339   8.838 -0.2290 -0.3879  0.4664
 5292TIP3    H140071   6.573   7.434   8.855 -0.8947 -0.5285  1.1946
 5292TIP3    H240072   6.551   7.300   8.922  1.7728 -1.2657  0.7214
 5293TIP3   OH240073   5.465   6.018   6.844  0.0958 -0.3456  0.0545
 5293TIP3    H140074   5.375   6.048   6.850 -0.5690 -1.7347 -1.8950
 5293TIP3    H240075   5.477   5.996   6.751  3.2587  2.1998 -0.3309
 5294TIP3   OH240076   6.087   0.045   9.178  0.0235  0.4018 -0.0913
 5294TIP3    H140077   6.040   0.025   9.097 -1.9181 -0.6323  1.2271
 5294TIP3    H240078   6.056   0.131   9.204 -0.1171  0.3006  0.0767
 5295TIP3   OH240079   6.687   3.083   9.047  0.4474 -0.4969  0.0988
 5295TIP3    H140080   6.686   3.143   8.972  2.5720 -0.0151  0.3762
 5295TIP3    H240081   6.780   3.064   9.060  0.0334 -1.4330  1.9328
 5296TIP3   OH240082   2.136   4.129   8.270 -0.0022  0.4485 -0.1495
 5296TIP3    H140083   2.147   4.097   8.359 -0.2304  1.7182  0.3504
 5296TIP3    H240084   2.058   4.185   8.274  0.4236  1.1224 -0.9712
 5297TIP3   OH240085   2.078   3.093   6.605 -0.5806  0.2593  0.2438
 5297TIP3    H140086   2.125   3.018   6.642 -1.1168 -0.2565 -0.1015
 5297TIP3    H240087   2.147   3.154   6.579 -0.1144 -0.3262  0.0800
 5298TIP3   OH240088   3.652   4.434   7.520 -0.1547  0.3083 -0.2613
 5298TIP3    H140089   3.669   4.527   7.537  2.1918 -0.0264 -0.3771
 5298TIP3    H240090   3.644   4.428   7.425 -1.0315  0.4686 -0.2065
 5299TIP3   OH240091   6.355   0.052   8.946  0.0211 -0.2007 -0.1504
 5299TIP3    H140092   6.320   0.014   9.027  0.9482  0.1522  0.4400
 5299TIP3    H240093   6.300   0.128   8.929 -1.5787 -1.5238 -1.1085
 5300TIP3   OH240094   5.326   2.109   7.482 -0.1676  0.1867  0.0648
 5300TIP3    H140095   5.259   2.054   7.440  0.1864  0.7400 -1.2455
 5300TIP3    H240096   5.286   2.196   7.486  1.1037  0.9821 -2.4575
 5301TIP3   OH240097   3.004   2.066   8.946 -0.2069  0.3552  0.5724
 5301TIP3    H140098   3.088   2.066   8.900 -0.3191  1.5851  0.3348
 5301TIP3    H240099   3.027   2.065   9.039  0.0600  0.5088  0.5063
 5302TIP3   OH240100   0.107   1.100   9.176  0.5106 -0.0820  0.8600
 5302TIP3    H140101   0.065   1.169   9.125  0.1302 -0.3375  0.8206
 5302TIP3    H240102   0.036   1.039   9.197  1.1780 -1.5297 -0.8284
 5303TIP3   OH240103   2.729   7.173   7.936  0.4645 -0.1309 -0.5966
 5303TIP3    H140104   2.635   7.170   7.922  0.1994 -3.7382  0.8509
 5303TIP3    H240105   2.745   7.258   7.975 -1.8221  1.3856 -2.6625
 5304TIP3   OH240106   6.385   6.091   9.034  0.0392  0.2593  0.4454
 5304TIP3    H140107   6.334   6.028   8.983  0.7692 -0.2890  0.3727
 5304TIP3    H240108   6.320   6.152   9.070 -0.4747  0.9628 -1.5236
 5305TIP3   OH240109   2.501   2.242   8.956 -0.9855 -0.3438 -0.2428
 5305TIP3    H140110   2.499   2.336   8.938  0.9792  0.3834  2.6276
 5305TIP3    H240111   2.425   2.227   9.013 -1.4193 -0.5700 -0.8690
 5306TIP3   OH240112   2.537   2.679   6.791 -0.6553  0.4386 -0.3132
 5306TIP3    H140113   2.553   2.613   6.723  1.5141  1.4596 -0.9181
 5306TIP3    H240114   2.566   2.761   6.751 -0.2494  1.2314  1.4949
 5307TIP3   OH240115   4.292   7.554   7.759  0.3705  0.8255 -0.3689
 5307TIP3    H140116   4.255   7.606   7.688 -0.2052 -1.6708 -2.0117
 5307TIP3    H240117   4.216   7.523   7.808  0.5642 -0.0161 -0.5831
 5308TIP3   OH240118   4.605   5.164   9.018 -0.4836  0.3895  0.3246
 5308TIP3    H140119   4.654   5.105   8.960 -2.0830 -1.0682  0.4097
 5308TIP3    H240120   4.649   5.248   9.007 -0.6497  0.1967 -3.0104
 5309TIP3   OH240121   0.979   3.727   7.040  0.2092  0.2050  0.1328
 5309TIP3    H140122   0.954   3.819   7.051 -0.2057  0.1182 -0.0732
 5309TIP3    H240123   0.930   3.698   6.963  0.6822 -0.0653 -0.0662
 5310TIP3   OH240124   4.396   4.747   8.212 -0.7462 -0.4127  0.1235
 5310TIP3    H140125   4.487   4.775   8.225 -0.2557 -1.2985 -1.3204
 5310TIP3    H240126   4.353   4.772   8.294  0.6614  0.5184  0.6286
 5311TIP3   OH240127   1.995   3.086   6.875 -0.4705 -0.4310 -0.1655
 5311TIP3    H140128   1.985   3.124   6.788  3.0617  1.3667  0.0261
 5311TIP3    H240129   2.059   3.015   6.863 -0.8565 -0.9617  0.7948
 5312TIP3   OH240130   7.319   2.379   9.528 -0.0306 -0.7084  0.0519
 5312TIP3    H140131   7.378   2.317   9.571 -0.4498 -1.9074 -1.0558
 5312TIP3    H240132   7.233   2.363   9.569  0.4437  1.5747  2.2351
 5313TIP3   OH240133   5.500   0.230   9.185  0.1143 -0.1694  0.0632
 5313TIP3    H140134   5.501   0.149   9.133 -1.4070 -0.7250  0.8367
 5313TIP3    H240135   5.407   0.247   9.201  0.4104  1.6887  0.0200
 5314TIP3   OH240136   0.073   2.332   8.485  0.2226 -0.4172  0.0078
 5314TIP3    H140137   0.070   2.269   8.557  1.7444 -0.6133 -0.0719
 5314TIP3    H240138   0.061   2.280   8.406  2.0382 -0.7133 -0.0955
 5315TIP3   OH240139   1.751   5.666   7.776 -0.1336  0.2690  0.2950
 5315TIP3    H140140   1.779   5.758   7.776  2.2123 -0.3695 -1.4785
 5315TIP3    H240141   1.711   5.653   7.690  0.9332 -0.7236 -0.0749
 5316TIP3   OH240142   3.270   2.668   7.637 -0.3947 -0.1272 -0.2277
 5316TIP3    H140143   3.262   2.573   7.626  0.0239 -0.0395 -1.4621
 5316TIP3    H240144   3.323   2.696   7.563  0.0998  0.9855  0.5265
 5317TIP3   OH240145   4.910   2.368   7.913  0.8037 -0.0324  0.2847
 5317TIP3    H140146   4.991   2.321   7.893  0.8229 -0.9427  2.2752
 5317TIP3    H240147   4.885   2.337   8.000 -2.1493 -0.3915 -0.5957
 5318TIP3   OH240148   6.912   2.102   7.378 -0.8433 -0.3722 -0.0588
 5318TIP3    H140149   6.834   2.159   7.384 -0.4397  0.0855  1.3302
 5318TIP3    H240150   6.946   2.117   7.290 -1.8602  0.0571 -0.3970
 5319TIP3   OH240151   2.835   0.044   7.030  0.2391  0.3345  0.4136
 5319TIP3    H140152   2.823   0.010   6.941 -0.0351  1.8067 -0.1432
 5319TIP3    H240153   2.856   0.136   7.017 -0.1243  0.6469  1.8950
 5320TIP3   OH240154   1.233   0.068   8.652  0.4671 -0.3328  0.1963
 5320TIP3    H140155   1.243   0.107   8.565 -0.5759 -0.7925 -0.1477
 5320TIP3    H240156   1.311   0.095   8.699  0.8885  0.2116 -0.7769
 5321TIP3   OH240157   4.721   0.373   8.258  0.0483  0.2572  0.0977
 5321TIP3    H140158   4.716   0.402   8.167  0.0457  0.3431  0.1249
 5321TIP3    H240159   4.749   0.281   8.253  3.2547  1.1019  0.0892
 5322TIP3   OH240160   7.228   2.321   8.643  0.6071  0.0836  0.3693
 5322TIP3    H140161   7.221   2.226   8.632  1.0379 -0.1707  1.9995
 5322TIP3    H240162   7.271   2.332   8.728 -1.6951  1.7386  1.4303
 5323TIP3   OH240163   0.905   6.919   7.414 -0.4544 -0.2189  0.8345
 5323TIP3    H140164   0.910   7.005   7.372  2.1297 -0.6044  0.1750
 5323TIP3    H240165   0.871   6.861   7.345  1.1802 -0.3454  0.1036
 5324TIP3   OH240166   6.745   0.151   8.964  0.0430 -0.4469  0.1890
 5324TIP3    H140167   6.817   0.206   8.993 -1.1234  1.7571 -0.9131
 5324TIP3    H240168   6.759   0.140   8.870  0.3214 -2.2202  0.3929
 5325TIP3   OH240169   3.152   4.703   7.287  0.0954  0.6167  0.2368
 5325TIP3    H140170   3.161   4.686   7.381 -0.3642  0.5825  0.2759
 5325TIP3    H240171   3.172   4.619   7.245  1.8597  1.0149  0.2105
 5326TIP3   OH240172   1.094   0.115   7.706 -0.0846  0.0195 -0.2286
 5326TIP3    H140173   1.134   0.063   7.776 -1.3277 -1.3476 -0.5030
 5326TIP3    H240174   1.068   0.051   7.640 -0.1392  1.1651 -1.3543
 5327TIP3   OH240175   5.184   1.017   7.924  0.1437  0.1045  0.1434
 5327TIP3    H140176   5.250   1.075   7.961 -0.0475  0.9866 -0.8542
 5327TIP3    H240177   5.210   1.005   7.833 -0.1182 -0.9582  0.1880
 5328TIP3   OH240178   2.018   3.858   9.045 -0.0286  0.1547 -0.3031
 5328TIP3    H140179   1.994   3.905   8.966 -4.4378  0.5634  0.9974
 5328TIP3    H240180   2.050   3.774   9.014 -0.5607  0.7189 -2.5568
 5329TIP3   OH240181   0.202   6.329   7.760  0.9365 -0.3151 -0.2101
 5329TIP3    H140182   0.153   6.410   7.773  0.1254 -1.0164  1.4676
 5329TIP3    H240183   0.232   6.306   7.848 -0.8537 -3.0551 -0.2054
 5330TIP3   OH240184   5.960   1.576   6.845 -0.1341  0.3153 -0.6151
 5330TIP3    H140185   6.017   1.507   6.878 -0.7046  0.0919 -0.1053
 5330TIP3    H240186   6.019   1.651   6.832  0.2897  0.0624 -0.1652
 5331TIP3   OH240187   0.693   3.099   8.531  0.0179  0.2418  0.1013
 5331TIP3    H140188   0.657   3.132   8.613  1.1330  0.2082  0.6167
 5331TIP3    H240189   0.616   3.081   8.477 -0.7996 -0.8942  1.5697
 5332TIP3   OH240190   1.757   3.146   8.951 -0.1773 -0.2073 -0.4878
 5332TIP3    H140191   1.743   3.182   8.863  1.1675 -1.5872 -1.2882
 5332TIP3    H240192   1.669   3.147   8.991 -0.8365  0.2908 -1.8869
 5333TIP3   OH240193   0.264   0.108   7.641 -0.0884  0.2473 -0.6151
 5333TIP3    H140194   0.296   0.038   7.583 -0.9105 -0.0096 -0.7608
 5333TIP3    H240195   0.297   0.083   7.728  0.4590  0.2079 -0.8277
 5334TIP3   OH240196   1.190   1.721   9.144  0.2692 -0.1193  0.3108
 5334TIP3    H140197   1.212   1.774   9.067  0.5255  0.1476  0.5645
 5334TIP3    H240198   1.159   1.638   9.108 -1.4615  0.6723 -0.1627
 5335TIP3   OH240199   6.212   2.260   8.585 -0.1149  0.0232  0.1511
 5335TIP3    H140200   6.214   2.170   8.620 -0.0354  0.2810  0.8175
 5335TIP3    H240201   6.264   2.255   8.505 -0.2083 -0.5566  0.1193
 5336TIP3   OH240202   1.693   5.454   6.952  0.1632  0.2735  0.0436
 5336TIP3    H140203   1.711   5.364   6.926  0.6393  0.4295 -0.1821
 5336TIP3    H240204   1.640   5.489   6.880  2.2198  0.9733 -1.2231
 5337TIP3   OH240205   6.629   1.943   8.024 -0.2788  0.3366  0.0772
 5337TIP3    H140206   6.613   1.978   7.936  0.1556 -0.9104 -0.5123
 5337TIP3    H240207   6.671   1.858   8.009  0.9103  0.6342  1.5030
 5338TIP3   OH240208   4.037   3.494   9.615  0.1151  0.5349 -0.5050
 5338TIP3    H140209   4.118   3.496   9.665  0.5134 -0.1390 -1.1002
 5338TIP3    H240210   3.995   3.412   9.640 -0.2984  0.7926 -0.3378
 5339TIP3   OH240211   2.958   4.781   6.831 -0.2039 -0.7751 -0.2367
 5339TIP3    H140212   2.994   4.695   6.850 -1.3461 -0.8677  1.7593
 5339TIP3    H240213   3.033   4.831   6.797  0.7204 -2.2167 -0.4257
 5340TIP3   OH240214   7.259   0.332   8.874  0.0393  0.4867  0.2352
 5340TIP3    H140215   7.325   0.399   8.893  0.5156  0.0538  0.1409
 5340TIP3    H240216   7.303   0.272   8.814 -0.5797  0.4028 -0.1422
 5341TIP3   OH240217   3.797   3.781   8.088 -0.5420 -0.0036  0.3959
 5341TIP3    H140218   3.779   3.711   8.025 -0.4379 -0.2613  0.6486
 5341TIP3    H240219   3.883   3.815   8.064 -0.7049  0.2087  0.1156
 5342TIP3   OH240220   4.887   6.431   8.359  0.4864 -0.0343 -0.0894
 5342TIP3    H140221   4.848   6.512   8.328  0.5665 -0.8791 -2.6186
 5342TIP3    H240222   4.917   6.451   8.448 -2.2672  1.7226  0.5566
 5343TIP3   OH240223   1.621   7.587   7.984  0.0245 -0.3284 -0.2742
 5343TIP3    H140224   1.636   7.674   8.019 -0.9530  0.0925 -0.8712
 5343TIP3    H240225   1.526   7.578   7.980  0.1055 -1.5707  0.1272
 5344TIP3   OH240226   4.343   1.230   8.800 -0.1434  0.1460  0.4537
 5344TIP3    H140227   4.288   1.280   8.860 -0.1807 -0.6679  1.1173
 5344TIP3    H240228   4.281   1.178   8.749 -0.0350 -0.1068  0.5823
 5345TIP3   OH240229   5.628   4.480   7.500 -0.7306 -0.2205 -0.7687
 5345TIP3    H140230   5.622   4.453   7.409  1.6690  1.3802 -1.4973
 5345TIP3    H240231   5.720   4.472   7.522 -0.8820  1.5176  0.8061
 5346TIP3   OH240232   5.416   4.506   8.230  0.2469 -0.2373  0.3962
 5346TIP3    H140233   5.404   4.592   8.270 -2.3006 -0.3163 -0.0687
 5346TIP3    H240234   5.377   4.514   8.143  2.2121 -1.2020 -0.6572
 5347TIP3   OH240235   2.662   3.464   8.349 -0.3192  0.0099 -0.8653
 5347TIP3    H140236   2.718   3.541   8.366 -0.9319  0.3421 -0.3020
 5347TIP3    H240237   2.634   3.437   8.436  1.3331 -1.9739 -0.8666
 5348TIP3   OH240238   2.272   0.042   8.159  0.2041  0.4866  0.0405
 5348TIP3    H140239   2.282   0.118   8.216 -0.1126  0.0085  0.7536
 5348TIP3    H240240   2.178   0.037   8.142  0.5491  2.4734 -3.1486
 5349TIP3   OH240241   4.677   4.801   8.723  0.0939 -0.0254  0.1708
 5349TIP3    H140242   4.618   4.778   8.651 -0.3177  0.8164  0.2272
 5349TIP3    H240243   4.661   4.733   8.789 -0.7398  0.1254  0.1407
 5350TIP3   OH240244   2.279   4.129   6.674  0.1725 -0.2199 -0.3064
 5350TIP3    H140245   2.339   4.199   6.699 -0.5881 -0.3243  2.0725
 5350TIP3    H240246   2.217   4.170   6.613  0.2152  0.9728  0.4300
 5351TIP3   OH240247   1.099   1.036   7.542 -0.3556 -0.1580 -0.0362
 5351TIP3    H140248   1.140   0.950   7.532  1.4906  0.8238 -1.4713
 5351TIP3    H240249   1.162   1.097   7.504 -2.1575  1.7179 -0.1607
 5352TIP3   OH240250   3.046   2.846   7.334  0.2277 -0.1866  0.7368
 5352TIP3    H140251   2.970   2.834   7.391 -0.4301  0.9136  0.1473
 5352TIP3    H240252   3.013   2.901   7.262  1.4710 -0.0588  0.2330
 5353TIP3   OH240253   2.134   1.514   6.805 -0.3002  0.1574 -0.4824
 5353TIP3    H140254   2.229   1.515   6.792 -0.2178 -0.6610  0.0397
 5353TIP3    H240255   2.099   1.547   6.722  0.4569  1.2856 -0.3866
 5354TIP3   OH240256   6.865   4.727   7.680 -0.1428  0.2185  0.1144
 5354TIP3    H140257   6.936   4.668   7.655 -0.5216 -0.0176 -0.4186
 5354TIP3    H240258   6.892   4.763   7.765  2.1599  2.5690 -1.4606
 5355TIP3   OH240259   4.255   4.408   8.528  0.5940  0.3553 -0.8165
 5355TIP3    H140260   4.181   4.447   8.574 -1.1217 -1.5747 -1.7621
 5355TIP3    H240261   4.225   4.398   8.437  1.8477 -0.7867 -1.1448
 5356TIP3   OH240262   2.420   0.500   8.164  0.3441 -0.1785  0.5671
 5356TIP3    H140263   2.343   0.471   8.115  0.3482 -0.5183  0.7552
 5356TIP3    H240264   2.456   0.419   8.201  1.2050 -0.1288 -0.1193
 5357TIP3   OH240265   2.795   1.591   7.398 -0.0491  0.0579  0.0870
 5357TIP3    H140266   2.790   1.627   7.310  1.1723  0.0736 -0.0050
 5357TIP3    H240267   2.814   1.666   7.454 -0.5195  0.0028  0.3239
 5358TIP3   OH240268   5.566   0.093   8.017  0.7381  0.3719 -0.0712
 5358TIP3    H140269   5.629   0.120   7.951  2.6256  0.6779  1.7532
 5358TIP3    H240270   5.609   0.112   8.100 -1.4340 -0.2319  1.2633
 5359TIP3   OH240271   3.944   5.823   8.253 -0.1191 -0.2365 -0.1609
 5359TIP3    H140272   3.860   5.791   8.222 -1.1768 -0.3156  2.5386
 5359TIP3    H240273   3.948   5.914   8.223 -1.6715  0.0911  0.5185
 5360TIP3   OH240274   3.239   2.712   8.419 -0.2339  0.3658  0.5355
 5360TIP3    H140275   3.283   2.660   8.351 -0.9819 -0.8842  0.9778
 5360TIP3    H240276   3.253   2.663   8.499 -2.5184 -0.1667  0.6779
 5361TIP3   OH240277   3.033   7.472   9.546 -0.1313 -0.1483  0.2154
 5361TIP3    H140278   2.962   7.441   9.490 -0.4622  0.5091  0.2605
 5361TIP3    H240279   2.993   7.482   9.632  0.1339 -0.2406  0.3477
 5362TIP3   OH240280   0.061   2.121   8.307  0.0103  0.1318  0.5247
 5362TIP3    H140281   0.009   2.051   8.267 -0.6654  0.9289 -0.0070
 5362TIP3    H240282   0.150   2.106   8.274  0.1007 -1.1111  1.2707
 5363TIP3   OH240283   5.384   2.165   8.666 -0.0279 -0.0270 -0.1486
 5363TIP3    H140284   5.479   2.159   8.658 -0.1611 -1.3198 -1.0679
 5363TIP3    H240285   5.351   2.095   8.610 -1.5684  1.1180 -0.7240
 5364TIP3   OH240286   4.105   6.625   8.318  0.4179  0.1021 -0.5011
 5364TIP3    H140287   4.043   6.560   8.351  0.2145  1.0079  0.9881
 5364TIP3    H240288   4.053   6.704   8.304  0.6417 -0.0458 -2.4064
 5365TIP3   OH240289   7.374   1.193   8.977  0.0169  0.4562  0.0903
 5365TIP3    H140290   7.307   1.250   9.013  1.4830  0.9584  2.2081
 5365TIP3    H240291   7.370   1.207   8.882 -1.2137  2.2943  0.3762
 5366TIP3   OH240292   0.941   0.433   7.599 -0.1206  0.2640 -0.0196
 5366TIP3    H140293   0.998   0.356   7.601  0.1081  0.3742 -1.3684
 5366TIP3    H240294   0.856   0.401   7.631 -0.3170 -0.8287 -1.5149
 5367TIP3   OH240295   0.675   3.486   9.022 -0.3098  0.5343 -0.4085
 5367TIP3    H140296   0.763   3.508   9.053 -0.3417  0.4710 -0.2757
 5367TIP3    H240297   0.646   3.416   9.080  0.7272 -1.5357 -2.2384
 5368TIP3   OH240298   7.213   4.959   8.522 -0.7781  0.4349 -0.1594
 5368TIP3    H140299   7.256   4.983   8.440  0.0695 -0.1679  0.0937
 5368TIP3    H240300   7.124   4.936   8.497 -0.4461 -0.0043 -0.9534
 5369TIP3   OH240301   2.811   4.424   7.128 -0.2757 -0.1987  0.0185
 5369TIP3    H140302   2.726   4.397   7.093 -0.5552 -2.6815  2.2296
 5369TIP3    H240303   2.875   4.382   7.071 -0.5980 -0.1761 -0.3623
 5370TIP3   OH240304   3.425   4.014   8.703  0.7311 -0.4446  0.3401
 5370TIP3    H140305   3.338   3.981   8.722  0.9213 -0.8530  0.5123
 5370TIP3    H240306   3.458   3.959   8.632  1.1460 -0.7943  0.7968
 5371TIP3   OH240307   4.233   6.416   9.087  0.1126 -0.0375  0.4098
 5371TIP3    H140308   4.181   6.345   9.126  0.3411 -1.0955 -1.1169
 5371TIP3    H240309   4.185   6.495   9.111 -2.1218 -0.9536 -0.7233
 5372TIP3   OH240310   4.028   0.592   7.512 -0.0532 -0.0883  0.1403
 5372TIP3    H140311   4.082   0.581   7.590  0.9011  0.1908 -0.4633
 5372TIP3    H240312   4.023   0.687   7.500 -1.2743 -0.0780  0.5831
 5373TIP3   OH240313   3.562   7.374   6.868 -0.6312 -0.2881 -0.2930
 5373TIP3    H140314   3.498   7.333   6.810 -1.0406 -0.7231  0.4553
 5373TIP3    H240315   3.632   7.404   6.809 -0.8356 -1.0947 -0.9615
 5374TIP3   OH240316   2.867   1.195   7.238 -0.4024 -0.0397  0.1988
 5374TIP3    H140317   2.936   1.133   7.261 -1.8860 -1.0457  2.2014
 5374TIP3    H240318   2.812   1.147   7.176 -0.7141 -0.1941  0.5900
 5375TIP3   OH240319   7.036   2.094   7.623  0.1781 -0.5347  0.3175
 5375TIP3    H140320   6.986   2.082   7.542 -1.7341  1.6986  1.0486
 5375TIP3    H240321   7.067   2.006   7.646  0.5569 -1.2777 -2.6396
 5376TIP3   OH240322   2.923   0.209   8.186  0.4004  0.6367  0.3104
 5376TIP3    H140323   2.937   0.303   8.194 -0.7970  0.9506 -0.9642
 5376TIP3    H240324   2.999   0.170   8.230  1.5984  2.1807 -0.2702
 5377TIP3   OH240325   6.344   2.918   8.174 -0.1819 -0.2535  0.0734
 5377TIP3    H140326   6.430   2.883   8.153  0.6051  1.3403  0.4574
 5377TIP3    H240327   6.303   2.935   8.089  0.1682 -0.3561 -0.1166
 5378TIP3   OH240328   4.316   4.231   8.027  0.1054  0.0799  0.2877
 5378TIP3    H140329   4.387   4.249   7.966 -0.4719  2.8866  0.3265
 5378TIP3    H240330   4.313   4.308   8.084 -1.7373 -0.8269  1.5212
 5379TIP3   OH240331   3.437   6.010   7.548  0.2369  0.0433 -0.4274
 5379TIP3    H140332   3.426   6.025   7.454 -0.8382  3.2565  0.0914
 5379TIP3    H240333   3.526   6.041   7.566  0.4353 -0.5538 -0.3625
 5380TIP3   OH240334   6.542   2.133   7.235  0.3396 -0.0726  0.6944
 5380TIP3    H140335   6.560   2.193   7.307 -3.0403 -0.5604  2.1231
 5380TIP3    H240336   6.495   2.185   7.170 -0.5811 -0.5979  0.9135
 5381TIP3   OH240337   4.828   1.655   9.531  0.6469 -0.0483 -0.5238
 5381TIP3    H140338   4.843   1.560   9.530 -0.4194 -0.2476  0.7456
 5381TIP3    H240339   4.734   1.664   9.547  0.8553  1.2312  0.0553
 5382TIP3   OH240340   2.609   5.088   7.979  0.1286 -0.3787  0.0394
 5382TIP3    H140341   2.696   5.076   8.017  0.7590 -0.2440 -1.3013
 5382TIP3    H240342   2.597   5.183   7.976  0.8367 -0.2942 -1.6270
 5383TIP3   OH240343   4.470   1.842   6.920 -0.2076  0.0241 -0.4519
 5383TIP3    H140344   4.454   1.790   6.841  0.0331 -1.9459  0.7462
 5383TIP3    H240345   4.495   1.778   6.986  0.6354  1.7431  0.9607
 5384TIP3   OH240346   7.573   4.619   7.666 -0.4927  0.2160 -0.2024
 5384TIP3    H140347   7.585   4.606   7.571  0.7973 -0.3895  0.0214
 5384TIP3    H240348   7.576   4.714   7.677  0.0327  0.2664 -0.6979
 5385TIP3   OH240349   3.072   3.006   7.923 -0.0084 -0.2233  0.4903
 5385TIP3    H140350   3.048   3.042   8.008 -0.9978 -1.5794  0.8255
 5385TIP3    H240351   2.999   2.948   7.901  0.4055 -0.1784 -1.1181
 5386TIP3   OH240352   1.482   4.418   8.603 -0.1249  0.8407 -0.2933
 5386TIP3    H140353   1.416   4.486   8.612  1.1097  1.9330  0.7568
 5386TIP3    H240354   1.565   4.465   8.591  0.4702 -0.4914 -1.8799
 5387TIP3   OH240355   5.124   6.700   9.025  0.2338 -0.2794 -0.0804
 5387TIP3    H140356   5.141   6.655   8.942  0.5013  0.0753 -0.2212
 5387TIP3    H240357   5.031   6.687   9.041 -0.0072  0.3972 -0.8825
 5388TIP3   OH240358   3.348   0.198   7.094 -0.1894  0.6335 -0.5166
 5388TIP3    H140359   3.304   0.264   7.148 -0.3802  0.2753 -0.2349
 5388TIP3    H240360   3.314   0.114   7.126  1.3923  0.2895  0.3540
 5389TIP3   OH240361   4.842   4.761   7.733 -0.0175 -0.3705  0.2691
 5389TIP3    H140362   4.805   4.789   7.649 -1.0997 -0.0633  0.8305
 5389TIP3    H240363   4.898   4.835   7.759 -0.0750 -0.2495  0.0577
 5390TIP3   OH240364   0.487   3.027   8.362 -0.5934 -0.2801 -0.4604
 5390TIP3    H140365   0.396   3.020   8.391 -0.8331 -2.2142 -1.5417
 5390TIP3    H240366   0.514   2.937   8.347  0.7463  0.3910 -2.4397
 5391TIP3   OH240367   2.856   2.778   3.001  0.1372  0.6072 -0.6465
 5391TIP3    H140368   2.924   2.843   2.989  0.5945  0.2980  0.2292
 5391TIP3    H240369   2.810   2.804   3.081 -0.9162  0.9306 -1.3326
 5392TIP3   OH240370   5.784   6.339   2.582  0.0324  0.1346 -0.1831
 5392TIP3    H140371   5.795   6.280   2.508 -0.6531  0.4345 -0.5389
 5392TIP3    H240372   5.855   6.403   2.574  1.2348 -1.0448  0.6244
 5393TIP3   OH240373   6.855   5.194   2.052  0.0406  0.2223 -0.0502
 5393TIP3    H140374   6.832   5.239   1.970  2.1151  0.4370 -0.5652
 5393TIP3    H240375   6.944   5.224   2.071  0.0963 -0.8803  1.5683
 5394TIP3   OH240376   3.730   2.613   2.990 -0.3194  0.1945 -0.0095
 5394TIP3    H140377   3.760   2.569   3.070  2.5555  2.9778  0.6507
 5394TIP3    H240378   3.654   2.663   3.017  0.0202  0.3143  0.7532
 5395TIP3   OH240379   6.077   5.279   1.795  0.0165 -0.0508 -0.4385
 5395TIP3    H140380   6.166   5.270   1.760 -0.0320 -0.1469 -0.5395
 5395TIP3    H240381   6.020   5.267   1.719 -0.0759  0.3098 -0.4275
 5396TIP3   OH240382   2.798   3.946   2.954  0.3625  0.3520 -0.5575
 5396TIP3    H140383   2.822   3.942   3.047 -0.0049  0.7664 -0.4348
 5396TIP3    H240384   2.878   3.976   2.910  0.3474  0.8236 -0.2794
 5397TIP3   OH240385   6.092   6.375   1.390 -0.0056  0.5574 -0.1494
 5397TIP3    H140386   6.107   6.370   1.484  1.4925 -1.9895 -0.4342
 5397TIP3    H240387   6.069   6.467   1.374  0.9954  1.3556  2.4951
 5398TIP3   OH240388   1.853   3.135   2.493  0.3944  0.2054  0.1191
 5398TIP3    H140389   1.848   3.231   2.493 -1.5579  0.1791  1.4740
 5398TIP3    H240390   1.829   3.109   2.405 -1.9152  0.9600  0.4554
 5399TIP3   OH240391   3.494   4.628   2.162  0.0159 -0.1447 -0.4223
 5399TIP3    H140392   3.535   4.619   2.248  0.3925  0.0630 -0.5818
 5399TIP3    H240393   3.412   4.578   2.170  1.0362 -1.9256 -0.6126
 5400TIP3   OH240394   3.871   3.613   1.201 -0.4985 -0.0617  0.1139
 5400TIP3    H140395   3.789   3.579   1.236  0.3201 -0.6550  1.5497
 5400TIP3    H240396   3.867   3.595   1.107 -1.2602 -1.7207  0.4262
 5401TIP3   OH240397   7.354   7.470   2.015 -0.1212  0.6189  0.1115
 5401TIP3    H140398   7.366   7.449   1.922  0.9886 -0.0878  0.4033
 5401TIP3    H240399   7.420   7.537   2.033  0.9006 -0.5236  0.7977
 5402TIP3   OH240400   2.328   1.055   2.829 -0.0407 -0.6584 -0.0168
 5402TIP3    H140401   2.260   1.113   2.796  0.0742 -0.1644  0.6061
 5402TIP3    H240402   2.405   1.111   2.839  0.6468 -1.3378 -1.3022
 5403TIP3   OH240403   6.931   4.628   2.693 -0.1246  0.1956 -0.1820
 5403TIP3    H140404   7.000   4.590   2.748  0.8424  1.4785 -0.4594
 5403TIP3    H240405   6.852   4.621   2.747  0.5064  0.0581  0.7643
 5404TIP3   OH240406   4.678   4.591   1.742  0.0343 -0.2186  0.2484
 5404TIP3    H140407   4.589   4.602   1.708  0.2848 -0.0964 -0.3838
 5404TIP3    H240408   4.700   4.501   1.722  0.8345  0.3336 -1.5387
 5405TIP3   OH240409   2.520   2.803   1.540  0.3919 -0.5364  0.4973
 5405TIP3    H140410   2.562   2.747   1.475  1.9960  0.2727  0.7661
 5405TIP3    H240411   2.536   2.893   1.509 -0.2819 -0.1791  1.1463
 5406TIP3   OH240412   4.955   0.510   3.034  0.4622  0.8576  0.6743
 5406TIP3    H140413   5.001   0.443   2.983  0.0791  2.3409 -1.7760
 5406TIP3    H240414   5.015   0.530   3.106  0.9409 -1.4586  1.0111
 5407TIP3   OH240415   7.100   2.760   0.588  0.1691  0.4418  0.8605
 5407TIP3    H140416   7.079   2.697   0.519 -0.5590 -0.3177  1.7307
 5407TIP3    H240417   7.170   2.718   0.638  1.9271  1.7417 -0.3792
 5408TIP3   OH240418   3.830   4.160   2.053 -0.0253 -0.0285 -0.1620
 5408TIP3    H140419   3.739   4.161   2.025 -0.4244 -0.4984  1.0482
 5408TIP3    H240420   3.880   4.144   1.973 -0.8406  2.0527 -1.1732
 5409TIP3   OH240421   1.691   5.652   2.763 -0.2834 -0.2896 -0.4525
 5409TIP3    H140422   1.691   5.746   2.745 -0.9873 -0.1432  0.2719
 5409TIP3    H240423   1.705   5.611   2.677  0.4750  0.4766 -0.7045
 5410TIP3   OH240424   5.953   0.427   0.780  0.3152  0.4216  0.1788
 5410TIP3    H140425   5.913   0.387   0.857 -0.4120  0.6457 -0.0713
 5410TIP3    H240426   6.032   0.375   0.764  0.4454  0.3395  1.0331
 5411TIP3   OH240427   1.409   2.952   3.396  0.6019 -0.2941 -0.4537
 5411TIP3    H140428   1.354   3.019   3.435 -0.8011 -1.4180 -0.4082
 5411TIP3    H240429   1.446   2.993   3.319 -0.7611  0.3543 -0.7944
 5412TIP3   OH240430   4.820   6.687   0.765 -0.0194  0.4447 -0.2963
 5412TIP3    H140431   4.903   6.647   0.742  0.5401  0.8493  0.9362
 5412TIP3    H240432   4.767   6.681   0.686 -0.3192 -3.4769  0.0114
 5413TIP3   OH240433   4.739   5.463   0.988  0.2064 -0.1923 -0.1624
 5413TIP3    H140434   4.805   5.465   1.058 -1.6049  1.0839  1.6360
 5413TIP3    H240435   4.664   5.420   1.028 -1.0698  1.0491 -1.1501
 5414TIP3   OH240436   6.164   3.852   1.426 -0.6367 -0.7612  0.7375
 5414TIP3    H140437   6.191   3.810   1.344 -0.7484  0.9265 -0.2215
 5414TIP3    H240438   6.158   3.781   1.489 -0.1826 -2.0639 -0.6309
 5415TIP3   OH240439   0.604   7.441   1.844  0.0403  0.5251 -0.3453
 5415TIP3    H140440   0.552   7.411   1.769  0.5175 -1.5803  0.1107
 5415TIP3    H240441   0.539   7.456   1.913 -0.1431 -0.6446 -0.2362
 5416TIP3   OH240442   0.492   4.435   3.226  0.4774 -0.2642 -0.4569
 5416TIP3    H140443   0.426   4.493   3.265  0.2238 -1.1729  0.5289
 5416TIP3    H240444   0.558   4.494   3.191  0.4491  0.6240  0.9131
 5417TIP3   OH240445   2.144   1.992   1.962  0.2628  0.1592 -0.3849
 5417TIP3    H140446   2.106   1.924   1.906 -1.8362 -1.4357  2.6607
 5417TIP3    H240447   2.168   1.945   2.042  1.6199  2.5465  0.6922
 5418TIP3   OH240448   3.618   2.323   2.987 -0.3329 -0.0357  0.5473
 5418TIP3    H140449   3.536   2.363   3.017  0.4692  0.9004  1.5749
 5418TIP3    H240450   3.663   2.298   3.068  1.3585  1.4568  0.1216
 5419TIP3   OH240451   1.152   4.014   1.382 -0.1507  0.0714 -0.2486
 5419TIP3    H140452   1.188   4.070   1.452 -0.5935 -1.2439  1.0879
 5419TIP3    H240453   1.163   4.066   1.302  0.1608  1.7426  0.8182
 5420TIP3   OH240454   4.736   6.205   2.378 -0.3051 -0.7742  0.1242
 5420TIP3    H140455   4.754   6.168   2.464 -1.6962  0.2558  0.8858
 5420TIP3    H240456   4.813   6.182   2.325  1.9778  1.0898  2.4064
 5421TIP3   OH240457   6.037   4.432   1.612  0.2160  0.4636  0.4127
 5421TIP3    H140458   6.063   4.523   1.627  0.1127  0.3397  1.4155
 5421TIP3    H240459   6.081   4.383   1.682 -2.4302  0.1941  2.0236
 5422TIP3   OH240460   3.738   2.441   1.172  0.0432  0.4402  0.1063
 5422TIP3    H140461   3.736   2.353   1.135 -0.3061  1.1132 -1.6032
 5422TIP3    H240462   3.816   2.442   1.227  0.4529 -0.7226 -0.4082
 5423TIP3   OH240463   4.199   0.489   1.437 -0.2595  0.6174  0.3263
 5423TIP3    H140464   4.219   0.565   1.490 -2.6080  1.8046 -0.3519
 5423TIP3    H240465   4.104   0.481   1.440 -0.1163 -4.7688  3.6808
 5424TIP3   OH240466   1.716   3.389   1.859 -0.0988 -0.0738  0.0524
 5424TIP3    H140467   1.728   3.423   1.770 -1.8416  1.8936  0.4958
 5424TIP3    H240468   1.793   3.420   1.906  0.6676 -0.8376 -0.6505
 5425TIP3   OH240469   4.498   0.297   1.156 -0.2883  0.3830  0.5415
 5425TIP3    H140470   4.512   0.381   1.200 -1.4509  1.0077 -0.2600
 5425TIP3    H240471   4.507   0.232   1.227  0.0908  1.2028  1.2668
 5426TIP3   OH240472   5.804   1.209   1.079  0.0858 -0.1134  0.0498
 5426TIP3    H140473   5.726   1.173   1.121  0.7122 -1.5671  0.0387
 5426TIP3    H240474   5.786   1.303   1.071 -2.0205 -0.5287 -0.7353
 5427TIP3   OH240475   1.597   7.171   2.844  0.0041  0.0241 -0.2865
 5427TIP3    H140476   1.665   7.236   2.865 -0.6777  1.4266 -2.1465
 5427TIP3    H240477   1.645   7.097   2.808  0.6119  1.2131 -2.0953
 5428TIP3   OH240478   1.407   0.126   1.429 -0.3430  0.1066  0.4886
 5428TIP3    H140479   1.369   0.075   1.357 -0.1836  0.9222 -0.1861
 5428TIP3    H240480   1.372   0.214   1.417  3.3323  1.5271 -1.5087
 5429TIP3   OH240481   3.385   2.273   2.493 -0.1928 -0.8454 -0.1565
 5429TIP3    H140482   3.410   2.206   2.557  2.1067  1.0681  1.1035
 5429TIP3    H240483   3.459   2.279   2.433  0.4752  1.6713  0.7848
 5430TIP3   OH240484   2.674   0.601   2.144  0.0281  0.3008  0.5254
 5430TIP3    H140485   2.653   0.563   2.059  0.1757 -0.1045  0.6667
 5430TIP3    H240486   2.590   0.634   2.176  0.0786  0.9844 -0.0298
 5431TIP3   OH240487   4.626   3.845   1.705  0.0371  0.3986 -0.0836
 5431TIP3    H140488   4.578   3.863   1.624  0.7984  1.7289 -0.2637
 5431TIP3    H240489   4.714   3.822   1.676  0.1395  0.2395  0.3420
 5432TIP3   OH240490   3.191   3.111   2.166  0.5995  0.0443 -0.1179
 5432TIP3    H140491   3.169   3.141   2.078  1.9107  0.0184 -0.4710
 5432TIP3    H240492   3.197   3.192   2.218  1.9336  0.2502 -0.5592
 5433TIP3   OH240493   4.383   3.761   2.752  0.0984  0.4338 -0.0395
 5433TIP3    H140494   4.353   3.733   2.838 -1.4957 -0.8107 -0.9378
 5433TIP3    H240495   4.435   3.687   2.720  1.0613  1.0728  0.0110
 5434TIP3   OH240496   0.619   0.758   2.374 -0.3392  0.2489 -0.3477
 5434TIP3    H140497   0.670   0.741   2.454 -0.5508 -1.3154 -0.5048
 5434TIP3    H240498   0.569   0.677   2.361 -0.2721  0.4592 -2.0832
 5435TIP3   OH240499   0.037   3.673   1.777 -0.6078  0.5502 -0.1145
 5435TIP3    H140500   0.052   3.685   1.684  2.6766  1.7490  0.4343
 5435TIP3    H240501   0.096   3.601   1.802 -1.2476  0.4107  1.0639
 5436TIP3   OH240502   4.849   0.285   1.300  0.8593  0.0211 -0.1281
 5436TIP3    H140503   4.803   0.345   1.359 -1.4012 -1.7272  0.0088
 5436TIP3    H240504   4.844   0.200   1.344  2.7175 -0.5980 -0.9911
 5437TIP3   OH240505   5.591   7.530   2.909  0.6359  0.0639  0.1778
 5437TIP3    H140506   5.597   7.522   3.004  1.5333 -0.8516  0.0561
 5437TIP3    H240507   5.530   7.603   2.895 -0.1106 -0.2839  1.4401
 5438TIP3   OH240508   4.282   0.298   0.967  0.1996 -0.4735 -0.4077
 5438TIP3    H140509   4.347   0.277   0.899  0.2133  1.3107 -0.9891
 5438TIP3    H240510   4.335   0.311   1.046  0.8287  2.4576 -1.1914
 5439TIP3   OH240511   4.892   4.519   1.113  0.4853  0.4137 -0.3714
 5439TIP3    H140512   4.949   4.591   1.085  2.8852 -0.7997  1.0190
 5439TIP3    H240513   4.928   4.442   1.068 -1.9450 -0.0205 -1.7308
 5440TIP3   OH240514   4.886   2.482   2.773 -0.1040 -0.4208 -0.0424
 5440TIP3    H140515   4.929   2.558   2.734  0.7885  0.1874  1.9922
 5440TIP3    H240516   4.882   2.502   2.866  0.3720 -2.9867  0.5951
 5441TIP3   OH240517   7.156   0.724   2.291  0.4657 -0.0816 -0.1703
 5441TIP3    H140518   7.241   0.684   2.313  0.6797  1.1187  1.4596
 5441TIP3    H240519   7.129   0.767   2.372 -1.5497 -0.1153 -0.7687
 5442TIP3   OH240520   4.782   0.900   2.661  0.3426 -0.3043  0.7015
 5442TIP3    H140521   4.759   0.993   2.656 -0.0551 -0.2963  2.0402
 5442TIP3    H240522   4.704   0.859   2.700  1.3885 -0.7869  2.3998
 5443TIP3   OH240523   4.543   2.094   2.220 -0.0052 -0.1705 -0.6331
 5443TIP3    H140524   4.635   2.069   2.229 -0.5567 -2.0292  0.2193
 5443TIP3    H240525   4.496   2.011   2.215 -1.5159  0.7077 -2.8001
 5444TIP3   OH240526   3.568   1.902   0.909  0.7074  0.2477 -0.1816
 5444TIP3    H140527   3.600   1.938   0.826  0.5763 -1.9859 -1.2924
 5444TIP3    H240528   3.475   1.889   0.895  0.2897  1.6753  1.0794
 5445TIP3   OH240529   2.320   4.424   2.276 -0.4020  0.2650  0.1066
 5445TIP3    H140530   2.339   4.471   2.358 -2.5795  0.1663  0.7404
 5445TIP3    H240531   2.376   4.347   2.279 -0.3960  0.2920  1.4958
 5446TIP3   OH240532   6.858   0.357   3.471  0.0040  0.0461 -0.3826
 5446TIP3    H140533   6.773   0.345   3.513 -0.6527 -1.6559 -2.0701
 5446TIP3    H240534   6.905   0.275   3.486  0.8386  0.4773 -0.5829
 5447TIP3   OH240535   7.164   4.411   1.030 -0.3427 -0.8473 -0.0573
 5447TIP3    H140536   7.199   4.389   1.116  2.3950 -1.0941 -1.1419
 5447TIP3    H240537   7.070   4.392   1.037 -0.1030 -1.4646  2.6421
 5448TIP3   OH240538   0.929   2.711   3.202  0.1280 -0.1749 -0.1315
 5448TIP3    H140539   0.994   2.711   3.272  0.2373  0.4701 -0.2258
 5448TIP3    H240540   0.860   2.653   3.233  0.1278  0.1874  0.5618
 5449TIP3   OH240541   0.405   6.125   1.796 -0.6690  0.0545  0.0575
 5449TIP3    H140542   0.326   6.084   1.758  0.0898 -1.3798 -0.0474
 5449TIP3    H240543   0.477   6.070   1.765 -0.0256 -1.8176  4.1932
 5450TIP3   OH240544   4.372   4.385   3.001 -0.8613  0.0434  0.5328
 5450TIP3    H140545   4.383   4.347   2.914  0.5253  1.5128  0.0193
 5450TIP3    H240546   4.286   4.426   2.999 -1.1505 -0.5714  0.1274
 5451TIP3   OH240547   1.310   6.035   1.391  0.0902 -0.1501 -0.2490
 5451TIP3    H140548   1.387   6.069   1.345 -1.2320  1.4278 -1.4070
 5451TIP3    H240549   1.334   5.945   1.413  1.1141 -0.7986 -3.4499
 5452TIP3   OH240550   3.683   1.982   1.142  0.1592  0.3778 -1.1752
 5452TIP3    H140551   3.709   2.073   1.132 -1.1444  0.8055 -0.8948
 5452TIP3    H240552   3.658   1.954   1.054  0.5569  0.2946 -1.2606
 5453TIP3   OH240553   6.898   5.503   1.635 -0.2435 -0.2014 -0.2962
 5453TIP3    H140554   6.820   5.495   1.581 -1.0898 -1.0097  0.9794
 5453TIP3    H240555   6.886   5.585   1.683 -0.8860 -0.8561  0.7132
 5454TIP3   OH240556   3.119   3.133   2.721 -0.2390  0.0024  0.1822
 5454TIP3    H140557   3.045   3.181   2.686 -0.2532  0.4326  0.7758
 5454TIP3    H240558   3.089   3.042   2.728  0.3786 -0.4941 -2.6323
 5455TIP3   OH240559   3.168   2.189   2.249 -0.4304  0.2262 -0.1824
 5455TIP3    H140560   3.237   2.187   2.315 -1.6653 -0.2604  1.1428
 5455TIP3    H240561   3.215   2.190   2.166  1.1814  1.5065  0.6766
 5456TIP3   OH240562   5.875   0.605   0.600 -0.1365 -0.0362  0.6344
 5456TIP3    H140563   5.961   0.596   0.558 -1.0821 -0.6518 -1.2726
 5456TIP3    H240564   5.875   0.539   0.669 -0.0400 -1.9313 -1.1004
 5457TIP3   OH240565   6.366   6.097   0.835  0.5738 -0.3872 -0.0161
 5457TIP3    H140566   6.419   6.090   0.915  1.1427  0.5397 -0.2925
 5457TIP3    H240567   6.364   6.191   0.817 -0.1998 -0.5241 -0.6675
 5458TIP3   OH240568   0.155   0.303   1.488  0.2480 -0.2918  0.1488
 5458TIP3    H140569   0.209   0.228   1.514  1.2928 -0.2882 -1.7640
 5458TIP3    H240570   0.206   0.379   1.515 -0.5567 -0.2427  1.6015
 5459TIP3   OH240571   0.222   0.028   2.964 -0.3171  0.2552 -0.3794
 5459TIP3    H140572   0.201   0.073   3.046  0.3192  0.3717 -0.2712
 5459TIP3    H240573   0.315   0.047   2.950 -0.9134  2.1447 -2.3138
 5460TIP3   OH240574   4.850   6.550   1.231  0.1435  0.3423 -0.1023
 5460TIP3    H140575   4.837   6.455   1.225  0.3183  0.3979 -2.0280
 5460TIP3    H240576   4.762   6.585   1.244 -0.2308  0.0174 -1.5551
 5461TIP3   OH240577   0.374   4.967   1.438  0.1636 -0.2696 -0.2602
 5461TIP3    H140578   0.426   4.888   1.424  0.6449  0.3929 -2.5566
 5461TIP3    H240579   0.425   5.037   1.398 -1.7394  0.6742 -1.1867
 5462TIP3   OH240580   4.850   2.125   1.102 -0.7611 -0.5843  0.0853
 5462TIP3    H140581   4.901   2.053   1.139 -1.0392 -0.1138  1.4352
 5462TIP3    H240582   4.911   2.199   1.102 -1.3379 -0.0843  1.4709
 5463TIP3   OH240583   5.323   2.991   1.410 -0.0446  0.7259 -0.0495
 5463TIP3    H140584   5.348   2.899   1.422 -1.5390  0.2065 -0.7334
 5463TIP3    H240585   5.364   3.015   1.326  0.7504  0.8513  0.3621
 5464TIP3   OH240586   6.358   2.876   2.303 -0.1297 -0.0617 -0.1333
 5464TIP3    H140587   6.454   2.877   2.301 -0.1205 -0.4483 -2.1697
 5464TIP3    H240588   6.335   2.796   2.255 -1.4810 -0.9112  1.8238
 5465TIP3   OH240589   5.201   0.450   0.812  0.0084  0.6842 -0.5690
 5465TIP3    H140590   5.253   0.391   0.866 -0.8253  0.3294 -0.1199
 5465TIP3    H240591   5.160   0.509   0.875 -1.5184 -0.1650 -0.7023
 5466TIP3   OH240592   7.627   7.331   0.523  0.4452  0.6581  0.0985
 5466TIP3    H140593   7.541   7.367   0.500  0.2030  0.3510  0.4956
 5466TIP3    H240594   7.660   7.389   0.591 -1.2783 -1.4572  2.9861
 5467TIP3   OH240595   5.906   4.462   0.729 -0.2266 -0.3183  0.5354
 5467TIP3    H140596   5.823   4.507   0.715  1.3001  2.3251 -0.7764
 5467TIP3    H240597   5.932   4.487   0.818 -0.1937 -0.0052  0.4389
 5468TIP3   OH240598   6.636   6.677   1.776  0.3452  0.2745 -0.2227
 5468TIP3    H140599   6.561   6.672   1.716 -0.3822  2.6809  0.3727
 5468TIP3    H240600   6.713   6.676   1.718 -0.2481  0.3908 -1.0377
 5469TIP3   OH240601   6.065   2.975   1.275  0.8023  0.0470 -0.2041
 5469TIP3    H140602   5.991   2.948   1.221 -0.7981  0.7611  1.5498
 5469TIP3    H240603   6.097   3.055   1.233 -0.7368  0.8762  0.1412
 5470TIP3   OH240604   0.782   3.372   1.800  0.0420 -0.4952 -0.1932
 5470TIP3    H140605   0.828   3.292   1.824  2.7958  0.5280 -1.5665
 5470TIP3    H240606   0.847   3.441   1.813 -1.1852  1.1153 -2.0456
 5471TIP3   OH240607   1.473   3.391   3.698  0.4651 -0.0404 -0.2703
 5471TIP3    H140608   1.402   3.382   3.762  1.0590  0.4845  0.4934
 5471TIP3    H240609   1.535   3.322   3.721 -0.5707 -1.6421 -2.0377
 5472TIP3   OH240610   3.150   0.756   1.974  0.6119 -0.0146  0.2154
 5472TIP3    H140611   3.238   0.734   2.003 -0.5515 -2.5975  2.1738
 5472TIP3    H240612   3.100   0.676   1.986 -2.0578  1.3994 -0.6711
 5473TIP3   OH240613   3.518   5.130   1.885 -0.2672  0.3683 -0.2242
 5473TIP3    H140614   3.510   5.159   1.794 -2.8648  2.6688  0.5827
 5473TIP3    H240615   3.437   5.160   1.926  1.2591  0.3381  3.0915
 5474TIP3   OH240616   4.765   5.803   1.766 -0.4099  0.5008 -0.2483
 5474TIP3    H140617   4.708   5.731   1.742 -0.5234  0.8528 -1.0917
 5474TIP3    H240618   4.844   5.790   1.713 -0.5444  1.1401 -0.6210
 5475TIP3   OH240619   3.740   2.642   1.004  0.6068  0.1602  0.2660
 5475TIP3    H140620   3.747   2.564   1.060 -5.3246 -1.3127 -0.3118
 5475TIP3    H240621   3.716   2.608   0.918 -0.9408  2.5109 -0.3311
 5476TIP3   OH240622   3.317   7.259   2.592  0.2258 -0.2184 -0.3973
 5476TIP3    H140623   3.278   7.315   2.525  1.1314 -0.0493 -0.7929
 5476TIP3    H240624   3.379   7.315   2.638 -3.0589  0.8452  3.2403
 5477TIP3   OH240625   1.142   4.309   0.790  0.1650 -0.2895 -0.1990
 5477TIP3    H140626   1.114   4.239   0.730  1.9580 -0.5631 -0.7788
 5477TIP3    H240627   1.066   4.324   0.846 -1.1107 -0.9866 -1.6527
 5478TIP3   OH240628   5.692   3.250   2.547  0.0195 -0.3013 -0.3420
 5478TIP3    H140629   5.667   3.160   2.528  0.7850 -0.3260 -1.3021
 5478TIP3    H240630   5.670   3.300   2.468  1.3398 -0.0161 -0.5612
 5479TIP3   OH240631   6.707   2.683   1.844 -0.1842 -0.4686  0.1639
 5479TIP3    H140632   6.715   2.775   1.817 -1.0987 -0.6774 -0.9071
 5479TIP3    H240633   6.797   2.651   1.847  0.0787  0.1418 -0.6714
 5480TIP3   OH240634   7.065   4.202   1.726 -0.1623 -0.0420  0.9841
 5480TIP3    H140635   7.018   4.160   1.798 -0.1211 -1.7770  0.0555
 5480TIP3    H240636   6.997   4.229   1.665 -0.0720 -2.4820 -0.3223
 5481TIP3   OH240637   6.512   3.812   0.661 -0.0998  0.4275 -0.0580
 5481TIP3    H140638   6.521   3.716   0.660 -0.5498  0.3783  0.4069
 5481TIP3    H240639   6.602   3.844   0.661  0.0582 -0.0036  0.1402
 5482TIP3   OH240640   4.666   0.623   2.747  0.1436  0.7555 -0.3791
 5482TIP3    H140641   4.681   0.528   2.741  2.2237  1.0782 -0.7711
 5482TIP3    H240642   4.570   0.632   2.740  0.0249 -1.1727 -2.6870
 5483TIP3   OH240643   6.965   1.443   1.060 -0.3501  0.7784 -0.6165
 5483TIP3    H140644   6.923   1.527   1.050  0.7297  1.1734 -2.1703
 5483TIP3    H240645   7.047   1.463   1.106 -0.4692  0.4511 -0.2567
 5484TIP3   OH240646   7.625   2.825   1.658  0.9311  0.2549 -0.1057
 5484TIP3    H140647   7.619   2.826   1.754 -0.1983  2.2592 -0.1537
 5484TIP3    H240648   7.588   2.741   1.633 -0.9174  0.6438  1.1346
 5485TIP3   OH240649   4.304   7.644   3.247 -0.0388 -0.2526 -0.5104
 5485TIP3    H140650   4.337   7.734   3.249  0.4278 -0.4320  0.7068
 5485TIP3    H240651   4.212   7.653   3.223 -0.3701  0.6874  0.9579
 5486TIP3   OH240652   4.574   5.497   2.325 -0.0665 -0.1672  0.4399
 5486TIP3    H140653   4.562   5.410   2.364  0.1553 -0.9218 -1.1091
 5486TIP3    H240654   4.491   5.541   2.341  0.1088 -0.3166  2.0002
 5487TIP3   OH240655   5.853   1.894   2.642  0.1464  0.0057 -0.1288
 5487TIP3    H140656   5.789   1.849   2.697  0.2547  0.4530  0.3680
 5487TIP3    H240657   5.937   1.863   2.673  0.1960 -0.0298 -0.2978
 5488TIP3   OH240658   0.007   0.864   1.992 -0.1798 -0.6896  0.2009
 5488TIP3    H140659  -0.016   0.945   2.039  0.5388 -2.1163  3.2469
 5488TIP3    H240660  -0.063   0.803   2.014  0.4642 -1.5770 -0.1703
 5489TIP3   OH240661   5.273   6.041   3.080  0.1263  0.0289  0.0173
 5489TIP3    H140662   5.219   6.035   3.158 -0.4167 -0.3562 -0.3741
 5489TIP3    H240663   5.356   6.078   3.110 -0.0777 -0.1093  0.7665
 5490TIP3   OH240664   4.472   5.205   2.767  0.0418 -0.1084 -0.2861
 5490TIP3    H140665   4.565   5.204   2.791  0.0937  1.9425 -0.2125
 5490TIP3    H240666   4.471   5.187   2.673  0.5701  0.4307 -0.4004
 5491TIP3   OH240667   2.545   3.615   1.920  0.1110  0.4151  0.0022
 5491TIP3    H140668   2.551   3.613   1.824  1.0968 -0.8576  0.0576
 5491TIP3    H240669   2.492   3.692   1.939  0.6594  1.2273 -1.5286
 5492TIP3   OH240670   0.712   4.727   1.170  0.5979 -0.1278  0.3253
 5492TIP3    H140671   0.795   4.684   1.153  0.0145 -0.9288 -0.6473
 5492TIP3    H240672   0.735   4.809   1.215  1.7978 -0.9443  1.2432
 5493TIP3   OH240673   4.401   4.720   2.674  0.4415 -0.1017  0.6331
 5493TIP3    H140674   4.361   4.737   2.759  1.4337  1.4108  0.8411
 5493TIP3    H240675   4.329   4.688   2.619 -0.9118  1.7460  1.2056
 5494TIP3   OH240676   7.404   3.719   1.741  0.2908 -0.1071 -0.2143
 5494TIP3    H140677   7.488   3.765   1.740  0.4119 -0.3166 -1.4233
 5494TIP3    H240678   7.372   3.726   1.651 -1.3041  0.5349  0.3790
 5495TIP3   OH240679   5.586   7.653   2.365  0.2631 -0.7805 -0.0802
 5495TIP3    H140680   5.624   7.584   2.419 -1.0146 -1.8061 -0.4629
 5495TIP3    H240681   5.565   7.611   2.282 -2.3824 -0.5123  0.3515
 5496TIP3   OH240682   2.054   3.664   2.100  0.3149 -0.1866 -0.5986
 5496TIP3    H140683   2.111   3.667   2.176  0.9141  0.2513 -1.0523
 5496TIP3    H240684   1.965   3.666   2.135  0.5808 -0.6524  0.1084
 5497TIP3   OH240685   0.251   1.866   1.552  0.0935  0.6395  0.0136
 5497TIP3    H140686   0.301   1.830   1.625  0.2211  0.7945  0.0031
 5497TIP3    H240687   0.257   1.961   1.563 -1.5035  0.6919  0.9148
 5498TIP3   OH240688   6.750   0.506   3.216 -0.3315  0.2325 -0.2662
 5498TIP3    H140689   6.712   0.576   3.269  0.1921 -0.1015  0.5746
 5498TIP3    H240690   6.805   0.457   3.277  0.5621  0.0374 -1.2003
 5499TIP3   OH240691   7.072   0.686   1.765 -0.0326  0.2606  0.3992
 5499TIP3    H140692   7.119   0.635   1.831  0.1657  0.9268  0.7825
 5499TIP3    H240693   7.121   0.768   1.759 -0.3159  0.3841 -0.2429
 5500TIP3   OH240694   0.811   5.319   0.495 -0.4205  0.1440 -0.0794
 5500TIP3    H140695   0.802   5.353   0.406  1.1244 -0.4595 -0.4954
 5500TIP3    H240696   0.905   5.304   0.506 -0.5199  0.6448  1.8274
 5501TIP3   OH240697   2.294   0.713   0.774 -0.0025  0.1975  0.2824
 5501TIP3    H140698   2.297   0.680   0.684  0.9062 -0.8930  0.6946
 5501TIP3    H240699   2.201   0.716   0.796 -0.1757 -0.4882 -0.3397
 5502TIP3   OH240700   1.421   4.093   2.586 -0.0181  0.4722  0.2415
 5502TIP3    H140701   1.485   4.163   2.573 -1.2519  1.2794 -2.2432
 5502TIP3    H240702   1.342   4.139   2.618 -0.2325 -0.0889  0.5274
 5503TIP3   OH240703   7.001   1.958   0.809 -0.5365 -0.5846  0.1080
 5503TIP3    H140704   6.996   1.925   0.899 -0.6615  1.2282  0.7979
 5503TIP3    H240705   6.935   2.026   0.805  0.7255  0.6404 -0.7909
 5504TIP3   OH240706   4.539   4.971   3.026  0.0415 -0.2104 -0.1533
 5504TIP3    H140707   4.548   5.059   3.062 -2.0105 -0.3606  0.8492
 5504TIP3    H240708   4.584   4.975   2.941  0.2103  1.7129 -0.0136
 5505TIP3   OH240709   7.187   5.194   2.921 -0.1515 -0.6394  0.2137
 5505TIP3    H140710   7.142   5.122   2.877 -1.2072  0.9978 -1.5455
 5505TIP3    H240711   7.117   5.250   2.954  0.4551  1.4736 -1.7616
 5506TIP3   OH240712   1.489   0.668   2.822 -0.3296  0.4967 -0.1179
 5506TIP3    H140713   1.424   0.647   2.889  0.6014 -1.2449  0.3144
 5506TIP3    H240714   1.467   0.756   2.793 -0.7736  1.3156  2.4909
 5507TIP3   OH240715   4.192   2.931   2.965  0.1863 -0.1811 -0.2374
 5507TIP3    H140716   4.234   3.017   2.959  0.0959 -0.1666 -0.7501
 5507TIP3    H240717   4.100   2.950   2.982  0.1594 -0.1757 -0.3898
 5508TIP3   OH240718   3.045   7.041   1.755  0.0016 -0.1829  0.2314
 5508TIP3    H140719   3.045   7.104   1.828 -0.4912 -1.0217  0.9659
 5508TIP3    H240720   2.964   6.992   1.765 -0.9950  0.8855 -1.9672
 5509TIP3   OH240721   7.590   1.848   3.508  0.0687 -0.1143 -0.1821
 5509TIP3    H140722   7.511   1.875   3.461  0.4724 -0.4296 -1.0608
 5509TIP3    H240723   7.661   1.897   3.465  0.1342  1.9319  2.0394
 5510TIP3   OH240724   1.418   1.908   2.267  0.4347 -0.2967 -0.3627
 5510TIP3    H140725   1.454   1.884   2.352 -0.6118 -1.8336 -0.3112
 5510TIP3    H240726   1.489   1.955   2.223  1.7463 -1.3785  0.5275
 5511TIP3   OH240727   1.341   3.792   2.189  0.1288 -0.2110  0.0892
 5511TIP3    H140728   1.327   3.747   2.272  0.2495  0.0056  0.2284
 5511TIP3    H240729   1.257   3.833   2.169 -0.5816 -2.0624 -1.0058
 5512TIP3   OH240730   0.265   0.759   1.940  0.2900 -0.3148 -0.0736
 5512TIP3    H140731   0.188   0.799   1.981  0.5089  0.1274 -0.0906
 5512TIP3    H240732   0.231   0.680   1.898 -0.5294  0.8559 -1.7257
 5513TIP3   OH240733   6.683   4.475   3.142  0.2717 -0.0707 -0.3683
 5513TIP3    H140734   6.640   4.490   3.227 -1.3644 -1.0377 -0.9572
 5513TIP3    H240735   6.733   4.394   3.155  1.3498  0.6676  0.1231
 5514TIP3   OH240736   6.456   0.121   1.682  0.5096 -0.1871 -0.1744
 5514TIP3    H140737   6.489   0.205   1.714 -1.8776  0.8073 -0.0641
 5514TIP3    H240738   6.505   0.055   1.731  0.7996  1.2083  1.5289
 5515TIP3   OH240739   4.094   1.561   2.506  0.5015 -0.3555 -0.1372
 5515TIP3    H140740   4.104   1.486   2.564  2.2969 -0.7532 -0.8814
 5515TIP3    H240741   4.014   1.604   2.535  0.2350 -1.7205  1.2558
 5516TIP3   OH240742   5.974   4.557   1.991  0.2717 -0.3714 -0.1077
 5516TIP3    H140743   5.921   4.616   1.938  0.4016 -1.0558 -1.0262
 5516TIP3    H240744   6.060   4.600   1.997 -0.0587  0.2297  0.4914
 5517TIP3   OH240745   1.930   4.726   7.943 -0.3506 -0.0074  0.5428
 5517TIP3    H140746   2.003   4.787   7.958 -0.1593 -0.0214 -0.2699
 5517TIP3    H240747   1.960   4.671   7.870 -1.2573  0.1241  0.0619
 5518TIP3   OH240748   0.791   6.639   1.330 -0.0665 -0.1410 -0.2427
 5518TIP3    H140749   0.741   6.611   1.253  0.3375  0.1514 -0.6179
 5518TIP3    H240750   0.824   6.726   1.307 -0.9755  0.4852  0.7602
 5519TIP3   OH240751   6.826   0.718   3.394  0.3035 -0.5781 -0.0652
 5519TIP3    H140752   6.895   0.653   3.382  0.2082 -1.0366  1.6844
 5519TIP3    H240753   6.873   0.799   3.416  0.3079 -1.2513  2.7056
 5520TIP3   OH240754   6.247   6.320   1.972  0.2612 -0.5587  0.1206
 5520TIP3    H140755   6.190   6.362   2.036  1.7250  0.4929  0.7939
 5520TIP3    H240756   6.325   6.376   1.968  0.9046 -1.4774 -1.3813
 5521TIP3   OH240757   5.372   0.203   1.401 -0.4210  0.0326 -0.1683
 5521TIP3    H140758   5.412   0.284   1.432 -0.6654  0.0133  0.2000
 5521TIP3    H240759   5.282   0.227   1.381  0.0958  0.4080 -2.3151
 5522TIP3   OH240760   6.424   4.578   2.771  0.1273 -0.3281  0.0395
 5522TIP3    H140761   6.376   4.598   2.852  0.0371 -0.6016  0.0559
 5522TIP3    H240762   6.501   4.635   2.774  0.8649 -1.3173  1.0041
 5523TIP3   OH240763   0.465   2.583   1.919  0.2166 -0.0346  0.1773
 5523TIP3    H140764   0.460   2.624   1.832 -2.1932 -0.9052 -0.1855
 5523TIP3    H240765   0.397   2.628   1.970 -0.3026 -1.3935  0.7294
 5524TIP3   OH240766   4.407   6.632   2.237  0.1774 -0.0075  0.2435
 5524TIP3    H140767   4.424   6.537   2.238 -0.2975 -0.0914  0.3997
 5524TIP3    H240768   4.330   6.642   2.182 -0.7329  0.1250  1.5064
 5525TIP3   OH240769   2.244   4.411   1.831 -0.9525  0.2943  0.0344
 5525TIP3    H140770   2.299   4.386   1.757 -1.0834 -1.1813  0.3979
 5525TIP3    H240771   2.304   4.419   1.905 -1.1921 -1.6606  0.5112
 5526TIP3   OH240772   3.350   7.481   2.992 -0.0231  0.5287  0.2509
 5526TIP3    H140773   3.382   7.400   2.951  0.8223 -0.2408  2.2747
 5526TIP3    H240774   3.313   7.531   2.920 -0.6851 -1.6984 -1.0753
 5527TIP3   OH240775   2.626   0.190   1.677  0.4086 -0.0937  0.5808
 5527TIP3    H140776   2.652   0.121   1.617  2.7424  0.8067  0.4851
 5527TIP3    H240777   2.659   0.271   1.638 -0.5203  0.8681  1.6835
 5528TIP3   OH240778   7.059   4.133   2.807 -0.7023  0.1311  0.1201
 5528TIP3    H140779   7.090   4.192   2.738  0.4719 -1.2954 -0.6360
 5528TIP3    H240780   6.965   4.128   2.793 -1.0121  2.5304  0.8127
 5529TIP3   OH240781   4.953   7.638   8.933 -0.0521 -0.0198 -0.0208
 5529TIP3    H140782   5.017   7.654   8.864  0.9200 -1.4682  0.5199
 5529TIP3    H240783   4.937   7.544   8.930  1.5933 -0.5186  3.0268
 5530TIP3   OH240784   2.874   6.797   1.730 -0.2305 -0.5144  0.3345
 5530TIP3    H140785   2.796   6.750   1.758  0.6876 -1.4913  1.3486
 5530TIP3    H240786   2.892   6.763   1.642 -0.6564 -0.6564  0.3001
 5531TIP3   OH240787   3.863   7.012   2.903 -0.2482 -0.5851  0.0407
 5531TIP3    H140788   3.882   7.086   2.961  1.2895 -0.3046 -0.7567
 5531TIP3    H240789   3.768   7.003   2.905 -0.3842  0.7612  0.9476
 5532TIP3   OH240790   1.037   1.818   1.776 -0.5184 -0.3800 -0.3872
 5532TIP3    H140791   1.128   1.828   1.746 -0.2974  0.0875  0.4027
 5532TIP3    H240792   0.994   1.770   1.706 -0.0839  0.9124 -1.5920
 5533TIP3   OH240793   4.856   6.038   1.868  0.5432  0.1551  0.4980
 5533TIP3    H140794   4.830   5.953   1.833 -0.4265  0.3288  0.7666
 5533TIP3    H240795   4.929   6.066   1.813  0.6541 -0.7051  0.2051
 5534TIP3   OH240796   2.837   2.134   0.508 -0.0473  0.2100 -0.4127
 5534TIP3    H140797   2.778   2.136   0.583  1.5992  0.5231  0.9512
 5534TIP3    H240798   2.883   2.050   0.515  0.3138  0.3581 -0.9133
 5535TIP3   OH240799   6.116   7.608   2.516  0.2956  0.5820 -0.1133
 5535TIP3    H140800   6.062   7.623   2.593  0.4534  0.0453  0.1067
 5535TIP3    H240801   6.200   7.650   2.536  0.8514 -0.8137  0.6385
 5536TIP3   OH240802   4.957   7.153   2.335  0.4698 -0.1979 -0.4266
 5536TIP3    H140803   5.012   7.162   2.413  0.4801  2.2207 -0.6493
 5536TIP3    H240804   4.867   7.155   2.368  0.4636  1.5004 -0.5035
 5537TIP3   OH240805   4.465   7.358   2.329 -0.8570 -0.4943  0.1303
 5537TIP3    H140806   4.479   7.370   2.235  0.0096  0.2799  0.3527
 5537TIP3    H240807   4.371   7.340   2.337 -0.9370 -0.5477 -0.8805
 5538TIP3   OH240808   0.060   0.810   3.116  0.4724  0.2728 -0.0284
 5538TIP3    H140809  -0.029   0.781   3.137  0.1644  0.2126 -1.3448
 5538TIP3    H240810   0.116   0.739   3.147  0.0654  0.2469  0.6815
 5539TIP3   OH240811   3.833   1.779   1.529 -0.2863  0.2965 -0.3226
 5539TIP3    H140812   3.898   1.846   1.550  1.2062 -0.9756 -0.6195
 5539TIP3    H240813   3.846   1.762   1.436 -1.8732  0.8153 -0.6698
 5540TIP3   OH240814   3.700   3.209   0.759  0.2363  0.3348 -0.1371
 5540TIP3    H140815   3.683   3.219   0.666  1.6507  0.3287 -0.4139
 5540TIP3    H240816   3.698   3.299   0.793  2.9034  0.7196 -0.7922
 5541TIP3   OH240817   1.882   3.927   0.993 -0.5002 -0.1565 -0.5080
 5541TIP3    H140818   1.849   3.973   1.070  0.2731 -0.5227  0.0466
 5541TIP3    H240819   1.822   3.953   0.923 -1.1056  0.3198  0.1706
 5542TIP3   OH240820   2.812   6.045   3.231 -0.1538  0.2437  0.1690
 5542TIP3    H140821   2.789   5.975   3.292 -1.3096 -0.1713 -0.7109
 5542TIP3    H240822   2.732   6.097   3.222  0.4598  1.2308  0.2083
 5543TIP3   OH240823   7.470   6.850   1.758  0.0072 -0.0693 -0.1917
 5543TIP3    H140824   7.564   6.839   1.746  0.0227 -0.6079  0.3551
 5543TIP3    H240825   7.431   6.771   1.719 -0.4985  1.6620 -3.5242
 5544TIP3   OH240826   7.100   5.251   2.378  0.2233 -0.0687  0.5490
 5544TIP3    H140827   7.065   5.175   2.423 -1.2575  0.2983  0.0617
 5544TIP3    H240828   7.193   5.231   2.366 -0.4084 -2.5200 -0.9376
 5545TIP3   OH240829   5.687   7.427   3.466  0.5780 -0.2104 -0.3355
 5545TIP3    H140830   5.705   7.334   3.452  0.4184 -0.4972  1.1623
 5545TIP3    H240831   5.773   7.466   3.484  0.3125 -0.8880  3.1083
 5546TIP3   OH240832   3.549   4.137   1.963  0.1789 -0.2288  0.1068
 5546TIP3    H140833   3.467   4.130   2.012  0.1889  0.0334  0.1660
 5546TIP3    H240834   3.530   4.201   1.894  0.3927 -0.0180  0.2452
 5547TIP3   OH240835   6.052   3.375   1.603  0.0897 -0.0773  0.3257
 5547TIP3    H140836   6.034   3.362   1.696  0.4637 -1.5282  0.2099
 5547TIP3    H240837   6.058   3.287   1.566  2.8998  0.3582 -0.5190
 5548TIP3   OH240838   4.303   3.138   1.121 -0.5962 -0.1676 -0.1150
 5548TIP3    H140839   4.306   3.148   1.216 -0.9208  2.0681 -0.2940
 5548TIP3    H240840   4.211   3.117   1.102 -0.7806  0.5296 -0.0108
 5549TIP3   OH240841   7.467   2.049   0.616 -0.0693 -1.1480  0.0540
 5549TIP3    H140842   7.498   1.960   0.629 -2.0385 -1.6611  1.4556
 5549TIP3    H240843   7.383   2.054   0.661 -1.4557  0.5640 -2.4397
 5550TIP3   OH240844   1.534   2.204   1.560 -0.1411  0.4026  0.1415
 5550TIP3    H140845   1.458   2.258   1.579  0.1046  0.7987  0.0071
 5550TIP3    H240846   1.501   2.114   1.561 -0.4365  0.5108  0.9565
 5551TIP3   OH240847   1.472   4.132   1.098 -0.0389  0.1494  0.0949
 5551TIP3    H140848   1.512   4.126   1.011 -1.1812  0.7112 -0.4969
 5551TIP3    H240849   1.518   4.204   1.141 -1.7689  2.3091 -1.3920
 5552TIP3   OH240850   6.381   1.049   0.558  0.7030  0.1363  0.0124
 5552TIP3    H140851   6.292   1.068   0.529  1.1931 -0.3409 -1.9215
 5552TIP3    H240852   6.410   1.129   0.602 -0.9117  0.0304  1.3469
 5553TIP3   OH240853   0.834   4.788   0.733  0.3174  0.1542  0.2506
 5553TIP3    H140854   0.894   4.792   0.807 -0.8524  1.5062  1.1898
 5553TIP3    H240855   0.876   4.839   0.665  0.8542 -0.0865  0.3954
 5554TIP3   OH240856   2.189   1.604   2.421  0.2606 -0.2809  0.0358
 5554TIP3    H140857   2.196   1.553   2.341  1.9475 -0.0793  0.0078
 5554TIP3    H240858   2.188   1.695   2.392  1.6267 -0.1770  0.2336
 5555TIP3   OH240859   6.723   5.829   2.389 -0.1422 -0.0336  0.6508
 5555TIP3    H140860   6.761   5.764   2.448  1.1850 -0.4318 -0.5626
 5555TIP3    H240861   6.739   5.793   2.301 -4.0314 -0.6087 -0.0166
 5556TIP3   OH240862   7.377   2.777   1.920  0.0555  0.1544  0.6661
 5556TIP3    H140863   7.345   2.821   1.999 -0.8138  2.7351 -0.9634
 5556TIP3    H240864   7.459   2.822   1.900  0.3537 -0.5916  0.1990
 5557TIP3   OH240865   1.972   3.305   1.071 -0.3923 -0.3065  0.4983
 5557TIP3    H140866   1.889   3.258   1.060 -1.2625  0.7272  2.0870
 5557TIP3    H240867   2.034   3.239   1.101 -0.5794 -1.1252 -0.8406
 5558TIP3   OH240868   3.857   6.034   2.186  0.0806  0.1028  0.4478
 5558TIP3    H140869   3.818   5.975   2.121 -0.2779 -0.4042  1.1126
 5558TIP3    H240870   3.906   5.976   2.244 -0.6887  0.3909  1.4075
 5559TIP3   OH240871   5.822   4.530   1.173 -0.5720 -0.3453 -0.4970
 5559TIP3    H140872   5.861   4.475   1.105 -0.5323 -0.3813 -0.4447
 5559TIP3    H240873   5.824   4.476   1.252  0.2143  0.0199 -0.2510
 5560TIP3   OH240874   6.401   5.044   1.898  0.1627 -0.0603  0.0399
 5560TIP3    H140875   6.323   4.990   1.915  1.7316 -2.1137  1.1674
 5560TIP3    H240876   6.435   5.065   1.985  1.7282 -0.5369 -0.4355
 5561TIP3   OH240877   5.663   6.943   2.570  0.0831  0.1248 -0.0284
 5561TIP3    H140878   5.676   7.006   2.499 -0.2434 -0.1322 -0.3192
 5561TIP3    H240879   5.717   6.868   2.545  0.3284  0.2151  0.2261
 5562TIP3   OH240880   5.853   2.336   1.623  0.0598 -0.0172 -0.1248
 5562TIP3    H140881   5.776   2.291   1.659  0.1720  0.0011  0.1436
 5562TIP3    H240882   5.923   2.271   1.629  0.4265  0.4583  1.0573
 5563TIP3   OH240883   1.853   7.291   1.968 -0.0096 -0.0757  0.3311
 5563TIP3    H140884   1.887   7.334   1.890 -2.0685 -0.9429 -1.1189
 5563TIP3    H240885   1.820   7.363   2.022  2.4586  0.6369  1.0471
 5564TIP3   OH240886   7.540   7.011   0.795  0.2772 -0.3216  0.7091
 5564TIP3    H140887   7.568   7.083   0.852 -1.0955 -0.7984  2.0784
 5564TIP3    H240888   7.606   6.942   0.809  0.9250  0.2051  0.3234
 5565TIP3   OH240889   7.372   6.608   2.295 -0.3436 -0.2696 -0.0432
 5565TIP3    H140890   7.391   6.652   2.212  0.0263  1.0495  0.7104
 5565TIP3    H240891   7.371   6.515   2.273 -1.2505  0.0949 -1.7198
 5566TIP3   OH240892   5.525   7.021   1.690  0.5386  0.1077 -0.3878
 5566TIP3    H140893   5.602   7.034   1.744 -0.3769 -0.6620  1.1607
 5566TIP3    H240894   5.555   6.968   1.616  0.8372 -3.6592  2.1625
 5567TIP3   OH240895   0.200   6.899   2.082 -0.2184  0.1908  0.3488
 5567TIP3    H140896   0.234   6.963   2.144  1.8823  0.4141 -0.9646
 5567TIP3    H240897   0.255   6.821   2.094 -0.3059 -0.0451 -0.6732
 5568TIP3   OH240898   7.316   0.294   0.347  0.4430  0.3744 -0.0712
 5568TIP3    H140899   7.223   0.271   0.343  0.2311  1.3430 -1.4536
 5568TIP3    H240900   7.320   0.366   0.411  0.4276 -0.3792  0.8020
 5569TIP3   OH240901   6.234   2.204   0.671 -0.1509  0.1629  0.1746
 5569TIP3    H140902   6.253   2.176   0.761 -0.7519 -2.7038 -0.4667
 5569TIP3    H240903   6.290   2.149   0.617  0.1129  1.7632 -1.2435
 5570TIP3   OH240904   6.154   0.746   2.686  0.2577  0.2910  0.3072
 5570TIP3    H140905   6.162   0.730   2.780 -2.9351  1.4559  0.8843
 5570TIP3    H240906   6.143   0.658   2.648 -2.8544 -0.0426  1.6723
 5571TIP3   OH240907   5.831   6.418   0.794  0.0777  0.4427 -0.3196
 5571TIP3    H140908   5.755   6.367   0.822 -0.3875  1.2488 -0.0691
 5571TIP3    H240909   5.898   6.353   0.772 -0.9908 -0.3240 -1.4653
 5572TIP3   OH240910   7.551   4.837   1.944  0.2642 -0.2482 -0.3011
 5572TIP3    H140911   7.550   4.859   1.850  1.8473  2.3005  0.1703
 5572TIP3    H240912   7.493   4.901   1.984  1.7365  0.4989  0.7270
 5573TIP3   OH240913   5.284   7.152   2.355  0.2327 -0.2234 -0.0180
 5573TIP3    H140914   5.289   7.057   2.359  1.9989 -0.1371  0.8043
 5573TIP3    H240915   5.252   7.177   2.442  0.9925 -0.0294  0.2143
 5574TIP3   OH240916   3.934   1.065   3.067 -0.4051 -0.0371 -0.0669
 5574TIP3    H140917   3.918   1.120   2.990  0.7834  0.8035  0.2519
 5574TIP3    H240918   3.867   0.997   3.063 -0.3493 -0.0294 -1.8645
 5575TIP3   OH240919   4.435   6.651   1.846 -0.4058  0.8558 -0.1592
 5575TIP3    H140920   4.350   6.612   1.826  0.0470  0.0874 -0.6207
 5575TIP3    H240921   4.481   6.583   1.895  0.7168  0.4212 -1.7239
 5576TIP3   OH240922   5.806   5.261   2.575  0.2716 -0.5315 -0.3942
 5576TIP3    H140923   5.796   5.338   2.631  1.2224 -0.9531  0.3838
 5576TIP3    H240924   5.808   5.296   2.486  0.7639  0.3592 -0.0449
 5577TIP3   OH240925   2.757   0.421   2.355  0.2549  0.1540  0.4663
 5577TIP3    H140926   2.682   0.362   2.363  0.4955 -0.2581 -0.2119
 5577TIP3    H240927   2.738   0.472   2.276  1.3813 -0.9976 -0.5847
 5578TIP3   OH240928   6.818   1.363   2.592  0.1334 -0.0629 -0.1868
 5578TIP3    H140929   6.738   1.334   2.637 -0.2838 -0.1167 -0.9468
 5578TIP3    H240930   6.854   1.283   2.553  0.2843  0.0499 -0.2792
 5579TIP3   OH240931   0.819   4.189   2.640 -0.2514 -0.1078 -0.1875
 5579TIP3    H140932   0.812   4.095   2.629  0.8657 -0.0937 -1.2323
 5579TIP3    H240933   0.733   4.223   2.616 -0.6112 -0.8440  0.0598
 5580TIP3   OH240934   5.980   4.696   0.935 -1.0854  0.1576  0.0072
 5580TIP3    H140935   6.071   4.708   0.962 -1.0178  0.3838 -0.3246
 5580TIP3    H240936   5.932   4.691   1.018 -0.6849 -0.7021  0.2053
 5581TIP3   OH240937   4.030   2.456   1.330 -0.6676  0.2030 -0.8547
 5581TIP3    H140938   4.027   2.547   1.358 -0.4410 -0.3432  1.0395
 5581TIP3    H240939   4.016   2.405   1.409 -0.6059 -1.4290 -1.8392
 5582TIP3   OH240940   5.075   6.688   2.362  0.2444  0.7120 -0.6323
 5582TIP3    H140941   5.066   6.750   2.434  0.4238  0.4393 -0.3679
 5582TIP3    H240942   5.078   6.602   2.405  1.8679  0.6280 -0.8239
 5583TIP3   OH240943   3.288   0.520   0.741  0.1648  0.9098  0.2023
 5583TIP3    H140944   3.314   0.604   0.704 -0.1854  1.0929  0.3617
 5583TIP3    H240945   3.197   0.533   0.767 -0.4708 -0.0624 -1.3904
 5584TIP3   OH240946   0.640   1.255   0.874 -0.1522 -0.4048 -0.0777
 5584TIP3    H140947   0.730   1.259   0.907 -0.1510 -1.1819  0.0339
 5584TIP3    H240948   0.597   1.192   0.931 -1.1967  1.0612  0.8472
 5585TIP3   OH240949   6.507   5.661   2.082 -0.2068 -0.2825  0.3705
 5585TIP3    H140950   6.557   5.608   2.019 -0.4113  0.8123 -0.7561
 5585TIP3    H240951   6.483   5.599   2.151 -0.8300 -1.8064 -1.1191
 5586TIP3   OH240952   3.319   6.991   0.791 -0.0117 -0.1563  0.0227
 5586TIP3    H140953   3.248   7.054   0.796 -0.8818 -1.0611 -0.4962
 5586TIP3    H240954   3.398   7.041   0.810 -0.8858  0.6787  1.6226
 5587TIP3   OH240955   0.285   4.959   2.074  0.4038  0.3500  0.6305
 5587TIP3    H140956   0.296   5.047   2.038 -0.7458  0.6193  0.9053
 5587TIP3    H240957   0.271   4.903   1.998  1.7181  0.2915  0.4101
 5588TIP3   OH240958   2.469   6.577   1.094 -0.0361 -0.3169 -0.1878
 5588TIP3    H140959   2.383   6.608   1.124 -0.4939 -0.6926 -1.0691
 5588TIP3    H240960   2.478   6.612   1.005  2.7063  3.5317  1.3270
 5589TIP3   OH240961   7.463   1.268   1.066  0.2899  0.0547  0.0752
 5589TIP3    H140962   7.542   1.251   1.014  0.7893 -0.7329  1.0496
 5589TIP3    H240963   7.393   1.276   1.001  1.2966  1.7881 -0.8900
 5590TIP3   OH240964   7.207   0.408   1.252  0.1310  0.2229  0.1314
 5590TIP3    H140965   7.126   0.380   1.295  0.2099 -1.2104 -0.5868
 5590TIP3    H240966   7.275   0.397   1.318  0.4390 -3.0699 -0.5468
 5591TIP3   OH240967   4.249   0.579   0.873  0.3849 -0.1223 -0.0044
 5591TIP3    H140968   4.217   0.615   0.955  0.1651 -0.2744 -0.0236
 5591TIP3    H240969   4.248   0.484   0.886  2.6106 -0.1072  0.6796
 5592TIP3   OH240970   3.948   3.269   0.918  0.1024 -0.3510  0.1410
 5592TIP3    H140971   3.948   3.298   0.827  0.6834 -1.0252 -0.0769
 5592TIP3    H240972   4.015   3.322   0.961  1.8315 -1.9633 -0.4655
 5593TIP3   OH240973   7.206   7.302   2.910 -0.0373 -0.1447  0.1118
 5593TIP3    H140974   7.276   7.350   2.864  0.1811 -1.1357 -0.6197
 5593TIP3    H240975   7.220   7.324   3.002  1.4208 -0.5095  0.0152
 5594TIP3   OH240976   3.011   3.481   2.297 -0.1131 -0.1535 -0.1469
 5594TIP3    H140977   2.975   3.556   2.249  0.7786 -0.1009 -0.7683
 5594TIP3    H240978   2.936   3.445   2.345 -0.7512  0.5806 -0.5601
 5595TIP3   OH240979   5.209   0.004   2.748  0.0046  0.2938  0.2319
 5595TIP3    H140980   5.207   0.042   2.661  0.2485  1.3207  0.6568
 5595TIP3    H240981   5.118  -0.015   2.769 -0.2966  1.9901  0.5686
 5596TIP3   OH240982   6.196   3.080   0.641 -0.7298  0.1693 -0.0388
 5596TIP3    H140983   6.290   3.068   0.631 -0.8605 -0.8232 -0.1633
 5596TIP3    H240984   6.187   3.160   0.692  0.2143 -0.5111  1.2328
 5597TIP3   OH240985   5.045   0.073   1.001 -0.1285  0.2858 -0.2226
 5597TIP3    H140986   5.122   0.109   1.046 -0.0785 -0.2272  0.1139
 5597TIP3    H240987   4.976   0.137   1.016  0.0743  0.4538 -0.0035
 5598TIP3   OH240988   4.882   4.143   3.135  0.7148  0.0646 -0.1491
 5598TIP3    H140989   4.969   4.118   3.166  0.0578 -0.9297  0.9919
 5598TIP3    H240990   4.852   4.069   3.083  1.1342  1.0428 -1.8542
 5599TIP3   OH240991   5.856   5.423   1.611 -0.2689 -0.3965 -0.7834
 5599TIP3    H140992   5.798   5.488   1.572 -1.2281 -0.8711 -0.1922
 5599TIP3    H240993   5.929   5.416   1.550  0.6855  2.3699 -0.1339
 5600TIP3   OH240994   2.352   5.526   1.094 -0.6151 -0.1024 -0.2798
 5600TIP3    H140995   2.376   5.612   1.128 -1.4399 -0.2792  0.8053
 5600TIP3    H240996   2.408   5.514   1.017  1.7805  0.0572  1.3198
 5601TIP3   OH240997   0.013   5.420   2.504  0.7421  0.4737 -0.1638
 5601TIP3    H140998   0.099   5.406   2.463  0.3470  2.9090 -1.9905
 5601TIP3    H240999   0.028   5.490   2.567  0.3255  0.0219  0.4537
 5602TIP3   OH241000   2.959   7.390   2.971  0.3034  0.4752  0.7775
 5602TIP3    H141001   2.933   7.309   3.015  0.8867  0.6265  1.4104
 5602TIP3    H241002   2.972   7.453   3.042  3.6726  0.0743  0.6716
 5603TIP3   OH241003   5.450   5.339   2.569  0.0618  0.5814 -0.4419
 5603TIP3    H141004   5.383   5.400   2.599 -0.3904 -0.7040  1.3823
 5603TIP3    H241005   5.495   5.312   2.649  0.8207 -0.7817 -1.2862
 5604TIP3   OH241006   1.659   7.564   0.922 -0.2105 -0.0904  0.0188
 5604TIP3    H141007   1.590   7.558   0.988 -2.1247  0.9317 -1.7729
 5604TIP3    H241008   1.614   7.593   0.843  1.7989 -2.1149 -2.0319
 5605TIP3   OH241009   3.708   5.476   2.267 -0.3266 -0.0652  0.1184
 5605TIP3    H141010   3.755   5.396   2.245 -0.1495 -0.2869  1.2423
 5605TIP3    H241011   3.760   5.517   2.336 -0.5385  0.9051 -0.2688
 5606TIP3   OH241012   0.271   1.188   2.429  0.6564  0.2683  0.2514
 5606TIP3    H141013   0.276   1.249   2.503  1.7605 -0.3263  0.7038
 5606TIP3    H241014   0.362   1.176   2.403  0.2853  0.3947 -1.1677
 5607TIP3   OH241015   6.604   5.680   0.765 -0.0977 -0.8299 -0.2097
 5607TIP3    H141016   6.569   5.755   0.716 -1.1481 -0.5602  0.8903
 5607TIP3    H241017   6.608   5.609   0.701  0.9758  0.1664 -1.2876
 5608TIP3   OH241018   5.793   6.522   2.044  0.4814  0.4781  0.3401
 5608TIP3    H141019   5.863   6.474   2.088 -0.7212 -0.8257  0.9102
 5608TIP3    H241020   5.761   6.583   2.111 -0.1017 -0.1892  0.6816
 5609TIP3   OH241021   1.429   3.159   1.006  0.3939 -1.0484 -0.7716
 5609TIP3    H141022   1.346   3.116   0.984 -1.4852  0.8534  1.8568
 5609TIP3    H241023   1.471   3.100   1.068 -0.8940 -0.4496  0.7628
 5610TIP3   OH241024   0.702   4.811   2.780 -0.1660 -0.4474  0.1071
 5610TIP3    H141025   0.734   4.758   2.853 -0.4570  1.0987  1.4235
 5610TIP3    H241026   0.685   4.897   2.819 -0.6930  0.3204 -1.7199
 5611TIP3   OH241027   2.365   7.350   0.730  0.7852  0.0511  0.4437
 5611TIP3    H141028   2.321   7.416   0.676 -0.1574  0.9235  2.2069
 5611TIP3    H241029   2.439   7.396   0.769  0.4063 -0.0646  1.3074
 5612TIP3   OH241030   2.161   4.425   2.569  0.7527 -0.2264 -0.3078
 5612TIP3    H141031   2.223   4.405   2.639 -0.3172 -0.7416  0.5224
 5612TIP3    H241032   2.182   4.515   2.543  2.0142 -0.4894 -0.2479
 5613TIP3   OH241033   5.659   7.158   0.749 -0.3433 -0.4325 -0.1581
 5613TIP3    H141034   5.710   7.238   0.733 -0.0470 -0.8250 -1.2489
 5613TIP3    H241035   5.574   7.190   0.780  0.1821  0.2595  0.6245
 5614TIP3   OH241036   0.255   6.590   1.616  0.7394  0.1862 -0.6605
 5614TIP3    H141037   0.325   6.654   1.623 -1.3240  2.9858 -3.2088
 5614TIP3    H241038   0.260   6.557   1.527 -0.1192 -0.9482 -0.3223
 5615TIP3   OH241039   4.756   5.647   2.046  0.0668  0.0620 -0.4614
 5615TIP3    H141040   4.662   5.630   2.053  0.1330  0.0395  0.6117
 5615TIP3    H241041   4.763   5.722   1.987 -0.4957 -1.0185 -1.9357
 5616TIP3   OH241042   5.442   2.832   2.355 -0.1467 -0.2142  0.4870
 5616TIP3    H141043   5.439   2.739   2.379  0.1859  0.0460  1.5578
 5616TIP3    H241044   5.451   2.831   2.259 -1.1920 -1.2725  0.3779
 5617TIP3   OH241045   0.184   1.359   1.363  0.3288 -0.3670 -0.2955
 5617TIP3    H141046   0.270   1.380   1.400  0.2675 -0.5785 -0.0328
 5617TIP3    H241047   0.201   1.341   1.271  0.6222 -0.7917 -0.1575
 5618TIP3   OH241048   5.889   0.094   0.872  0.2036  0.0834 -0.4781
 5618TIP3    H141049   5.891   0.076   0.778  1.0331  0.2619 -0.5006
 5618TIP3    H241050   5.812   0.150   0.884 -1.0772 -1.5281 -0.7517
 5619TIP3   OH241051   5.702   7.115   2.353 -0.0241 -0.8669 -0.3233
 5619TIP3    H141052   5.773   7.164   2.393 -0.1532 -0.2268 -0.8669
 5619TIP3    H241053   5.729   7.103   2.262  0.4767 -2.6929  0.0216
 5620TIP3   OH241054   2.404   6.448   3.155  0.3815 -0.0521 -0.9170
 5620TIP3    H141055   2.356   6.386   3.208  1.6479 -1.3498 -1.2076
 5620TIP3    H241056   2.345   6.470   3.083  0.0107 -1.1441 -0.9545
 5621TIP3   OH241057   0.667   2.652   1.415  0.1666 -0.2545  0.1274
 5621TIP3    H141058   0.735   2.602   1.371  0.9270  1.1221 -0.3318
 5621TIP3    H241059   0.592   2.650   1.355  0.4687 -0.1668 -0.2552
 5622TIP3   OH241060   4.392   4.579   1.630  0.3628 -0.4678 -0.7597
 5622TIP3    H141061   4.341   4.544   1.703 -0.0551  0.4868 -0.5726
 5622TIP3    H241062   4.337   4.650   1.594  1.1137 -0.0877 -1.1965
 5623TIP3   OH241063   3.513   6.830   1.672 -0.5435  0.0220  0.0748
 5623TIP3    H141064   3.515   6.879   1.590  0.0472  0.2011  0.1916
 5623TIP3    H241065   3.567   6.881   1.732  0.7203 -1.1519 -0.0244
 5624TIP3   OH241066   7.087   4.315   3.017 -0.0757  0.2732  0.4841
 5624TIP3    H141067   7.093   4.252   2.945  2.6371 -1.3063  1.8812
 5624TIP3    H241068   7.005   4.294   3.061 -2.0032  1.5507 -2.2401
 5625TIP3   OH241069   1.176   4.275   3.201  0.4905  0.0949  0.0974
 5625TIP3    H141070   1.194   4.187   3.168 -2.3464 -0.4855 -0.1358
 5625TIP3    H241071   1.159   4.263   3.294  1.1587  0.5994  0.2949
 5626TIP3   OH241072   3.223   1.739   1.543 -0.0837 -0.0043 -0.3063
 5626TIP3    H141073   3.287   1.809   1.548 -0.9131  0.7053  0.8711
 5626TIP3    H241074   3.274   1.662   1.518  1.0386  0.7518 -0.4347
 5627TIP3   OH241075   6.196   6.732   1.175  0.4701 -0.3153  0.1247
 5627TIP3    H141076   6.132   6.677   1.132  1.0135 -0.9953  0.1653
 5627TIP3    H241077   6.183   6.819   1.137 -0.3406 -0.4816  0.0048
 5628TIP3   OH241078   1.901   5.966   0.774 -0.3481 -0.3254  0.5532
 5628TIP3    H141079   1.895   5.932   0.685  0.2542  2.0005 -0.4430
 5628TIP3    H241080   1.839   5.913   0.824 -1.0024 -1.4145 -1.3214
 5629TIP3   OH241081   6.478   4.566   2.286  0.2605  0.6131 -0.1209
 5629TIP3    H141082   6.405   4.505   2.298 -1.6343  2.8060  0.2462
 5629TIP3    H241083   6.556   4.511   2.293 -1.2738 -1.5592  1.4676
 5630TIP3   OH241084   7.470   0.932   1.614 -0.6830  0.5550  0.3244
 5630TIP3    H141085   7.544   0.889   1.570  1.3141  1.3780  2.6532
 5630TIP3    H241086   7.488   1.025   1.606 -1.6507  0.7843  0.6610
 5631TIP3   OH241087   1.500   3.074   3.174  0.6904  0.3145 -0.6980
 5631TIP3    H141088   1.594   3.090   3.176  0.7218  1.0626 -3.6637
 5631TIP3    H241089   1.466   3.135   3.109 -1.7614 -0.4104 -0.2198
 5632TIP3   OH241090   1.581   4.910   2.218 -0.0484 -0.2996  0.3750
 5632TIP3    H141091   1.493   4.908   2.181 -0.2375  0.4978  0.7816
 5632TIP3    H241092   1.613   4.820   2.206 -0.8033 -0.5275 -0.0226
 5633TIP3   OH241093   3.676   7.108   1.509 -0.0528 -0.0260 -0.3530
 5633TIP3    H141094   3.724   7.057   1.574 -0.6126 -0.4401 -0.2585
 5633TIP3    H241095   3.598   7.139   1.555 -0.0082  0.4282 -0.5760
 5634TIP3   OH241096   4.823   0.783   1.305 -0.4219 -0.2496 -0.4242
 5634TIP3    H141097   4.729   0.789   1.323 -0.0667 -0.2619  1.6793
 5634TIP3    H241098   4.841   0.858   1.248 -1.5669  0.2498 -0.1656
 5635TIP3   OH241099   0.625   3.457   0.749 -0.5171  0.3982  0.0401
 5635TIP3    H141100   0.606   3.417   0.665  1.2416  1.4631 -0.9377
 5635TIP3    H241101   0.719   3.444   0.762 -0.5613  1.1174  1.3514
 5636TIP3   OH241102   3.792   1.350   2.646 -0.0464 -0.1269  0.3522
 5636TIP3    H141103   3.700   1.323   2.642  0.5216 -2.0577 -0.5581
 5636TIP3    H241104   3.792   1.438   2.607 -1.3233 -0.6490 -0.9202
 5637TIP3   OH241105   1.594   1.608   1.060  0.3895 -0.1648 -0.7487
 5637TIP3    H141106   1.673   1.564   1.030 -0.1325 -1.5110 -0.2462
 5637TIP3    H241107   1.522   1.551   1.030 -0.2286 -0.6260  1.4430
 5638TIP3   OH241108   6.773   3.636   0.911 -0.0007 -0.3105 -1.0257
 5638TIP3    H141109   6.846   3.609   0.855  0.2775 -0.4477 -0.5968
 5638TIP3    H241110   6.698   3.585   0.879  0.1028 -0.2185 -1.4216
 5639TIP3   OH241111   6.119   3.319   2.328  0.2612 -0.2689  0.0997
 5639TIP3    H141112   6.156   3.231   2.322  1.4088  0.1718  0.4882
 5639TIP3    H241113   6.050   3.311   2.394  0.6736 -0.7778  0.4796
 5640TIP3   OH241114   3.772   4.803   1.100  0.1884  0.4442 -0.0530
 5640TIP3    H141115   3.686   4.817   1.062  0.3372 -0.6247 -0.8143
 5640TIP3    H241116   3.832   4.846   1.040  0.2844  0.2066 -0.1272
 5641TIP3   OH241117   4.433   7.389   2.060  0.9885 -0.4335  0.4036
 5641TIP3    H141118   4.514   7.436   2.040  0.7539 -0.5220 -0.8423
 5641TIP3    H241119   4.444   7.303   2.019 -0.1994 -0.0317 -0.8470
 5642TIP3   OH241120   7.387   6.644   1.591 -1.0410 -0.0492  0.3457
 5642TIP3    H141121   7.457   6.581   1.573  0.2778  1.2052  0.9012
 5642TIP3    H241122   7.346   6.659   1.506  1.3956  1.4985 -0.6597
 5643TIP3   OH241123   1.820   2.097   1.512  0.0800  0.5320  0.4795
 5643TIP3    H141124   1.752   2.161   1.532  0.2796  0.2326  2.2615
 5643TIP3    H241125   1.784   2.046   1.438 -1.0728  1.1846  0.5664
 5644TIP3   OH241126   4.510   6.812   2.798 -0.0923 -0.0637  0.0260
 5644TIP3    H141127   4.565   6.734   2.786 -0.4225 -0.5137  1.3437
 5644TIP3    H241128   4.429   6.778   2.835 -0.4883  0.8471  0.0112
 5645TIP3   OH241129   3.769   7.403   1.394 -0.2574  0.3892  0.4600
 5645TIP3    H141130   3.680   7.396   1.427 -0.5805  1.7082 -0.0539
 5645TIP3    H241131   3.796   7.492   1.418  2.0887 -0.9006  3.3804
 5646TIP3   OH241132   2.770   1.974   3.176 -0.4775 -0.1655 -0.2058
 5646TIP3    H141133   2.768   1.879   3.183 -0.1542 -0.0538  2.1630
 5646TIP3    H241134   2.755   1.992   3.083 -0.7374 -2.5003 -0.6624
 5647TIP3   OH241135   0.099   6.938   2.540 -0.5649 -0.1864 -0.0881
 5647TIP3    H141136   0.105   6.868   2.605  0.4575  0.9511  1.0907
 5647TIP3    H241137   0.190   6.960   2.520 -0.8611  1.0489 -0.1463
 5648TIP3   OH241138   6.345   3.331   2.839  0.6970  0.4295  0.1610
 5648TIP3    H141139   6.424   3.328   2.893  0.2771  3.2161  1.1327
 5648TIP3    H241140   6.323   3.424   2.835 -1.9228 -0.1559 -1.0020
 5649TIP3   OH241141   3.549   3.820   2.489 -0.3936  0.2379  0.5168
 5649TIP3    H141142   3.573   3.756   2.556 -0.2684  0.9167  1.1267
 5649TIP3    H241143   3.468   3.860   2.521 -1.2313 -0.5570 -0.5206
 5650TIP3   OH241144   4.080   0.185   3.233  0.3655 -0.7056  0.9575
 5650TIP3    H141145   4.123   0.244   3.295 -0.4651  1.3729 -0.3624
 5650TIP3    H241146   3.987   0.191   3.255  0.0643  0.0391 -0.4506
 5651TIP3   OH241147   2.285   1.019   2.047 -0.3498 -0.3239  0.1771
 5651TIP3    H141148   2.333   1.094   2.012  0.0377 -0.5483  0.2176
 5651TIP3    H241149   2.353   0.964   2.087 -0.7627 -0.1332  1.1716
 5652TIP3   OH241150   0.615   2.704   2.287  0.6913  0.1667  0.3366
 5652TIP3    H141151   0.651   2.682   2.201  1.5324  3.9071 -0.4710
 5652TIP3    H241152   0.541   2.762   2.267  0.8598  1.0517  2.1112
 5653TIP3   OH241153   0.962   2.772   2.924 -0.1569 -0.2705 -0.2895
 5653TIP3    H141154   0.949   2.750   3.016  2.2877  1.2297  0.5039
 5653TIP3    H241155   0.884   2.823   2.900 -1.7253 -2.2158  0.2991
 5654TIP3   OH241156   1.307   5.241   1.098 -0.0929  0.3878 -0.1081
 5654TIP3    H141157   1.290   5.147   1.096  0.9719  0.1949 -0.3638
 5654TIP3    H241158   1.400   5.249   1.118 -0.5657  1.4215  1.9866
 5655TIP3   OH241159   0.594   2.964   0.374  0.3761  0.6724 -0.0671
 5655TIP3    H141160   0.669   2.944   0.431  0.1011  0.0622  0.0903
 5655TIP3    H241161   0.616   2.923   0.291  0.0993  0.2475  0.0629
 5656TIP3   OH241162   4.558   4.509   1.423 -0.1188 -0.5504  0.0573
 5656TIP3    H141163   4.507   4.534   1.500  1.5806  1.9515  0.4833
 5656TIP3    H241164   4.522   4.424   1.397 -1.5294 -0.9222  2.8800
 5657TIP3   OH241165   6.171   3.984   1.664 -0.3695  0.1730  0.6347
 5657TIP3    H141166   6.162   3.960   1.572  0.5178  1.4957  0.1787
 5657TIP3    H241167   6.086   4.021   1.688 -0.3209  0.6631  0.0768
 5658TIP3   OH241168   5.254   0.176   1.129  0.2656  0.1187  0.2991
 5658TIP3    H141169   5.334   0.145   1.171 -0.2818 -1.0879  0.4867
 5658TIP3    H241170   5.268   0.270   1.118  1.2410  0.1178  1.3513
 5659TIP3   OH241171   0.045   4.572   1.985  0.0759  0.2041  0.5031
 5659TIP3    H141172   0.021   4.658   1.951  0.9823  0.3932  0.3182
 5659TIP3    H241173   0.038   4.581   2.080  2.7014  1.3299  0.6843
 5660TIP3   OH241174   6.081   5.697   1.601 -0.4993  0.3484  0.1099
 5660TIP3    H141175   5.996   5.660   1.581 -0.7027  1.0020 -0.2827
 5660TIP3    H241176   6.083   5.704   1.696 -0.1448 -1.3632  0.2599
 5661TIP3   OH241177   2.707   7.360   1.467  0.4297 -0.8066  0.0022
 5661TIP3    H141178   2.673   7.334   1.381  0.9094  0.3672 -0.5723
 5661TIP3    H241179   2.657   7.307   1.529  0.3956 -2.0222 -1.0079
 5662TIP3   OH241180   6.428   2.928   1.738  0.8871 -0.2128  0.6090
 5662TIP3    H141181   6.378   2.871   1.681  1.7648  0.1053 -0.5102
 5662TIP3    H241182   6.519   2.898   1.728  1.1303  0.2397  1.3748
 5663TIP3   OH241183   7.115   0.198   1.045 -0.3614  0.5880  0.2990
 5663TIP3    H141184   7.184   0.194   0.978  0.5667  0.4256  1.2420
 5663TIP3    H241185   7.159   0.231   1.123 -1.2337 -0.0240  1.0712
 5664TIP3   OH241186   3.261   0.477   2.505  0.0886 -0.3744  0.2443
 5664TIP3    H141187   3.301   0.467   2.591 -0.1972 -0.6523  0.3477
 5664TIP3    H241188   3.215   0.394   2.490  1.1170 -0.7995 -0.6928
 5665TIP3   OH241189   6.131   2.942   0.381  0.2089  0.2476  0.1167
 5665TIP3    H141190   6.167   2.854   0.393  1.7621  0.5344 -1.9186
 5665TIP3    H241191   6.171   2.994   0.451 -1.3010 -0.7351  1.8094
 5666TIP3   OH241192   4.151   6.420   2.280 -0.0422  0.0081 -0.5165
 5666TIP3    H141193   4.073   6.473   2.266  0.0202  0.1714 -0.2398
 5666TIP3    H241194   4.174   6.434   2.371  1.0473  0.9622 -0.9106
 5667TIP3   OH241195   0.669   1.622   1.383  0.7371  0.2533  0.0457
 5667TIP3    H141196   0.689   1.539   1.342 -0.7163 -0.5968  0.9718
 5667TIP3    H241197   0.606   1.601   1.452  0.1286  2.1433  0.1451
 5668TIP3   OH241198   5.057   7.496   1.090 -0.0053  0.5245 -0.1715
 5668TIP3    H141199   5.044   7.589   1.069 -1.4226  0.6184  1.0043
 5668TIP3    H241200   5.094   7.497   1.178  0.4650 -0.0323 -0.3575
 5669TIP3   OH241201   5.052   6.553   1.063  0.0745  0.3383  0.1096
 5669TIP3    H141202   5.095   6.639   1.061  1.7100 -0.4135  1.0624
 5669TIP3    H241203   5.009   6.551   1.149 -0.9775  0.6525 -0.3976
 5670TIP3   OH241204   4.294   3.943   0.797  0.0955  0.3415  0.5163
 5670TIP3    H141205   4.378   3.983   0.821  1.1766  0.5412 -3.0294
 5670TIP3    H241206   4.234   4.016   0.787  0.3168  0.4922  0.2686
 5671TIP3   OH241207   4.770   4.908   1.249  0.0784 -0.4688 -0.4054
 5671TIP3    H141208   4.801   4.839   1.307  2.4397 -1.5928 -2.7730
 5671TIP3    H241209   4.821   4.985   1.274 -0.2976 -0.4112  0.2094
 5672TIP3   OH241210   3.820   1.347   0.953 -0.3522  0.4959  0.5885
 5672TIP3    H141211   3.791   1.256   0.962  0.4335  0.1857  0.0649
 5672TIP3    H241212   3.741   1.395   0.926 -0.5774 -0.1777  0.0387
 5673TIP3   OH241213   4.301   3.147   1.392 -0.5993  0.7385 -0.7294
 5673TIP3    H141214   4.311   3.237   1.424  1.1729  0.2596  0.1913
 5673TIP3    H241215   4.264   3.099   1.466 -1.5615  0.6981 -1.2263
 5674TIP3   OH241216   1.882   5.240   0.878 -0.1481  0.3632  0.2338
 5674TIP3    H141217   1.848   5.246   0.789 -0.8428 -1.0702  0.3654
 5674TIP3    H241218   1.809   5.269   0.933 -1.8763 -3.9104  0.5968
 5675TIP3   OH241219   2.190   6.655   1.141 -0.2604 -0.2966  0.3361
 5675TIP3    H141220   2.124   6.586   1.136  0.2752 -0.8138  0.4076
 5675TIP3    H241221   2.205   6.681   1.050  0.6896 -1.3733  0.1706
 5676TIP3   OH241222   0.049   2.684   3.738  0.9790  0.3864 -0.7162
 5676TIP3    H141223  -0.038   2.676   3.699  0.7714  0.1501 -0.2169
 5676TIP3    H241224   0.037   2.742   3.813  1.1079 -0.2225 -0.2217
 5677TIP3   OH241225   1.985   2.113   3.290 -0.4486 -0.1766 -0.6410
 5677TIP3    H141226   2.042   2.190   3.295  0.4465 -0.9214  1.6629
 5677TIP3    H241227   1.897   2.149   3.287 -0.0418  0.9639  0.4284
 5678TIP3   OH241228   5.013   1.580   1.029  0.3497  0.0371 -0.0493
 5678TIP3    H141229   5.054   1.537   1.104 -1.2363 -0.2501  0.6928
 5678TIP3    H241230   5.044   1.531   0.953  1.3763 -0.1503  0.4727
 5679TIP3   OH241231   5.648   3.694   0.914  0.1529 -0.0579 -0.5593
 5679TIP3    H141232   5.588   3.766   0.895 -2.7023 -1.8250  1.0336
 5679TIP3    H241233   5.596   3.615   0.900  1.8714 -1.7126  1.6040
 5680TIP3   OH241234   1.853   3.678   1.897  0.0327  0.1281 -0.2000
 5680TIP3    H141235   1.803   3.698   1.817  0.5523  0.3849 -0.4618
 5680TIP3    H241236   1.823   3.742   1.961 -0.9103 -0.5240  0.0372
 5681TIP3   OH241237   5.115   3.586   1.944  0.2933 -0.5640 -0.4361
 5681TIP3    H141238   5.028   3.571   1.980  1.4067 -2.9588  1.5425
 5681TIP3    H241239   5.148   3.499   1.921  2.7191  0.0329  0.3725
 5682TIP3   OH241240   7.040   5.600   3.099  0.2568  0.1731  0.8222
 5682TIP3    H141241   7.003   5.512   3.108  0.1606  0.1725  0.4607
 5682TIP3    H241242   7.120   5.586   3.048 -0.7082  0.5059 -0.8676
 5683TIP3   OH241243   4.582   7.210   1.366  0.0437  0.2814 -0.4248
 5683TIP3    H141244   4.499   7.254   1.350  1.2282  2.2380 -1.5756
 5683TIP3    H241245   4.583   7.194   1.460 -2.1459 -1.0138 -0.5344
 5684TIP3   OH241246   6.280   4.163   1.080  0.4488  0.4216 -0.4382
 5684TIP3    H141247   6.367   4.129   1.100  0.4297 -0.3278 -1.5361
 5684TIP3    H241248   6.232   4.157   1.163  0.7220 -1.4081 -0.3819
 5685TIP3   OH241249   7.369   2.532   1.080  0.1634 -0.5197 -0.1371
 5685TIP3    H141250   7.457   2.564   1.060  1.0108 -1.3272  2.0187
 5685TIP3    H241251   7.376   2.437   1.075 -1.0852 -0.5680 -1.6752
 5686TIP3   OH241252   7.535   5.376   2.270 -0.7436  0.4664  0.1706
 5686TIP3    H141253   7.619   5.332   2.259 -1.2725 -0.9216  1.3117
 5686TIP3    H241254   7.548   5.437   2.342 -0.7590  0.1007  0.4852
 5687TIP3   OH241255   7.558   3.503   3.167  0.0035  0.2462  0.3960
 5687TIP3    H141256   7.486   3.507   3.105  1.0354 -1.2430 -0.9781
 5687TIP3    H241257   7.623   3.564   3.133  0.2903 -0.0495  0.4138
 5688TIP3   OH241258   4.522   4.507   1.053 -0.8299  0.4567  0.3177
 5688TIP3    H141259   4.447   4.557   1.085  0.0587  1.0900  1.5399
 5688TIP3    H241260   4.594   4.571   1.052 -0.4701  0.0803 -1.6240
 5689TIP3   OH241261   3.165   5.998   2.859 -0.0723 -0.0618  0.3920
 5689TIP3    H141262   3.116   5.987   2.778 -0.7305  0.2144  0.7438
 5689TIP3    H241263   3.097   6.012   2.926  0.4394 -0.6216  1.0406
 5690TIP3   OH241264   1.061   3.176   2.518  0.6930  0.4795  0.1315
 5690TIP3    H141265   1.101   3.090   2.520  0.2580  0.2662 -0.1839
 5690TIP3    H241266   1.071   3.209   2.607 -1.6117 -1.0641  1.0717
 5691TIP3   OH241267   1.405   1.147   2.228 -0.6599  0.1616  0.4383
 5691TIP3    H141268   1.387   1.226   2.178  2.8651  1.3165  0.7534
 5691TIP3    H241269   1.358   1.159   2.310 -0.9754  1.4171  0.0895
 5692TIP3   OH241270   2.198   1.899   0.840  0.0016 -0.2802  0.0172
 5692TIP3    H141271   2.184   1.978   0.788  2.1609 -0.9050 -1.6384
 5692TIP3    H241272   2.251   1.928   0.915  1.7061 -0.2612 -1.1390
 5693TIP3   OH241273   0.901   2.078   0.807 -0.1499 -0.0882 -0.2443
 5693TIP3    H141274   0.941   2.096   0.892 -1.5974  0.8090  0.2656
 5693TIP3    H241275   0.904   1.983   0.799  1.9594 -0.0829 -0.1969
 5694TIP3   OH241276   0.720   4.375   2.334  0.0313  0.2084 -0.2522
 5694TIP3    H141277   0.701   4.371   2.427  1.4761 -0.6747  0.0443
 5694TIP3    H241278   0.700   4.287   2.301 -0.0522  0.3841 -0.6816
 5695TIP3   OH241279   3.643   6.194   2.271 -0.3568  0.2770 -0.7774
 5695TIP3    H141280   3.719   6.137   2.259  0.4349  0.9614  0.7276
 5695TIP3    H241281   3.668   6.253   2.342 -2.2067  0.6890 -0.4054
 5696TIP3   OH241282   5.319   2.186   2.527  0.2237 -0.0090 -0.2299
 5696TIP3    H141283   5.385   2.118   2.513  0.2394 -0.2768  1.0670
 5696TIP3    H241284   5.240   2.152   2.486 -0.1665 -1.4886  1.6249
 5697TIP3   OH241285   4.387   0.164   2.538 -0.6964 -0.2093  0.2987
 5697TIP3    H141286   4.336   0.207   2.470 -0.0651 -0.6049 -0.4378
 5697TIP3    H241287   4.421   0.085   2.497 -1.3095 -1.0981  1.4412
 5698TIP3   OH241288   2.903   7.276   1.189  0.1877  0.2417 -0.7667
 5698TIP3    H141289   2.903   7.243   1.099  0.1459  2.4564 -1.6483
 5698TIP3    H241290   2.821   7.326   1.197  0.0732 -0.1117  0.5980
 5699TIP3   OH241291   7.669   3.983   3.540 -0.1745  0.1086  0.0724
 5699TIP3    H141292   7.756   4.023   3.541 -1.4675  3.1769  0.9129
 5699TIP3    H241293   7.625   4.023   3.465 -1.1706 -0.7481  0.1783
 5700TIP3   OH241294   6.757   2.390   1.379 -0.0989 -0.0875  0.0925
 5700TIP3    H141295   6.795   2.471   1.345 -1.7375  0.4310 -0.5937
 5700TIP3    H241296   6.663   2.404   1.374 -0.4427 -2.3389 -0.7723
 5701TIP3   OH241297   6.793   1.733   1.355  0.0180  0.4346 -0.3721
 5701TIP3    H141298   6.878   1.744   1.312  1.0868 -1.6866  1.0098
 5701TIP3    H241299   6.769   1.642   1.337 -0.1593 -0.1053  2.2487
 5702TIP3   OH241300   7.307   3.562   1.012 -0.1238 -0.1671 -0.4556
 5702TIP3    H141301   7.394   3.525   0.998  0.3488  0.2745  1.1107
 5702TIP3    H241302   7.323   3.653   1.037 -1.0641  0.0677 -0.6682
 5703TIP3   OH241303   0.074   0.822   1.580  0.7119  0.1651 -0.8345
 5703TIP3    H141304   0.116   0.754   1.633 -0.4799  0.0568  0.0217
 5703TIP3    H241305   0.054   0.779   1.497  3.1880  0.5175 -1.6915
 5704TIP3   OH241306   0.589   4.947   1.819  0.0477  0.1455  0.2055
 5704TIP3    H141307   0.591   4.852   1.835  1.1904  0.0288 -0.4779
 5704TIP3    H241308   0.584   4.986   1.906 -5.3394 -0.4960  0.5392
 5705TIP3   OH241309   1.143   3.275   2.789  0.0355  0.2144 -0.2144
 5705TIP3    H141310   1.234   3.274   2.761  1.2933  0.7941  3.3722
 5705TIP3    H241311   1.136   3.202   2.851 -1.3726  1.3507  1.0482
 5706TIP3   OH241312   5.806   5.164   0.455 -0.3912 -0.1163 -0.0428
 5706TIP3    H141313   5.806   5.134   0.546 -1.7055  0.7138  0.2628
 5706TIP3    H241314   5.760   5.095   0.408  1.6917 -1.3406 -0.4166
 5707TIP3   OH241315   2.557   7.394   2.858  0.1728 -0.3346  0.5667
 5707TIP3    H141316   2.520   7.356   2.938  1.2563 -2.2144  0.2270
 5707TIP3    H241317   2.513   7.348   2.787  0.1560  0.4033  0.0906
 5708TIP3   OH241318   4.395   3.741   0.602 -0.1332  0.5229  0.3146
 5708TIP3    H141319   4.387   3.666   0.661 -0.8612 -0.2685 -0.7651
 5708TIP3    H241320   4.368   3.816   0.656  0.7597  0.0643  1.4504
 5709TIP3   OH241321   5.016   6.044   2.488  0.2532 -0.3052  0.4612
 5709TIP3    H141322   4.990   6.118   2.544  1.9612  0.5153  0.2208
 5709TIP3    H241323   5.048   6.085   2.408  2.2240 -1.2219  0.7299
 5710TIP3   OH241324   7.395   6.982   2.699  0.2698  0.2255 -0.1396
 5710TIP3    H141325   7.419   6.944   2.614  0.3083  0.3152 -0.1695
 5710TIP3    H241326   7.461   7.049   2.714 -0.4874  1.1093 -0.6571
 5711TIP3   OH241327   6.092   7.431   2.315 -0.0321  0.3826  0.0612
 5711TIP3    H141328   6.070   7.496   2.249 -3.3902  0.0519  0.7018
 5711TIP3    H241329   6.092   7.480   2.397 -3.8357 -0.4019  0.7245
 5712TIP3   OH241330   1.599   7.013   1.423  0.9279  0.2739  0.1490
 5712TIP3    H141331   1.666   7.078   1.439  0.2481  0.7303  1.2861
 5712TIP3    H241332   1.516   7.061   1.429  0.4783 -0.2743 -1.2100
 5713TIP3   OH241333   4.691   0.574   0.822  0.0532 -0.1275 -0.0138
 5713TIP3    H141334   4.680   0.635   0.749 -2.7101  1.0709  1.2748
 5713TIP3    H241335   4.650   0.493   0.792 -1.9701  0.6573  0.4374
 5714TIP3   OH241336   1.805   2.099   1.786  0.2819 -0.8462  0.2505
 5714TIP3    H141337   1.749   2.021   1.796 -0.1803 -0.7621 -1.3616
 5714TIP3    H241338   1.849   2.086   1.702  0.3162  0.5546  0.0285
 5715TIP3   OH241339   6.381   5.193   1.673  0.2352  0.2693  0.4368
 5715TIP3    H141340   6.408   5.135   1.745  0.7191  1.8047  1.5265
 5715TIP3    H241341   6.366   5.277   1.714 -1.3879  0.7141 -0.9835
 5716TIP3   OH241342   0.358   3.778   3.691 -0.3126 -0.8389 -0.0438
 5716TIP3    H141343   0.275   3.733   3.676 -0.0623 -1.0147 -0.9400
 5716TIP3    H241344   0.420   3.708   3.711  0.0246 -0.8865 -1.2098
 5717TIP3   OH241345   6.236   0.297   2.750 -0.1106 -0.7387 -0.0025
 5717TIP3    H141346   6.271   0.370   2.801  0.9902 -1.1703 -0.1141
 5717TIP3    H241347   6.184   0.339   2.681 -1.9424 -0.1614  1.6736
 5718TIP3   OH241348   0.481   2.350   0.569 -0.1114 -0.1449 -0.0039
 5718TIP3    H141349   0.535   2.405   0.627 -1.4782 -0.2079  1.3677
 5718TIP3    H241350   0.506   2.261   0.591 -1.0002 -0.1880  0.9045
 5719TIP3   OH241351   1.362   6.822   2.148  0.4715 -0.3428  0.4694
 5719TIP3    H141352   1.292   6.880   2.119  0.6325 -0.1974  0.3708
 5719TIP3    H241353   1.441   6.858   2.110  0.3858 -1.5533 -0.9526
 5720TIP3   OH241354   3.489   7.438   2.695  0.5535 -0.0948 -0.6853
 5720TIP3    H141355   3.570   7.482   2.670  0.8213 -1.6151 -2.7670
 5720TIP3    H241356   3.516   7.376   2.763  0.6104  1.1550  0.4810
 5721TIP3   OH241357   3.053   4.327   1.247  0.4289  0.3273 -0.0095
 5721TIP3    H141358   3.010   4.286   1.322 -0.0000 -3.3805 -2.0306
 5721TIP3    H241359   3.015   4.415   1.243  0.2385  0.5727  3.8242
 5722TIP3   OH241360   2.187   5.470   1.666  0.1079 -0.0048  0.1131
 5722TIP3    H141361   2.282   5.476   1.670  0.1834 -0.1295 -1.1129
 5722TIP3    H241362   2.170   5.384   1.629 -0.4091  0.7155 -1.4188
 5723TIP3   OH241363   1.628   4.676   2.105 -0.0996 -0.5047 -0.1166
 5723TIP3    H141364   1.698   4.627   2.148  0.8358 -0.0381 -1.0545
 5723TIP3    H241365   1.638   4.655   2.012 -0.5777  0.3361 -0.3689
 5724TIP3   OH241366   2.443   0.712   1.963 -0.4109  0.0721 -0.5739
 5724TIP3    H141367   2.380   0.732   1.894 -1.0029 -0.8890 -0.3290
 5724TIP3    H241368   2.506   0.652   1.922 -0.9267 -0.7321 -0.2237
 5725TIP3   OH241369   6.224   4.246   0.829  0.4004 -0.4284 -0.6691
 5725TIP3    H141370   6.217   4.191   0.907  0.1399 -1.2119 -1.2268
 5725TIP3    H241371   6.135   4.277   0.812  0.5249  0.0685 -0.4304
 5726TIP3   OH241372   0.877   6.277   3.086 -0.9375  0.3792 -0.1908
 5726TIP3    H141373   0.891   6.204   3.025 -1.1191  0.2927 -0.1300
 5726TIP3    H241374   0.785   6.269   3.111 -1.7060  2.1684 -2.1717
 5727TIP3   OH241375   3.943   0.522   1.471  0.3023  0.1317  0.3234
 5727TIP3    H141376   3.970   0.571   1.548  0.3504 -0.3411  0.6168
 5727TIP3    H241377   3.852   0.549   1.456  1.3409  3.0064 -1.6849
 5728TIP3   OH241378   3.955   7.158   1.992 -0.3429 -0.4745 -0.3237
 5728TIP3    H141379   3.884   7.203   1.947 -1.9076 -2.7149 -0.2457
 5728TIP3    H241380   4.011   7.125   1.921 -1.0739 -1.2823 -0.5482
 5729TIP3   OH241381   2.112   2.612   1.777 -0.6098 -0.0723  0.4046
 5729TIP3    H141382   2.193   2.623   1.727  0.0367 -1.1123  1.1548
 5729TIP3    H241383   2.047   2.586   1.712 -0.6643  1.8720 -0.3928
 5730TIP3   OH241384   6.312   0.914   1.153  0.4391  0.5634  0.0212
 5730TIP3    H141385   6.264   0.942   1.231  0.6051  0.6541  0.0910
 5730TIP3    H241386   6.285   0.823   1.140 -1.0823  1.1125 -0.9398
 5731TIP3   OH241387   7.476   6.147   1.230 -0.5061 -0.3642 -0.1911
 5731TIP3    H141388   7.413   6.077   1.245  1.0253 -1.7323  0.1008
 5731TIP3    H241389   7.488   6.149   1.135 -0.8984 -0.1594 -0.2395
 5732TIP3   OH241390   0.716   5.550   2.204  0.4094 -0.0247  0.2943
 5732TIP3    H141391   0.640   5.517   2.157 -0.9092  3.8338 -0.5884
 5732TIP3    H241392   0.791   5.521   2.152 -0.4737 -2.2954  0.1577
 5733TIP3   OH241393   6.260   4.673   0.947  0.2653 -0.1233  0.1747
 5733TIP3    H141394   6.299   4.648   1.031  0.9145 -1.6071 -0.5337
 5733TIP3    H241395   6.284   4.602   0.887  0.4394  1.2634 -1.4612
 5734TIP3   OH241396   5.399   1.524   2.802 -0.4695  0.6728 -0.2206
 5734TIP3    H141397   5.379   1.584   2.730  0.0081 -0.0753 -0.9953
 5734TIP3    H241398   5.383   1.575   2.881  0.7003  2.0824 -0.8583
 5735TIP3   OH241399   7.578   4.262   1.258  0.4198  0.5107  0.3169
 5735TIP3    H141400   7.493   4.257   1.215  0.7501  0.1927 -0.3161
 5735TIP3    H241401   7.614   4.347   1.231  2.2719 -1.2257 -3.2571
 5736TIP3   OH241402   6.557   0.412   2.183 -0.3442 -0.5192  0.2395
 5736TIP3    H141403   6.635   0.366   2.214  0.6155  0.6206 -0.4139
 5736TIP3    H241404   6.555   0.493   2.234 -1.6355 -0.9499  0.9034
 5737TIP3   OH241405   4.067   2.721   1.439 -0.0931  0.2481  0.4027
 5737TIP3    H141406   4.015   2.797   1.415  0.2620  0.4313  0.1978
 5737TIP3    H241407   4.157   2.745   1.416 -0.0183 -0.3524  0.0331
 5738TIP3   OH241408   2.216   2.070   1.329 -0.4772 -0.0735 -0.1094
 5738TIP3    H141409   2.301   2.112   1.312 -0.3290 -0.8527 -1.4609
 5738TIP3    H241410   2.162   2.094   1.253 -1.2278 -0.2011  0.3749
 5739TIP3   OH241411   5.115   6.874   2.018 -0.1028  0.1536 -0.4734
 5739TIP3    H141412   5.171   6.887   2.095  1.0281 -0.3442 -1.1854
 5739TIP3    H241413   5.175   6.881   1.944 -0.9683 -0.5558 -1.2564
 5740TIP3   OH241414   4.005   6.811   2.487  0.2715  0.4539 -0.3743
 5740TIP3    H141415   4.087   6.762   2.484 -0.1500 -0.2408 -2.6278
 5740TIP3    H241416   3.954   6.768   2.556  1.0710 -0.3270 -0.2490
 5741TIP3   OH241417   1.145   2.765   0.783  0.1178 -0.6452 -0.4072
 5741TIP3    H141418   1.175   2.742   0.695 -2.6725 -0.4495 -1.5006
 5741TIP3    H241419   1.093   2.844   0.771  1.1133  0.4340  1.7587
 5742TIP3   OH241420   0.578   6.864   1.001  0.2754  0.0605  0.4335
 5742TIP3    H141421   0.580   6.781   1.049  1.8745 -0.1124  0.1269
 5742TIP3    H241422   0.574   6.931   1.070  0.4666 -0.2330  0.7341
 5743TIP3   OH241423   6.397   3.095   8.925  0.0341 -0.1573 -0.6553
 5743TIP3    H141424   6.423   3.067   8.838 -0.6814 -0.2733 -0.8427
 5743TIP3    H241425   6.478   3.095   8.976  0.5335  0.3157 -1.4228
 5744TIP3   OH241426   6.222   1.851   2.442 -0.2426  0.0737 -0.1562
 5744TIP3    H141427   6.192   1.864   2.352  0.1178  0.8790 -0.1675
 5744TIP3    H241428   6.273   1.929   2.462  0.2755 -0.4197  0.5076
 5745TIP3   OH241429   1.126   6.644   0.884 -0.0662  0.0214 -0.0116
 5745TIP3    H141430   1.178   6.626   0.962 -1.5080 -0.2596  0.9383
 5745TIP3    H241431   1.089   6.559   0.860 -0.3623  0.2676 -0.4421
 5746TIP3   OH241432   2.969   3.190   1.535  0.5337 -0.2675 -0.0629
 5746TIP3    H141433   2.969   3.168   1.442 -1.4609 -0.9732  0.0682
 5746TIP3    H241434   2.923   3.117   1.577 -1.7393  1.6791  1.0243
 5747TIP3   OH241435   4.918   7.425   0.769 -0.4730 -0.5980 -0.1003
 5747TIP3    H141436   4.825   7.408   0.778 -0.5671 -0.4131 -0.6695
 5747TIP3    H241437   4.957   7.339   0.753 -0.4948 -0.7242  0.5136
 5748TIP3   OH241438   6.853   6.633   1.579  0.3122  0.3639 -0.4109
 5748TIP3    H141439   6.826   6.541   1.582  0.8008  0.2328  2.0354
 5748TIP3    H241440   6.941   6.633   1.615  0.1132  1.8627  0.1269
 5749TIP3   OH241441   5.154   3.070   1.140 -0.1441 -0.3597 -0.1500
 5749TIP3    H141442   5.101   3.112   1.208 -0.1585  0.2161 -0.5160
 5749TIP3    H241443   5.163   2.980   1.170 -0.3866 -0.1817  0.4799
 5750TIP3   OH241444   1.287   1.651   3.108 -0.4170  0.3464  0.5302
 5750TIP3    H141445   1.193   1.639   3.121 -0.6534  0.9330 -0.5645
 5750TIP3    H241446   1.319   1.565   3.079 -0.3124 -0.2948  2.4020
 5751TIP3   OH241447   0.127   2.083   1.028 -0.1488  1.1994  0.0495
 5751TIP3    H141448   0.132   2.176   1.004  1.2954  1.3861  0.9306
 5751TIP3    H241449   0.118   2.084   1.123 -2.3892  0.4312 -0.0998
 5752TIP3   OH241450   0.477   2.139   2.663  0.4331  0.4527 -0.2886
 5752TIP3    H141451   0.385   2.158   2.683  0.4584  0.9929 -0.6680
 5752TIP3    H241452   0.501   2.205   2.598  1.4724  1.1433  0.7547
 5753TIP3   OH241453   0.062   0.313   0.392  0.8446  1.0912  0.4167
 5753TIP3    H141454   0.010   0.392   0.378  0.7699  1.3263  1.8540
 5753TIP3    H241455  -0.002   0.242   0.394  1.0365  0.7653 -2.2596
 5754TIP3   OH241456   2.827   5.972   0.725 -0.0968  0.0726  0.2039
 5754TIP3    H141457   2.836   5.989   0.819 -0.5356  0.6908  0.1416
 5754TIP3    H241458   2.754   6.027   0.698 -1.8699 -2.2128  0.0275
 5755TIP3   OH241459   5.165   4.904   1.572  0.0761 -0.0017  0.0980
 5755TIP3    H141460   5.126   4.820   1.547  1.3176 -0.7950  0.7160
 5755TIP3    H241461   5.187   4.894   1.665 -2.7157  2.2007  1.1468
 5756TIP3   OH241462   3.748   1.813   0.587 -0.5730  0.7270  0.3967
 5756TIP3    H141463   3.796   1.774   0.660 -1.3160 -1.4670 -0.2125
 5756TIP3    H241464   3.811   1.871   0.546 -0.4070  2.7679  3.2606
 5757TIP3   OH241465   3.608   5.036   1.465  0.4471 -0.6899  0.0870
 5757TIP3    H141466   3.645   5.101   1.405 -0.0031 -1.7207 -1.3595
 5757TIP3    H241467   3.546   5.086   1.518  1.9647  0.5412  0.7700
 5758TIP3   OH241468   1.508   6.372   1.060  0.1175  0.2516  0.0772
 5758TIP3    H141469   1.535   6.290   1.103  2.6722  0.4809 -0.9536
 5758TIP3    H241470   1.519   6.439   1.128 -1.7429 -0.1312  0.8455
 5759TIP3   OH241471   1.478   7.385   2.539  0.5172  0.4893 -1.3322
 5759TIP3    H141472   1.490   7.448   2.610  1.5580  0.9756 -1.9137
 5759TIP3    H241473   1.482   7.300   2.582 -0.5455  0.7849 -0.5875
 5760TIP3   OH241474   3.997   7.402   0.913  0.2037 -0.2900 -0.2433
 5760TIP3    H141475   3.994   7.497   0.924  1.2070 -0.1629 -0.9197
 5760TIP3    H241476   3.920   7.382   0.859  0.7605  0.3269 -1.2904
 5761TIP3   OH241477   0.535   7.118   1.109 -0.2357 -0.6645 -0.0700
 5761TIP3    H141478   0.440   7.125   1.119 -0.5950 -1.5925 -2.2470
 5761TIP3    H241479   0.556   7.186   1.045  0.6412 -0.2985  0.5858
 5762TIP3   OH241480   2.813   7.655   0.833 -0.0621 -0.0468 -0.7938
 5762TIP3    H141481   2.887   7.661   0.893 -0.6336 -0.3572 -0.0366
 5762TIP3    H241482   2.789   7.746   0.815 -1.7568  0.1183  1.8409
 5763TIP3   OH241483   3.624   6.749   1.080 -0.1035 -0.4309 -0.0125
 5763TIP3    H141484   3.554   6.685   1.094 -0.1072 -0.1775  1.2679
 5763TIP3    H241485   3.663   6.761   1.166  0.3482  0.7675 -0.3636
 5764TIP3   OH241486   1.285   5.047   1.911  0.7317 -0.1087  0.1183
 5764TIP3    H141487   1.256   5.041   1.820  1.2452 -0.9943  0.0016
 5764TIP3    H241488   1.284   5.141   1.930  1.5219  0.1752 -1.1152
 5765TIP3   OH241489   1.618   4.407   2.342 -0.0862 -0.7742 -0.5556
 5765TIP3    H141490   1.706   4.418   2.307  0.1065  0.4955  0.2528
 5765TIP3    H241491   1.579   4.494   2.336 -0.5356 -0.8301  0.9935
 5766TIP3   OH241492   6.273   1.581   2.366  0.3129 -0.3247 -0.1107
 5766TIP3    H141493   6.318   1.665   2.362  0.1422 -0.2101  0.3266
 5766TIP3    H241494   6.194   1.598   2.418 -0.4087 -0.4382 -1.1332
 5767TIP3   OH241495   3.882   4.842   2.741  0.1877  0.4525  0.4816
 5767TIP3    H141496   3.890   4.811   2.651  0.8713  1.1417  0.2885
 5767TIP3    H241497   3.972   4.863   2.767 -0.1915  1.9122  0.7150
 5768TIP3   OH241498   5.029   2.357   1.160 -0.2859  0.3031 -0.6080
 5768TIP3    H141499   5.065   2.406   1.086 -1.4036 -1.5964 -2.5465
 5768TIP3    H241500   5.097   2.294   1.183 -0.3715  0.1276 -0.8239
 5769TIP3   OH241501   4.491   2.231   2.463  0.1997 -0.0296  0.1848
 5769TIP3    H141502   4.509   2.186   2.380  0.3773  1.5961 -0.7035
 5769TIP3    H241503   4.569   2.284   2.478 -0.3074  0.5527  0.7968
 5770TIP3   OH241504   3.157   7.084   2.028  0.3009 -0.6427  0.1735
 5770TIP3    H141505   3.187   7.173   2.012  0.6706 -0.6701  0.7098
 5770TIP3    H241506   3.234   7.037   2.059  0.1093 -1.1516 -0.0952
 5771TIP3   OH241507   3.429   1.497   0.617  0.0812 -0.3792  0.1445
 5771TIP3    H141508   3.391   1.531   0.698  0.7709 -2.0908  1.2468
 5771TIP3    H241509   3.363   1.438   0.583  0.2569 -0.5407  0.0840
 5772TIP3   OH241510   5.691   1.475   1.321 -0.0366  0.4752  0.1682
 5772TIP3    H141511   5.763   1.441   1.374  0.4560  0.3468 -0.5829
 5772TIP3    H241512   5.720   1.466   1.231 -1.0027  0.3914 -0.1504
 5773TIP3   OH241513   1.715   6.970   2.717  0.7279 -0.0410  0.1757
 5773TIP3    H141514   1.653   6.899   2.734  1.5897 -0.6450  0.8469
 5773TIP3    H241515   1.773   6.935   2.650  1.5381 -0.2154  0.9538
 5774TIP3   OH241516   5.701   3.962   0.709 -0.1510  0.0175  0.1840
 5774TIP3    H141517   5.627   3.930   0.760 -0.1590  1.1678  0.9241
 5774TIP3    H241518   5.672   4.046   0.674 -0.4054 -1.0480 -2.3602
 5775TIP3   OH241519   7.404   0.941   2.383 -0.2870 -0.2360  0.0559
 5775TIP3    H141520   7.395   0.850   2.411 -0.7030 -0.2549 -0.1254
 5775TIP3    H241521   7.434   0.988   2.461  0.4100 -0.6073  0.0218
 5776TIP3   OH241522   6.792   3.610   2.641 -0.4131  0.1409 -0.4794
 5776TIP3    H141523   6.777   3.687   2.696  0.7221 -0.6057  0.9412
 5776TIP3    H241524   6.704   3.577   2.620 -0.8899 -0.0437  1.6292
 5777TIP3   OH241525   0.005   1.638   3.211  0.2252 -0.0455 -0.7291
 5777TIP3    H141526   0.058   1.709   3.248 -0.1909  0.1770 -0.5526
 5777TIP3    H241527  -0.010   1.579   3.285  0.2632 -0.1289 -0.7884
 5778TIP3   OH241528   6.355   3.909   2.048 -0.3414 -0.1213  0.5409
 5778TIP3    H141529   6.448   3.913   2.070  0.1340 -0.5406 -1.2196
 5778TIP3    H241530   6.324   3.999   2.060  0.4515  0.1694  0.4857
 5779TIP3   OH241531   4.393   1.304   2.337 -0.1475  0.1387  0.0235
 5779TIP3    H141532   4.476   1.269   2.369 -0.8929 -0.5075  1.3445
 5779TIP3    H241533   4.402   1.399   2.347 -0.2378 -0.0153  1.9966
 5780TIP3   OH241534   4.835   3.684   1.051  0.7025 -0.3079  0.2387
 5780TIP3    H141535   4.871   3.601   1.079  2.1365  0.6826  1.4955
 5780TIP3    H241536   4.858   3.690   0.958  0.4233 -1.3652  0.0879
 5781TIP3   OH241537   2.863   2.579   0.680 -0.4825 -0.3756  0.3032
 5781TIP3    H141538   2.915   2.499   0.678  0.2852  0.1146  0.4716
 5781TIP3    H241539   2.774   2.549   0.696 -0.2661 -1.2268 -0.0471
 5782TIP3   OH241540   3.245   1.401   1.381  0.2113  0.3577 -0.9528
 5782TIP3    H141541   3.318   1.454   1.412 -0.1358  1.1095 -1.3928
 5782TIP3    H241542   3.253   1.319   1.429  0.5158  0.9550  0.0471
 5783TIP3   OH241543   2.231   3.225   2.849  0.4707 -0.2482  0.1243
 5783TIP3    H141544   2.248   3.248   2.940 -0.4799  3.2656 -0.4268
 5783TIP3    H241545   2.316   3.233   2.806  0.2607  2.4157  0.0323
 5784TIP3   OH241546   0.190   5.478   0.782  0.1290 -0.1412 -0.7203
 5784TIP3    H141547   0.271   5.529   0.792  0.3455 -0.4419 -0.9205
 5784TIP3    H241548   0.217   5.400   0.734 -0.2078 -0.4296 -0.4422
 5785TIP3   OH241549   6.060   5.297   3.083 -0.0292 -0.0994  0.3227
 5785TIP3    H141550   5.987   5.341   3.127 -0.6776 -0.1903 -0.6420
 5785TIP3    H241551   6.104   5.367   3.034  0.1271 -0.1665  0.3678
 5786TIP3   OH241552   3.540   6.056   1.735 -0.0139 -0.1891  0.2129
 5786TIP3    H141553   3.564   6.139   1.776  0.5360 -0.2484  0.0140
 5786TIP3    H241554   3.453   6.073   1.697 -0.8697 -0.3449  1.9712
 5787TIP3   OH241555   6.924   2.691   2.561 -0.1586 -0.8731  0.0991
 5787TIP3    H141556   6.959   2.731   2.482 -0.8593 -0.9368 -0.2505
 5787TIP3    H241557   6.829   2.704   2.555 -0.0906  0.9058  1.9082
 5788TIP3   OH241558   6.836   7.400   3.588  0.1270  0.0500  0.5580
 5788TIP3    H141559   6.799   7.454   3.518 -1.7177  0.2613  1.6518
 5788TIP3    H241560   6.889   7.461   3.640 -0.5908  0.4619  0.8180
 5789TIP3   OH241561   1.083   1.446   1.896  0.1079  0.0017 -0.0642
 5789TIP3    H141562   1.166   1.491   1.877  0.4568 -0.1897  0.9561
 5789TIP3    H241563   1.110   1.358   1.922 -0.4093  0.0174  0.5141
 5790TIP3   OH241564   7.122   0.673   1.293  0.0716 -0.2191  0.0080
 5790TIP3    H141565   7.153   0.586   1.317  1.1246 -0.5818 -2.3972
 5790TIP3    H241566   7.184   0.733   1.335 -0.3126 -0.6250  1.1889
 5791TIP3   OH241567   7.476   1.630   1.102 -0.2174 -0.3007 -0.3784
 5791TIP3    H141568   7.468   1.535   1.089 -0.1766 -0.3957  0.2596
 5791TIP3    H241569   7.568   1.644   1.125 -0.4809 -0.2551  0.6796
 5792TIP3   OH241570   5.036   3.771   2.298  0.0969 -0.1013  0.3219
 5792TIP3    H141571   4.986   3.817   2.231  0.6297 -0.9857 -0.6980
 5792TIP3    H241572   5.125   3.806   2.290  0.6859 -1.7803 -0.9589
 5793TIP3   OH241573   0.249   2.943   1.739  0.7074  0.0895  0.0829
 5793TIP3    H141574   0.207   2.881   1.679 -1.3596 -0.9196  2.3919
 5793TIP3    H241575   0.319   2.893   1.781  1.2763  0.3977 -0.4730
 5794TIP3   OH241576   4.146   2.697   0.929  0.6688 -0.1640  0.8278
 5794TIP3    H141577   4.118   2.738   1.011 -1.8266  1.6482 -0.7752
 5794TIP3    H241578   4.231   2.736   0.910 -0.5506  2.6002  0.5754
 5795TIP3   OH241579   7.267   6.070   2.985  0.1873 -0.5666 -0.0898
 5795TIP3    H141580   7.329   6.023   2.929  0.3517 -2.4801  1.5789
 5795TIP3    H241581   7.187   6.018   2.981 -0.5837  0.6210 -0.4305
 5796TIP3   OH241582   2.811   7.326   2.130  0.0069 -0.2938 -0.1479
 5796TIP3    H141583   2.882   7.280   2.175  2.2926  0.5076 -2.6932
 5796TIP3    H241584   2.745   7.340   2.198  2.1593 -1.2839  2.3016
 5797TIP3   OH241585   5.999   5.888   2.513 -0.4547 -0.4508  0.0633
 5797TIP3    H141586   5.927   5.852   2.461  1.2526 -1.1917 -1.9338
 5797TIP3    H241587   6.017   5.973   2.473 -1.0810  0.3789  1.4600
 5798TIP3   OH241588   3.325   5.677   2.519 -0.7215 -0.1415  0.0300
 5798TIP3    H141589   3.384   5.602   2.508 -2.1570 -1.1903 -0.7451
 5798TIP3    H241590   3.307   5.679   2.613  0.4965  0.1810  0.2826
 5799TIP3   OH241591   0.325   3.177   3.559 -0.1008  0.3998 -0.0580
 5799TIP3    H141592   0.317   3.272   3.570  0.7959  0.4523  0.1839
 5799TIP3    H241593   0.236   3.144   3.575 -0.3421  1.1614  0.2396
 5800TIP3   OH241594   1.143   0.112   2.099 -0.1141  0.0053 -0.4569
 5800TIP3    H141595   1.234   0.132   2.075  0.0025 -1.1304 -1.0259
 5800TIP3    H241596   1.094   0.190   2.072  0.7589  0.9122  0.4630
 5801TIP3   OH241597   5.673   0.143   1.106  0.4091 -0.6042  0.0290
 5801TIP3    H141598   5.626   0.200   1.045 -0.0036 -1.7646 -0.7694
 5801TIP3    H241599   5.613   0.070   1.121 -0.7770  0.8668  4.0331
 5802TIP3   OH241600   7.353   1.685   2.099 -0.0027 -0.0015 -0.3044
 5802TIP3    H141601   7.337   1.753   2.164  0.5684 -2.0241  2.1135
 5802TIP3    H241602   7.266   1.661   2.066 -0.3466  0.6845  0.0956
 5803TIP3   OH241603   5.801   0.841   2.057  0.2148  0.7022  0.0662
 5803TIP3    H141604   5.803   0.787   1.978  1.6167  1.7632 -0.6662
 5803TIP3    H241605   5.853   0.792   2.120 -0.0178  0.3551 -0.0059
 5804TIP3   OH241606   6.776   6.155   1.907  0.2259  0.1417 -0.0022
 5804TIP3    H141607   6.720   6.228   1.880  1.2284  1.6249  1.7140
 5804TIP3    H241608   6.762   6.146   2.001  1.0800 -1.0465  0.0409
 5805TIP3   OH241609   1.887   4.205   2.284  0.6268  0.2994 -0.8600
 5805TIP3    H141610   1.891   4.286   2.234  0.1435  0.2221 -1.0230
 5805TIP3    H241611   1.959   4.212   2.347  0.4864  0.9198 -0.7674
 5806TIP3   OH241612   7.148   1.939   3.206  0.5449  0.2591 -0.0022
 5806TIP3    H141613   7.086   1.984   3.149  0.1382  0.5537  0.6727
 5806TIP3    H241614   7.094   1.885   3.263  0.9535 -0.0453  0.1007
 5807TIP3   OH241615   5.633   3.926   1.259 -0.3433 -0.6420 -0.3228
 5807TIP3    H141616   5.632   3.985   1.184  0.0571 -0.2806 -0.0476
 5807TIP3    H241617   5.713   3.875   1.249  0.5012  0.4414  0.6394
 5808TIP3   OH241618   4.095   3.292   2.720 -0.1182 -0.1992  0.0975
 5808TIP3    H141619   4.018   3.274   2.775 -0.7907  1.2626 -0.3087
 5808TIP3    H241620   4.169   3.261   2.772 -0.8329  0.0442  1.3103
 5809TIP3   OH241621   5.974   6.537   2.554 -0.2975 -0.6006 -0.1711
 5809TIP3    H141622   6.044   6.555   2.617  0.2708 -1.9934 -0.3664
 5809TIP3    H241623   5.997   6.589   2.478 -0.0539 -0.2311  0.1496
 5810TIP3   OH241624   1.511   1.932   1.568 -0.8057  0.5507  0.5681
 5810TIP3    H141625   1.531   1.903   1.658  0.1663 -0.0268  0.1884
 5810TIP3    H241626   1.583   1.896   1.516 -1.4341  0.7797 -0.4651
 5811TIP3   OH241627   3.359   3.462   2.006 -0.5784  0.4392 -0.2268
 5811TIP3    H141628   3.281   3.417   2.039 -0.2481 -0.0424 -0.1037
 5811TIP3    H241629   3.327   3.514   1.931 -1.2395  1.1684  0.5417
 5812TIP3   OH241630   6.244   6.240   1.173 -0.0010 -0.8641 -0.1023
 5812TIP3    H141631   6.332   6.204   1.185  0.6567  0.5726 -0.2961
 5812TIP3    H241632   6.227   6.289   1.254 -0.4910 -0.8567 -0.2038
 5813TIP3   OH241633   5.590   5.736   1.731  0.0228 -0.3332 -0.2567
 5813TIP3    H141634   5.515   5.686   1.764 -1.0261  1.0333 -0.4835
 5813TIP3    H241635   5.634   5.768   1.810 -0.1471 -0.4057 -0.1311
 5814TIP3   OH241636   5.705   1.539   1.630 -0.0484  0.4501 -0.6421
 5814TIP3    H141637   5.652   1.581   1.562 -1.6083 -0.0934  0.1901
 5814TIP3    H241638   5.708   1.447   1.604  1.5464  0.6652 -1.3185
 5815TIP3   OH241639   5.459   6.724   1.823  0.0504 -0.3564 -0.1913
 5815TIP3    H141640   5.483   6.794   1.884 -0.3084 -1.7810  1.6746
 5815TIP3    H241641   5.509   6.648   1.852 -1.7119 -1.6331 -0.3220
 5816TIP3   OH241642   4.672   2.409   2.575 -0.1450  0.3980 -0.2106
 5816TIP3    H141643   4.721   2.420   2.493  0.8024 -2.3527 -0.1286
 5816TIP3    H241644   4.738   2.420   2.644 -0.3518 -0.0385  0.0588
 5817TIP3   OH241645   4.811   2.655   1.863  0.4999 -0.4098 -0.2456
 5817TIP3    H141646   4.810   2.696   1.777  1.1094 -1.8455 -0.9714
 5817TIP3    H241647   4.719   2.647   1.887  0.3688  1.6875  0.1088
 5818TIP3   OH241648   1.935   7.206   1.605 -0.0116 -0.0390 -0.0330
 5818TIP3    H141649   1.945   7.276   1.669 -0.6929 -0.7443  0.8643
 5818TIP3    H241650   2.025   7.186   1.577  0.3221  0.0795  0.9265
 5819TIP3   OH241651   3.330   3.132   0.514  0.1599 -0.1589  0.4860
 5819TIP3    H141652   3.238   3.103   0.511  0.5407 -1.3395 -0.5732
 5819TIP3    H241653   3.330   3.216   0.467 -0.3514 -0.2678  0.2807
 5820TIP3   OH241654   1.014   2.400   1.967  0.4819 -0.4095 -0.4774
 5820TIP3    H141655   1.080   2.470   1.971  2.1378 -1.7974 -1.7933
 5820TIP3    H241656   0.983   2.402   1.877 -0.9588 -0.1115  0.0036
 5821TIP3   OH241657   6.657   7.618   1.776  0.0360  0.4522 -0.2762
 5821TIP3    H141658   6.647   7.525   1.757  1.7608  0.1092  0.3052
 5821TIP3    H241659   6.711   7.621   1.855 -2.5337  1.9292  1.5687
 5822TIP3   OH241660   7.078   3.753   1.155  0.4913 -0.1892 -0.0643
 5822TIP3    H141661   7.155   3.804   1.132  0.1322  0.6806  0.6091
 5822TIP3    H241662   7.036   3.733   1.070  0.8958  0.2105 -0.3598
 5823TIP3   OH241663   0.543   5.328   1.722 -0.2886  0.4275  0.1499
 5823TIP3    H141664   0.471   5.272   1.693  0.1569 -0.3441  0.5165
 5823TIP3    H241665   0.581   5.362   1.641 -0.7163  0.3979 -0.0655
 5824TIP3   OH241666   5.964   2.155   1.003  0.1605  0.7825 -0.7034
 5824TIP3    H141667   6.037   2.097   0.979  0.9590  0.9921  1.0274
 5824TIP3    H241668   5.886   2.103   0.984  0.8445 -0.6864  0.2673
 5825TIP3   OH241669   5.196   5.570   1.094 -0.3413 -0.0940  0.3406
 5825TIP3    H141670   5.192   5.629   1.019 -0.0486  1.3630  1.4103
 5825TIP3    H241671   5.170   5.485   1.060  1.3704  0.1545 -1.7565
 5826TIP3   OH241672   2.849   3.215   3.248 -0.3114 -0.1704 -0.2138
 5826TIP3    H141673   2.835   3.248   3.337 -1.5894 -1.2226 -0.0016
 5826TIP3    H241674   2.775   3.249   3.198 -0.4904 -0.9386 -0.4853
 5827TIP3   OH241675   1.916   1.053   1.692 -0.7569  0.8196 -0.0784
 5827TIP3    H141676   1.957   1.010   1.767 -1.7320 -0.9465 -0.4974
 5827TIP3    H241677   1.869   0.983   1.648 -1.0104  2.0225 -1.7983
 5828TIP3   OH241678   3.152   6.698   2.574  0.4441 -0.3586  0.3835
 5828TIP3    H141679   3.107   6.614   2.585 -0.0468 -0.2682 -0.7229
 5828TIP3    H241680   3.196   6.714   2.657 -2.4903  0.0730  1.9812
 5829TIP3   OH241681   0.925   5.958   2.298 -0.2886  0.0600  0.2222
 5829TIP3    H141682   0.992   5.990   2.359 -0.5628 -1.3318  1.2989
 5829TIP3    H241683   0.867   5.905   2.352 -1.0163 -0.5442 -1.1123
 5830TIP3   OH241684   2.045   0.954   1.921  1.1127 -0.4076  0.2569
 5830TIP3    H141685   2.125   0.958   1.972 -0.6030  2.2722  3.0798
 5830TIP3    H241686   1.975   0.976   1.983 -1.3321  1.9201 -2.9274
 5831TIP3   OH241687   1.968   1.542   2.148 -0.0593 -0.6911 -0.2064
 5831TIP3    H141688   2.021   1.483   2.093 -1.4259 -2.2035  0.0339
 5831TIP3    H241689   1.930   1.485   2.215 -0.9874  0.5750  0.3812
 5832TIP3   OH241690   2.162   6.039   0.623  0.0748 -0.0420 -0.3102
 5832TIP3    H141691   2.122   6.021   0.708  3.6517  0.0191  1.5783
 5832TIP3    H241692   2.123   6.122   0.596 -0.8789  0.1417  1.4472
 5833TIP3   OH241693   4.107   6.275   2.774  0.6279  0.4787  0.0791
 5833TIP3    H141694   4.165   6.238   2.840  0.3839  2.3744  1.4310
 5833TIP3    H241695   4.036   6.212   2.765  1.0854 -0.1817  1.0092
 5834TIP3   OH241696   4.815   2.665   2.221  0.3192  0.0343 -0.3959
 5834TIP3    H141697   4.876   2.592   2.234 -1.5023 -1.6438 -0.7306
 5834TIP3    H241698   4.746   2.628   2.165 -1.2591  1.6803  0.3906
 5835TIP3   OH241699   5.717   4.323   2.809  0.4041 -0.1840  0.2376
 5835TIP3    H141700   5.798   4.309   2.858  0.9496 -2.2980 -1.1253
 5835TIP3    H241701   5.651   4.273   2.857  0.5870 -0.9291 -0.2720
 5836TIP3   OH241702   7.127   6.918   2.605 -0.3241 -0.2612  0.7491
 5836TIP3    H141703   7.200   6.979   2.612 -0.5474  0.1286 -0.1826
 5836TIP3    H241704   7.164   6.834   2.632  0.8360 -0.3384 -0.8886
 5837TIP3   OH241705   4.644   1.757   2.309  0.0836 -0.0046  0.3658
 5837TIP3    H141706   4.555   1.792   2.313 -0.0306  0.0891 -1.9089
 5837TIP3    H241707   4.641   1.678   2.363 -1.4451 -0.1128  0.1693
 5838TIP3   OH241708   2.908   5.271   1.837 -0.0713 -0.2155  0.3519
 5838TIP3    H141709   2.820   5.267   1.800 -0.4451  0.9780  1.0495
 5838TIP3    H241710   2.940   5.359   1.814  1.6945 -1.2460 -1.4961
 5839TIP3   OH241711   0.340   1.902   1.818  0.1531 -0.2485  0.1578
 5839TIP3    H141712   0.327   1.838   1.888 -1.6424 -1.4297 -1.1716
 5839TIP3    H241713   0.324   1.987   1.860 -0.3682 -0.8904  1.2949
 5840TIP3   OH241714   5.636   2.212   1.701  0.2357 -0.1389 -0.3790
 5840TIP3    H141715   5.612   2.149   1.769  0.5962  1.3459  1.1909
 5840TIP3    H241716   5.617   2.297   1.740  2.7076  0.8786 -1.2040
 5841TIP3   OH241717   5.692   2.893   0.625 -0.1216  0.4500 -0.8658
 5841TIP3    H141718   5.662   2.892   0.534  1.6335  1.3993 -1.5014
 5841TIP3    H241719   5.757   2.823   0.630 -0.7015 -0.0630 -0.1221
 5842TIP3   OH241720   2.902   5.061   1.491 -0.2360  0.0929  0.4857
 5842TIP3    H141721   2.892   5.134   1.553 -0.5850  0.8272 -0.4095
 5842TIP3    H241722   2.969   5.091   1.430  0.6517 -0.9330  0.9245
 5843TIP3   OH241723   4.563   6.318   1.054 -0.0667 -0.3617  0.3762
 5843TIP3    H141724   4.576   6.382   0.985 -2.1588  0.4302  0.6466
 5843TIP3    H241725   4.648   6.314   1.099  0.8974  0.1746 -1.2925
 5844TIP3   OH241726   6.698   4.096   2.478  0.3094  0.1033 -0.4824
 5844TIP3    H141727   6.721   4.155   2.549  1.0410 -0.4166 -0.2725
 5844TIP3    H241728   6.767   4.029   2.479  1.0402  0.7268 -2.4343
 5845TIP3   OH241729   2.882   2.349   2.986  0.1461 -0.2252  0.1318
 5845TIP3    H141730   2.908   2.406   3.058 -1.5424  1.2387 -0.3428
 5845TIP3    H241731   2.808   2.299   3.020  2.3542 -3.2429  0.9772
 5846TIP3   OH241732   6.197   0.257   0.772  0.1391 -0.0519  0.2990
 5846TIP3    H141733   6.246   0.299   0.843 -0.1809 -0.9359  1.0677
 5846TIP3    H241734   6.239   0.172   0.762  0.5383  0.2861 -0.9728
 5847TIP3   OH241735   2.985   7.653   2.173 -0.2576 -0.0800 -0.2061
 5847TIP3    H141736   3.052   7.721   2.181  0.3240 -0.5672 -0.7914
 5847TIP3    H241737   2.987   7.606   2.257 -1.2571  1.1318  0.5298
 5848TIP3   OH241738   6.608   7.348   1.735  0.0604  0.0267  0.2865
 5848TIP3    H141739   6.636   7.307   1.654 -2.1855 -2.0421  0.4472
 5848TIP3    H241740   6.513   7.348   1.731 -0.0915  2.6333  1.6452
 5849TIP3   OH241741   0.577   3.425   2.270  0.0042  0.0941  0.5956
 5849TIP3    H141742   0.591   3.449   2.361  0.8180  1.1288  0.2174
 5849TIP3    H241743   0.664   3.403   2.237 -0.1209  0.7269 -0.1911
 5850TIP3   OH241744   3.475   2.047   2.173 -0.5317  0.8093 -0.3003
 5850TIP3    H141745   3.501   2.123   2.225 -0.5781  1.5086 -1.2712
 5850TIP3    H241746   3.433   2.084   2.095  0.0831 -0.1873 -1.1362
 5851TIP3   OH241747   0.051   7.322   2.401 -0.6718  0.5740 -0.0185
 5851TIP3    H141748  -0.007   7.246   2.399 -2.2884  1.7460  0.4076
 5851TIP3    H241749   0.076   7.330   2.493 -2.0518  1.6460  0.2891
 5852TIP3   OH241750   4.977   5.779   2.764  0.4605  0.2522  0.1876
 5852TIP3    H141751   5.044   5.836   2.802  0.3809  0.1993  0.4089
 5852TIP3    H241752   5.008   5.690   2.780  1.0537  0.2238 -0.9949
 5853TIP3   OH241753   4.322   5.617   2.063  0.0709 -0.4580  0.1733
 5853TIP3    H141754   4.347   5.699   2.107 -0.8520  0.3269 -0.7141
 5853TIP3    H241755   4.394   5.557   2.082  0.5823  0.4345  1.1709
 5854TIP3   OH241756   2.988   2.546   2.464 -0.4399  0.3744 -0.2154
 5854TIP3    H141757   2.946   2.488   2.401  0.0506  1.0720 -1.2030
 5854TIP3    H241758   3.081   2.523   2.461 -0.3330  0.7896 -0.1544
 5855TIP3   OH241759   0.916   0.480   1.268  0.2199 -0.3378 -0.2803
 5855TIP3    H141760   0.887   0.497   1.357 -2.2565 -1.9161 -0.6887
 5855TIP3    H241761   0.951   0.391   1.271 -0.3710 -0.6071 -0.9590
 5856TIP3   OH241762   2.706   2.527   2.146  0.8730  0.1765 -0.0684
 5856TIP3    H141763   2.614   2.549   2.132 -0.1365 -2.7024  1.2315
 5856TIP3    H241764   2.743   2.604   2.188 -1.2584  0.9682  0.4603
 5857TIP3   OH241765   6.359   5.832   1.223  0.0092  0.6657 -0.3827
 5857TIP3    H141766   6.352   5.835   1.319 -1.1651 -0.8592 -0.3834
 5857TIP3    H241767   6.449   5.804   1.207 -0.5617 -1.9654  0.4247
 5858TIP3   OH241768   0.015   6.740   1.365  0.2481  0.1157  0.6957
 5858TIP3    H141769   0.018   6.764   1.458 -1.2224 -0.5326  0.9441
 5858TIP3    H241770   0.036   6.647   1.363  1.2857  0.3460  0.2480
 5859TIP3   OH241771   3.967   6.425   1.316  0.5633 -0.5965  0.5621
 5859TIP3    H141772   3.991   6.394   1.229  0.4313  0.0627  0.2878
 5859TIP3    H241773   4.038   6.394   1.373  0.3598 -1.5239  0.3251
 5860TIP3   OH241774   3.754   5.143   3.006 -0.1411 -0.2646 -0.7671
 5860TIP3    H141775   3.808   5.097   2.942  2.6617 -0.6745  1.6951
 5860TIP3    H241776   3.816   5.189   3.062 -2.3469 -0.3061  1.9723
 5861TIP3   OH241777   2.938   2.317   2.330  0.2717 -0.7483  0.1953
 5861TIP3    H141778   3.018   2.266   2.324  0.6611 -0.3165  1.5019
 5861TIP3    H241779   2.899   2.310   2.243  1.5181 -1.2892 -0.3415
 5862TIP3   OH241780   7.038   6.101   2.233  0.5665  0.8692  0.5793
 5862TIP3    H141781   6.999   6.020   2.199  3.1677  0.1518 -1.0260
 5862TIP3    H241782   6.969   6.166   2.224 -0.3866 -0.3343 -1.9160
 5863TIP3   OH241783   4.382   1.862   2.380 -0.3587  0.3506  0.1680
 5863TIP3    H141784   4.383   1.823   2.468  0.0353 -0.2417 -0.0882
 5863TIP3    H241785   4.337   1.945   2.391 -1.6560 -0.3856  0.6480
 5864TIP3   OH241786   2.231   4.442   0.542 -0.0494 -0.1174 -0.4117
 5864TIP3    H141787   2.262   4.364   0.589  0.1446  0.1649 -0.0640
 5864TIP3    H241788   2.274   4.515   0.587  0.2722  0.1490 -1.1315
 5865TIP3   OH241789   0.565   6.924   2.050  0.2151  0.4650  0.1916
 5865TIP3    H141790   0.528   6.950   2.134  2.6962 -1.1697  1.9039
 5865TIP3    H241791   0.577   6.829   2.057  3.8088  0.7455 -0.5077
 5866TIP3   OH241792   5.169   0.199   3.162 -0.0700 -0.2227 -0.6007
 5866TIP3    H141793   5.115   0.175   3.087 -2.9734 -1.8827  1.7765
 5866TIP3    H241794   5.219   0.120   3.181 -0.2263 -0.2093 -0.1249
 5867TIP3   OH241795   1.770   6.419   2.833  0.1728  0.2683  0.3753
 5867TIP3    H141796   1.864   6.405   2.828  0.2218  0.8267 -0.4015
 5867TIP3    H241797   1.733   6.331   2.823  0.5082  0.4231 -3.6304
 5868TIP3   OH241798   2.006   6.507   2.573 -0.2958  0.4179 -0.4416
 5868TIP3    H141799   2.001   6.448   2.648 -0.6138  1.3144  0.2511
 5868TIP3    H241800   1.958   6.585   2.600  1.4924  1.6752 -0.6944
 5869TIP3   OH241801   3.826   2.771   2.809 -0.3484 -0.2482  0.2232
 5869TIP3    H141802   3.855   2.843   2.865  2.2787 -0.5365 -0.6349
 5869TIP3    H241803   3.777   2.714   2.868 -0.7166  1.2090  1.3846
 5870TIP3   OH241804   4.000   0.301   2.214  0.7151 -0.2342 -0.7861
 5870TIP3    H141805   4.071   0.357   2.181 -0.1753  1.1756 -0.3801
 5870TIP3    H241806   4.004   0.223   2.159  0.9386  0.9274 -2.5066
 5871TIP3   OH241807   6.665   1.369   0.821 -0.0772 -0.1683  0.5004
 5871TIP3    H141808   6.714   1.331   0.895 -0.6289 -0.6173  0.6422
 5871TIP3    H241809   6.731   1.385   0.754  0.0150 -2.6426 -0.0860
 5872TIP3   OH241810   1.143   1.638   2.599  0.1581 -0.6301  0.1626
 5872TIP3    H141811   1.161   1.725   2.563  0.0588 -0.6394  0.0907
 5872TIP3    H241812   1.219   1.618   2.654 -0.5971  0.2513  1.6002
 5873TIP3   OH241813   4.229   1.843   1.812 -0.4901  0.5083 -0.5483
 5873TIP3    H141814   4.312   1.863   1.769  0.5489 -1.7910  0.2652
 5873TIP3    H241815   4.195   1.767   1.764 -0.7601 -0.2590  0.8041
 5874TIP3   OH241816   6.856   1.064   3.139  0.2129 -0.2406  0.3692
 5874TIP3    H141817   6.791   0.999   3.167 -1.0407 -0.1541 -2.0263
 5874TIP3    H241818   6.846   1.068   3.043  2.9004  0.7340  0.0383
 5875TIP3   OH241819   7.283   0.890   1.363  0.0565  0.6043  0.0092
 5875TIP3    H141820   7.374   0.873   1.388 -0.1904 -0.4372  0.2196
 5875TIP3    H241821   7.251   0.949   1.431  0.4606  0.6690  0.1492
 5876TIP3   OH241822   6.152   1.748   1.670 -0.0145 -0.0573  0.7726
 5876TIP3    H141823   6.151   1.782   1.580 -2.6476  2.5674  1.6341
 5876TIP3    H241824   6.076   1.691   1.676  1.0943 -1.5928  0.9747
 5877TIP3   OH241825   6.442   4.079   2.598 -0.1588 -0.5225 -0.1777
 5877TIP3    H141826   6.503   4.062   2.526 -0.0152  2.0179 -0.7504
 5877TIP3    H241827   6.480   4.033   2.673  2.4111  0.7495 -0.5746
 5878TIP3   OH241828   4.154   5.388   1.689  0.0696 -0.3181 -0.3886
 5878TIP3    H141829   4.153   5.292   1.685  0.6276 -0.3006 -1.4563
 5878TIP3    H241830   4.241   5.410   1.721 -0.0439 -0.1603 -0.1857
 5879TIP3   OH241831   0.289   4.036   3.612 -0.0337  0.0358  0.1591
 5879TIP3    H141832   0.293   3.943   3.637  0.7299  0.0492  0.1282
 5879TIP3    H241833   0.350   4.043   3.538 -1.5959  0.1634 -1.1881
 5880TIP3   OH241834   4.525   3.930   2.558  0.2431  0.4383  0.1834
 5880TIP3    H141835   4.469   3.885   2.621  0.7353  0.6401  0.7637
 5880TIP3    H241836   4.530   3.869   2.484 -1.1739  0.6430 -0.1108
 5881TIP3   OH241837   3.189   3.325   2.897 -0.1402 -0.4959  0.2643
 5881TIP3    H141838   3.203   3.263   2.826 -1.5405  0.7179 -1.1263
 5881TIP3    H241839   3.095   3.342   2.896  0.0642  0.8080  1.3389
 5882TIP3   OH241840   0.380   4.462   1.215 -0.2819  0.3012 -0.1868
 5882TIP3    H141841   0.421   4.398   1.158 -0.0233  0.9915 -0.7878
 5882TIP3    H241842   0.391   4.546   1.170 -0.4497  0.7997  0.6681
 5883TIP3   OH241843   6.095   4.762   0.686 -0.1592 -0.0213 -0.2469
 5883TIP3    H141844   6.099   4.691   0.622  1.1547 -0.4146  0.2314
 5883TIP3    H241845   6.046   4.727   0.760 -1.2987  0.2857 -0.8349
 5884TIP3   OH241846   6.941   2.550   1.229 -0.1498 -0.2691  0.1282
 5884TIP3    H141847   7.009   2.585   1.171 -0.4625  0.9795  0.4927
 5884TIP3    H241848   6.974   2.564   1.317  0.0335 -1.5759  0.2897
 5885TIP3   OH241849   6.960   0.553   2.543 -0.5123  0.3754 -0.1303
 5885TIP3    H141850   6.947   0.604   2.463  0.1730  1.7946  0.6400
 5885TIP3    H241851   6.874   0.552   2.585 -0.4802  1.0966 -0.0386
 5886TIP3   OH241852   1.432   0.520   2.122 -0.2394  0.5256 -0.6272
 5886TIP3    H141853   1.460   0.547   2.034  1.8133 -1.7691 -0.7764
 5886TIP3    H241854   1.428   0.602   2.172  0.0325  1.7089 -2.4485
 5887TIP3   OH241855   5.518   0.253   3.203  0.2770  0.0383 -0.4448
 5887TIP3    H141856   5.609   0.221   3.199 -0.0230 -1.0047  0.5681
 5887TIP3    H241857   5.470   0.181   3.243 -0.4839  1.6976  1.7790
 5888TIP3   OH241858   5.451   1.844   2.399  0.4345  0.4220 -0.1248
 5888TIP3    H141859   5.402   1.893   2.333 -0.4382 -0.3182 -0.0418
 5888TIP3    H241860   5.501   1.911   2.447 -0.3562  1.1730 -0.3290
 5889TIP3   OH241861   5.789   2.529   1.416 -0.2840  0.1609 -0.1588
 5889TIP3    H141862   5.795   2.445   1.462  0.7453  0.6309  0.6215
 5889TIP3    H241863   5.816   2.509   1.327 -0.9170 -0.4985 -0.2118
 5890TIP3   OH241864   0.662   7.319   1.565 -0.4911  0.3468 -0.2681
 5890TIP3    H141865   0.741   7.288   1.611 -1.1203  1.3972  1.6299
 5890TIP3    H241866   0.615   7.239   1.542  0.8325 -0.2746 -0.8950
 5891TIP3   OH241867   2.490   2.933   2.264  0.5148 -0.2022 -0.1848
 5891TIP3    H141868   2.412   2.887   2.235  1.0249 -2.2161  1.4088
 5891TIP3    H241869   2.478   3.023   2.233 -0.9051 -1.1724 -2.7267
 5892TIP3   OH241870   1.187   1.665   0.699 -0.7415  0.0870 -0.3664
 5892TIP3    H141871   1.171   1.681   0.792 -1.7506 -1.3868 -0.2470
 5892TIP3    H241872   1.099   1.664   0.660 -0.3431  0.5028 -1.3128
 5893TIP3   OH241873   5.511   1.173   0.365 -0.2288 -0.6233 -0.1816
 5893TIP3    H141874   5.497   1.093   0.315  0.5088 -0.6476 -0.3611
 5893TIP3    H241875   5.603   1.170   0.390 -0.4216 -0.2684  0.5855
 5894TIP3   OH241876   6.376   6.911   1.852  0.0811 -0.3921 -0.2340
 5894TIP3    H141877   6.429   6.933   1.776 -1.1334  1.8836 -0.5143
 5894TIP3    H241878   6.343   6.995   1.884 -0.9641 -1.4518  1.6872
 5895TIP3   OH241879   2.035   6.300   0.608  0.1136  0.0723  0.2966
 5895TIP3    H141880   2.035   6.360   0.682 -0.4915 -0.0304  0.3870
 5895TIP3    H241881   2.072   6.351   0.536  0.6284  0.1976  0.6426
 5896TIP3   OH241882   2.973   6.697   0.740 -0.0480  0.0812  0.0241
 5896TIP3    H141883   3.037   6.733   0.678  0.8754 -0.9152  0.3910
 5896TIP3    H241884   2.904   6.763   0.742  1.1981  1.4396  0.0244
 5897TIP3   OH241885   6.725   2.150   1.258 -0.1233 -0.3424 -0.1120
 5897TIP3    H141886   6.772   2.098   1.324  1.2160  0.2716 -0.5539
 5897TIP3    H241887   6.739   2.241   1.285 -1.0442 -0.1370 -0.2852
 5898TIP3   OH241888   5.674   6.038   0.658  0.5284 -0.1571 -0.1985
 5898TIP3    H141889   5.678   6.118   0.709  0.1562 -0.3678  0.1638
 5898TIP3    H241890   5.699   6.065   0.569 -0.0813  0.4591 -0.1944
 5899TIP3   OH241891   6.505   0.085   2.312 -0.1139 -0.7520 -0.6561
 5899TIP3    H141892   6.516   0.065   2.219 -0.5888 -1.1580 -0.6307
 5899TIP3    H241893   6.412   0.108   2.321 -0.2037 -1.2827 -0.1842
 5900TIP3   OH241894   3.598   3.993   2.275 -0.9900 -0.3950  0.3850
 5900TIP3    H141895   3.587   3.952   2.189 -1.0107 -0.9910  0.6627
 5900TIP3    H241896   3.576   3.923   2.337 -1.2267  0.1051  0.8698
 5901TIP3   OH241897   6.136   5.963   1.166  0.0238  0.0772  0.1004
 5901TIP3    H141898   6.217   5.916   1.189  0.7027  1.4596  0.6777
 5901TIP3    H241899   6.166   6.050   1.141 -1.3491  0.8021  0.8963
 5902TIP3   OH241900   7.388   2.705   1.418  0.6871  0.3817 -0.6369
 5902TIP3    H141901   7.415   2.627   1.467  2.4811 -0.7352 -3.1460
 5902TIP3    H241902   7.297   2.689   1.396  0.4172  0.0249  0.6757
 5903TIP3   OH241903   4.590   2.137   1.681 -0.4253 -0.2588 -0.0674
 5903TIP3    H141904   4.537   2.156   1.759 -2.3313 -0.4900 -1.2397
 5903TIP3    H241905   4.580   2.216   1.626 -0.0743 -0.5694 -0.5857
 5904TIP3   OH241906   5.353   4.625   1.638 -0.2220  0.0546 -0.1486
 5904TIP3    H141907   5.278   4.669   1.679  0.4672 -0.3469  1.6397
 5904TIP3    H241908   5.313   4.564   1.576 -1.2926  1.0869 -0.5129
 5905TIP3   OH241909   0.268   3.220   1.572 -0.6199  0.1371 -0.4670
 5905TIP3    H141910   0.230   3.153   1.516 -0.4258  1.4797 -2.3028
 5905TIP3    H241911   0.350   3.181   1.603 -1.0988 -0.9205 -0.4811
 5906TIP3   OH241912   5.809   5.553   1.265  0.0793 -0.1060  0.1450
 5906TIP3    H141913   5.841   5.638   1.294 -1.2610  1.1526 -1.8012
 5906TIP3    H241914   5.860   5.532   1.187 -1.0923  0.0616 -0.7093
 5907TIP3   OH241915   6.415   6.362   0.779 -0.7712 -0.0463 -0.3639
 5907TIP3    H141916   6.349   6.424   0.807 -0.1115  0.1823  0.7143
 5907TIP3    H241917   6.456   6.403   0.702  1.0210  1.8715  1.4699
 5908TIP3   OH241918   7.475   3.468   1.635 -0.4209  0.0497  0.6303
 5908TIP3    H141919   7.457   3.554   1.673 -1.7020  0.0044  0.1798
 5908TIP3    H241920   7.568   3.454   1.650  0.1475  2.1447 -0.5512
 5909TIP3   OH241921   6.475   6.639   2.243  0.4975  0.6461 -0.8137
 5909TIP3    H141922   6.409   6.690   2.198  1.1132  0.1516 -2.3564
 5909TIP3    H241923   6.440   6.626   2.331 -0.3558  2.3794 -0.8551
 5910TIP3   OH241924   3.301   7.111   2.279  0.5271 -0.1137  0.5103
 5910TIP3    H141925   3.269   7.096   2.368 -1.2493 -0.0151 -0.0812
 5910TIP3    H241926   3.321   7.023   2.247 -0.3813 -0.3202  0.4705
 5911TIP3   OH241927   5.670   2.071   2.144  0.0543 -0.1190  0.2117
 5911TIP3    H141928   5.691   1.979   2.163 -0.6421 -0.1041  1.1541
 5911TIP3    H241929   5.755   2.114   2.137  0.4620 -1.1238 -1.9675
 5912TIP3   OH241930   5.404   3.468   1.178 -0.0547  0.1981 -0.3807
 5912TIP3    H141931   5.497   3.458   1.160 -0.2141 -0.0959 -1.0648
 5912TIP3    H241932   5.393   3.562   1.191 -0.0996  0.6396 -3.0132
 5913TIP3   OH241933   2.352   5.788   1.424 -0.3809  0.2291 -0.4037
 5913TIP3    H141934   2.300   5.710   1.407 -0.1153 -0.4230  1.5895
 5913TIP3    H241935   2.288   5.856   1.445 -0.5712  0.3954 -1.4437
 5914TIP3   OH241936   5.399   2.622   0.651  0.5123 -0.2453 -0.6520
 5914TIP3    H141937   5.342   2.697   0.664  0.0751 -0.7056  0.1524
 5914TIP3    H241938   5.386   2.568   0.729 -0.2636 -1.8751 -1.8688
 5915TIP3   OH241939   0.862   5.883   1.223 -0.0956  0.0482 -0.4942
 5915TIP3    H141940   0.938   5.926   1.184  1.3003 -0.5730  1.3806
 5915TIP3    H241941   0.821   5.836   1.150  0.9078  0.9614 -1.6846
 5916TIP3   OH241942   4.108   6.696   1.151  0.4141  0.4873  0.0077
 5916TIP3    H141943   4.190   6.705   1.198  0.0114  2.3595  0.4636
 5916TIP3    H241944   4.123   6.740   1.067 -1.0339  4.2260  1.4567
 5917TIP3   OH241945   2.721   3.290   2.861 -0.0925  0.3550  0.1206
 5917TIP3    H141946   2.811   3.325   2.862 -0.0773  0.5326 -1.9499
 5917TIP3    H241947   2.688   3.307   2.949  1.6344  1.0277  0.6952
 5918TIP3   OH241948   4.140   1.753   0.937 -0.5697 -0.2230 -0.0829
 5918TIP3    H141949   4.152   1.768   1.030 -0.8833 -1.2045  0.1327
 5918TIP3    H241950   4.210   1.804   0.895  0.4528 -0.8656  0.7770
 5919TIP3   OH241951   5.264   0.535   3.445  0.3317  0.6869 -0.0172
 5919TIP3    H141952   5.349   0.500   3.417 -0.5458 -0.3178 -1.6598
 5919TIP3    H241953   5.285   0.606   3.505  2.3423  0.7738 -0.7409
 5920TIP3   OH241954   2.966   1.433   1.422 -0.4198 -0.4281  0.1643
 5920TIP3    H141955   2.931   1.431   1.511 -1.1345 -0.9915 -0.1197
 5920TIP3    H241956   3.061   1.434   1.434 -0.4812 -1.6300  0.9358
 5921TIP3   OH241957   3.396   1.543   1.818 -0.3931 -0.4855 -0.3266
 5921TIP3    H141958   3.458   1.610   1.792  0.6211 -0.9478  0.7964
 5921TIP3    H241959   3.398   1.479   1.747 -0.4900  0.0847 -0.8501
 5922TIP3   OH241960   0.738   5.181   0.715  0.7179  0.5546  0.1271
 5922TIP3    H141961   0.775   5.094   0.702  0.7556  0.6447 -0.3885
 5922TIP3    H241962   0.760   5.229   0.635 -0.1436  0.7383 -0.0159
 5923TIP3   OH241963   7.647   7.619   1.108 -0.2042 -0.5681 -0.0576
 5923TIP3    H141964   7.635   7.685   1.040 -1.9525  0.9341  1.5736
 5923TIP3    H241965   7.734   7.582   1.091  0.4289  1.4542 -1.6336
 5924TIP3   OH241966   7.610   6.484   1.608  0.1928 -0.1650  0.3303
 5924TIP3    H141967   7.616   6.411   1.546  0.8257 -0.5135  0.7864
 5924TIP3    H241968   7.701   6.512   1.620  0.1145 -0.2797  1.3000
 5925TIP3   OH241969   6.315   7.124   2.013  0.1046 -0.0296  0.2887
 5925TIP3    H141970   6.245   7.162   1.961  1.0166  0.2465 -0.7848
 5925TIP3    H241971   6.322   7.180   2.090 -0.4723  0.2696  0.1248
 5926TIP3   OH241972   2.992   5.352   1.519 -0.0333  0.1043 -0.3013
 5926TIP3    H141973   3.046   5.429   1.535  1.9868 -1.4823  0.9721
 5926TIP3    H241974   2.992   5.342   1.424 -0.3430  1.6187 -0.4966
 5927TIP3   OH241975   5.598   6.752   0.543 -0.5830  0.2044 -0.3758
 5927TIP3    H141976   5.598   6.844   0.518 -3.7599  0.0084 -1.4767
 5927TIP3    H241977   5.507   6.732   0.564 -0.2675 -3.0080 -1.4063
 5928TIP3   OH241978   1.173   3.987   2.777 -0.1212  0.6528  0.1033
 5928TIP3    H141979   1.247   3.927   2.783 -1.2977 -0.8558  0.0266
 5928TIP3    H241980   1.111   3.943   2.720 -0.6739  2.3574 -0.6806
 5929TIP3   OH241981   5.321   5.857   0.597  0.1780  0.2649 -0.2598
 5929TIP3    H141982   5.322   5.763   0.575 -1.3284 -0.2519  1.6136
 5929TIP3    H241983   5.380   5.864   0.672 -1.4156  0.3858  1.0172
 5930TIP3   OH241984   6.749   6.867   2.296  0.4607  0.4083  0.1272
 5930TIP3    H141985   6.740   6.788   2.243 -0.1237  0.6360 -0.1176
 5930TIP3    H241986   6.678   6.924   2.266  1.3717  1.3615 -0.2855
 5931TIP3   OH241987   3.038   5.947   2.049 -0.1497  0.0868  0.1243
 5931TIP3    H141988   3.122   5.991   2.033 -0.1013 -0.1992 -0.4173
 5931TIP3    H241989   2.974   6.018   2.053  0.3721  0.5016  2.4831
 5932TIP3   OH241990   0.756   3.330   0.524  0.8276 -0.2190  0.7033
 5932TIP3    H141991   0.833   3.354   0.472  0.0735 -1.4744 -1.1057
 5932TIP3    H241992   0.696   3.290   0.461 -1.4065  0.8582  2.0317
 5933TIP3   OH241993   2.812   1.236   3.075 -0.3389 -0.3451  0.3500
 5933TIP3    H141994   2.763   1.202   3.149  0.8694 -1.3710  0.7270
 5933TIP3    H241995   2.895   1.187   3.077  0.4934  0.9729 -0.5370
 5934TIP3   OH241996   5.886   3.049   1.056  0.1243  0.3837  0.0631
 5934TIP3    H141997   5.910   3.020   0.968 -0.4405 -0.3251  0.1303
 5934TIP3    H241998   5.810   2.996   1.078  1.3261 -0.7443  1.6918
 5935TIP3   OH241999   7.656   2.615   1.355 -0.5183  0.4242  0.5777
 5935TIP3    H142000   7.590   2.552   1.385 -0.9011 -0.0664 -1.1833
 5935TIP3    H242001   7.615   2.659   1.280  0.6642  1.0460  0.2716
 5936TIP3   OH242002   5.571   1.208   2.290  1.0575  0.1503 -0.1050
 5936TIP3    H142003   5.649   1.216   2.235  1.5844  0.0245  0.6085
 5936TIP3    H242004   5.500   1.194   2.228  1.6864 -0.3504 -0.7387
 5937TIP3   OH242005   4.138   6.124   2.519  0.0534 -0.3614 -0.1694
 5937TIP3    H142006   4.056   6.163   2.489  0.9586  0.8194 -1.2067
 5937TIP3    H242007   4.178   6.191   2.575  1.4531  0.1308 -1.6640
 5938TIP3   OH242008   0.486   1.423   1.129 -0.3120  0.4286 -0.2848
 5938TIP3    H142009   0.443   1.438   1.213  1.2728 -2.2051  1.1299
 5938TIP3    H242010   0.427   1.364   1.083 -0.6345  0.9699 -0.5829
 5939TIP3   OH242011   5.076   0.766   2.232 -0.3223 -0.4490 -0.5883
 5939TIP3    H142012   5.154   0.821   2.226 -0.6099  0.2376  1.2080
 5939TIP3    H242013   5.014   0.805   2.171  0.5776 -0.7506 -1.7244
 5940TIP3   OH242014   3.968   1.194   2.474 -0.3053  0.0680  0.1881
 5940TIP3    H142015   3.951   1.106   2.442  0.3464 -0.4790  1.2856
 5940TIP3    H242016   3.896   1.212   2.535 -0.5773  0.4118 -0.2229
 5941TIP3   OH242017   6.214   1.409   1.379 -0.0163  0.0165  0.0427
 5941TIP3    H142018   6.152   1.366   1.319 -1.4772  1.1121  0.6921
 5941TIP3    H242019   6.242   1.340   1.439  0.2664 -0.7443 -0.9436
 5942TIP3   OH242020   0.938   6.701   1.564 -0.1050 -0.0514 -0.2156
 5942TIP3    H142021   1.018   6.649   1.570  0.2291  0.4761 -0.0470
 5942TIP3    H242022   0.905   6.684   1.476 -1.3015 -2.4109  0.5994
 5943TIP3   OH242023   2.507   7.274   1.680  0.8383 -0.1206  0.5309
 5943TIP3    H142024   2.538   7.294   1.769  1.1030 -0.8770  0.6189
 5943TIP3    H242025   2.536   7.184   1.665  1.4209  0.2384 -0.5952
 5944TIP3   OH242026   2.060   2.209   2.094  0.4138  0.1269 -0.2354
 5944TIP3    H142027   1.985   2.243   2.045  0.1245 -0.1598  0.0113
 5944TIP3    H242028   2.090   2.135   2.042  0.3523  0.0673 -0.1855
 5945TIP3   OH242029   1.982   0.441   2.390  0.1475  0.1055  0.5248
 5945TIP3    H142030   2.068   0.424   2.427 -0.0239 -1.8203  0.1568
 5945TIP3    H242031   1.921   0.405   2.454 -0.4072  1.3824  0.7487
 5946TIP3   OH242032   4.663   3.835   2.319 -0.1011  0.3107 -0.2674
 5946TIP3    H142033   4.743   3.862   2.275  0.6565 -1.1908  0.1138
 5946TIP3    H242034   4.625   3.768   2.261  1.6154 -2.7042  1.7995
 5947TIP3   OH242035   3.451   0.303   0.680 -0.3537  0.0560  0.2489
 5947TIP3    H142036   3.525   0.318   0.621 -0.5697 -0.2536 -0.0987
 5947TIP3    H242037   3.411   0.389   0.690 -0.3839  0.0897 -0.1457
 5948TIP3   OH242038   4.648   7.335   0.774 -0.6667 -0.3733 -0.2342
 5948TIP3    H142039   4.609   7.322   0.860 -0.2201 -1.0483 -0.1212
 5948TIP3    H242040   4.584   7.386   0.725 -0.5172  0.8499  0.8038
 5949TIP3   OH242041   2.373   2.296   2.235 -0.0203 -0.3346 -0.6088
 5949TIP3    H142042   2.376   2.257   2.147  0.5979  1.0533 -1.2322
 5949TIP3    H242043   2.355   2.389   2.220 -1.4192 -0.3315  0.8363
 5950TIP3   OH242044   6.754   3.238   2.665 -0.2717 -0.1745 -0.0657
 5950TIP3    H142045   6.690   3.179   2.625  0.3785 -1.6487  1.0095
 5950TIP3    H242046   6.821   3.251   2.598 -1.5712  1.3135 -1.1752
 5951TIP3   OH242047   1.537   6.724   1.477 -0.0716  0.2291 -0.2641
 5951TIP3    H142048   1.571   6.709   1.565 -0.0840 -1.0544 -0.4602
 5951TIP3    H242049   1.595   6.792   1.441 -1.4947  2.5442  1.4940
 5952TIP3   OH242050   3.287   0.490   1.586 -0.0301  0.2086 -0.0818
 5952TIP3    H142051   3.358   0.425   1.582  1.0708  1.3701 -0.0415
 5952TIP3    H242052   3.298   0.541   1.506  0.1313  1.3597  0.6561
 5953TIP3   OH242053   6.595   6.006   1.691  0.0019 -0.1642  0.4347
 5953TIP3    H142054   6.546   6.047   1.620  0.3803  0.6992  0.6558
 5953TIP3    H242055   6.555   6.041   1.771 -1.1733 -1.9887  0.7056
 5954TIP3   OH242056   0.628   1.620   1.001 -0.1243 -0.2055  0.6808
 5954TIP3    H142057   0.635   1.676   1.079  0.9716 -0.8826  1.0899
 5954TIP3    H242058   0.589   1.539   1.033  0.4372 -0.5305  0.5626
 5955TIP3   OH242059   5.801   4.869   0.761 -0.7266  0.1186  0.0234
 5955TIP3    H142060   5.836   4.784   0.734 -1.5110  0.3307 -1.8239
 5955TIP3    H242061   5.865   4.902   0.824 -0.5481 -1.9462  1.0428
 5956TIP3   OH242062   6.349   2.160   7.601  0.0414 -0.0499 -0.0769
 5956TIP3    H142063   6.254   2.147   7.603 -0.0962  0.6872 -1.0604
 5956TIP3    H242064   6.361   2.250   7.630  0.4836 -0.2942  0.5090
 5957TIP3   OH242065   4.425   6.473   2.802 -0.2630  0.5406  0.2554
 5957TIP3    H142066   4.359   6.524   2.849 -0.2134 -0.7692  1.8375
 5957TIP3    H242067   4.413   6.384   2.833  1.5730  0.0833 -0.2112
 5958TIP3   OH242068   3.818   4.133   0.757 -0.0300 -0.0840  0.4882
 5958TIP3    H142069   3.850   4.188   0.829 -1.7999  0.7271  0.7116
 5958TIP3    H242070   3.748   4.185   0.717  0.6304 -0.6985 -1.5902
 5959TIP3   OH242071   6.960   1.572   1.715  0.0792  0.5845  0.0627
 5959TIP3    H142072   7.028   1.551   1.651  0.6007 -0.5397  0.9640
 5959TIP3    H242073   6.879   1.539   1.675  0.3761  0.0503 -0.1113
 5960TIP3   OH242074   6.822   7.011   1.685  0.0360  0.2926 -0.3326
 5960TIP3    H142075   6.816   7.062   1.766 -1.2911 -0.9741  0.4117
 5960TIP3    H242076   6.828   6.920   1.714  0.0515 -0.1494 -1.6597
 5961TIP3   OH242077   6.447   6.691   0.923 -0.2155 -0.2249  0.5693
 5961TIP3    H142078   6.397   6.760   0.968 -0.8098 -1.1117  1.3144
 5961TIP3    H242079   6.403   6.610   0.949  0.5762 -0.8974 -0.1602
 5962TIP3   OH242080   6.065   5.336   0.717  0.6240 -0.2562 -0.1151
 5962TIP3    H142081   6.003   5.408   0.718  0.9306  0.2696 -3.8641
 5962TIP3    H242082   6.141   5.370   0.669  1.0262 -2.8018 -1.4881
 5963TIP3   OH242083   3.360   3.983   2.671 -0.1326 -0.0475  0.4615
 5963TIP3    H142084   3.296   4.053   2.685  0.5229  0.4118  1.2338
 5963TIP3    H242085   3.429   4.000   2.735  0.3355 -1.0544  0.2465
 5964TIP3   OH242086   6.070   1.803   3.050  0.0441  0.0709 -0.1394
 5964TIP3    H142087   5.996   1.768   3.100  0.1974  0.0728  0.0943
 5964TIP3    H242088   6.147   1.768   3.095  0.2566  1.9796  1.0877
 5965TIP3   OH242089   5.123   0.206   2.054  0.5822 -0.7831  0.1625
 5965TIP3    H142090   5.145   0.286   2.101 -1.1910  0.6957 -1.3319
 5965TIP3    H242091   5.198   0.191   1.996  0.1612  0.9354 -0.8941
 5966TIP3   OH242092   5.758   6.878   1.775 -0.0951  0.0918 -0.2901
 5966TIP3    H142093   5.683   6.820   1.785 -0.1384  0.1348 -0.3653
 5966TIP3    H242094   5.832   6.819   1.759  0.8879 -0.4127  4.5456
 5967TIP3   OH242095   4.961   0.559   1.758 -0.3545  0.4312 -0.0739
 5967TIP3    H142096   4.885   0.502   1.749 -0.3164  0.2789  0.5093
 5967TIP3    H242097   5.006   0.552   1.674  0.7781 -2.0344  0.6263
 5968TIP3   OH242098   2.441   5.311   1.905 -0.5679 -0.1314 -0.3062
 5968TIP3    H142099   2.436   5.216   1.897  0.9904 -0.2308 -0.2726
 5968TIP3    H242100   2.455   5.342   1.815 -1.9762  0.1644 -0.4567
 5969TIP3   OH242101   1.589   3.325   3.089 -0.1713 -0.3353 -0.3262
 5969TIP3    H142102   1.601   3.310   2.995  0.2047  0.7392 -0.4679
 5969TIP3    H242103   1.675   3.307   3.127 -1.0861 -4.1212  0.3511
 5970TIP3   OH242104   1.376   1.640   1.483 -0.0109  0.2544 -0.2601
 5970TIP3    H142105   1.319   1.696   1.536  0.0497  0.9715 -0.9345
 5970TIP3    H242106   1.419   1.700   1.423  1.6916 -0.2198  0.4160
 5971TIP3   OH242107   4.666   4.849   1.568 -0.0144 -0.2921  0.1239
 5971TIP3    H142108   4.745   4.885   1.607 -0.7499 -0.2138  1.5951
 5971TIP3    H242109   4.680   4.755   1.567 -0.0582 -0.3069  0.7467
 5972TIP3   OH242110   6.331   0.714   0.826  0.2245  0.3179  0.2484
 5972TIP3    H142111   6.368   0.800   0.844  1.3580 -0.2780  0.9161
 5972TIP3    H242112   6.389   0.676   0.761  0.5223 -0.4349  0.9324
 5973TIP3   OH242113   5.262   0.006   2.209  0.4596 -0.1138 -0.3291
 5973TIP3    H142114   5.180  -0.022   2.168 -0.0093 -2.0154  1.7416
 5973TIP3    H242115   5.328  -0.052   2.172  0.7511  0.7783 -1.2643
 5974TIP3   OH242116   2.356   1.816   1.311  0.3447  0.0112 -0.2410
 5974TIP3    H142117   2.419   1.832   1.241  0.0900 -0.2035 -0.5272
 5974TIP3    H242118   2.271   1.835   1.271  0.2272  0.2910  0.1356
 5975TIP3   OH242119   6.472   2.544   1.734  0.2210 -0.1924  0.1525
 5975TIP3    H142120   6.558   2.580   1.757  0.7619 -1.7090  0.6658
 5975TIP3    H242121   6.440   2.601   1.665  0.4468  1.9956  1.7690
 5976TIP3   OH242122   0.228   2.865   2.818  0.8068 -0.1863  0.5691
 5976TIP3    H142123   0.157   2.921   2.850 -1.8021 -2.7781 -0.2933
 5976TIP3    H242124   0.248   2.899   2.731 -0.9855 -0.7489 -0.0909
 5977TIP3   OH242125   4.016   6.873   1.915 -0.8647 -0.4009 -0.0409
 5977TIP3    H142126   3.957   6.808   1.954  0.0008 -1.5069 -0.5118
 5977TIP3    H242127   4.050   6.830   1.837  2.0448 -0.5981  1.2107
 5978TIP3   OH242128   4.228   5.966   0.615  0.0594  0.1041 -0.3159
 5978TIP3    H142129   4.238   5.965   0.520 -0.0567 -0.9721 -0.3335
 5978TIP3    H242130   4.137   5.942   0.630 -0.7670  3.0983  0.0232
 5979TIP3   OH242131   0.021   2.955   3.208 -0.1474  0.3577 -0.3686
 5979TIP3    H142132   0.104   2.908   3.206  0.1916  0.9489 -0.5025
 5979TIP3    H242133   0.013   2.985   3.299  0.0335  0.7298 -0.4741
 5980TIP3   OH242134   4.801   3.596   1.872 -0.3409 -0.0335 -0.4942
 5980TIP3    H142135   4.710   3.590   1.844 -0.5457  2.4365 -0.5938
 5980TIP3    H242136   4.823   3.689   1.863  1.2900 -0.0274  2.2203
 5981TIP3   OH242137   1.519   6.530   0.838  0.2571 -1.0956 -0.7175
 5981TIP3    H142138   1.519   6.471   0.763 -1.4611 -0.9478 -0.8749
 5981TIP3    H242139   1.494   6.474   0.912 -0.6644 -0.7191 -0.7382
 5982TIP3   OH242140   3.652   4.725   2.446  0.4577  0.4398 -0.4436
 5982TIP3    H142141   3.703   4.744   2.367 -0.1478  0.3100 -0.8726
 5982TIP3    H242142   3.581   4.789   2.445 -0.2304 -0.3144 -0.6358
 5983TIP3   OH242143   0.282   1.945   2.519  0.1355  0.1298 -0.3950
 5983TIP3    H142144   0.277   1.925   2.426 -0.5888  2.7133 -0.9958
 5983TIP3    H242145   0.340   2.021   2.525 -1.5600  1.4123  0.9328
 5984TIP3   OH242146   7.029   4.730   1.149  0.6279  0.0040 -0.0712
 5984TIP3    H142147   6.999   4.674   1.077  0.1211 -0.3679  0.4271
 5984TIP3    H242148   7.124   4.732   1.139  0.5936 -0.3657 -0.5169
 5985TIP3   OH242149   4.739   4.389   3.072  0.2553 -0.0248 -0.5737
 5985TIP3    H142150   4.735   4.448   3.148  0.3454  0.1578 -0.7079
 5985TIP3    H242151   4.815   4.333   3.090 -1.3328 -1.8527  0.7974
 5986TIP3   OH242152   1.851   0.179   2.093 -0.4332  0.4054  0.7180
 5986TIP3    H142153   1.905   0.186   2.171  0.2169 -1.0727  0.4205
 5986TIP3    H242154   1.774   0.129   2.121 -0.0199 -0.4627  0.3485
 5987TIP3   OH242155   7.574   1.922   1.643 -0.3183  0.0893 -0.2574
 5987TIP3    H142156   7.554   1.862   1.715 -1.5860 -0.6260 -1.1585
 5987TIP3    H242157   7.500   1.913   1.583 -0.1646  1.9956 -0.8092
 5988TIP3   OH242158   6.179   3.058   2.235  0.3255  0.8290  0.4325
 5988TIP3    H142159   6.116   3.020   2.296 -0.3587 -0.1289 -0.8192
 5988TIP3    H242160   6.262   3.014   2.255 -0.2446 -0.6845 -0.3407
 5989TIP3   OH242161   2.834   5.077   1.064 -0.1016 -1.3660  0.2038
 5989TIP3    H142162   2.826   5.068   0.969 -0.0031  0.2762  0.0186
 5989TIP3    H242163   2.756   5.127   1.091  1.2661  0.7149  0.5550
 5990TIP3   OH242164   5.272   2.434   2.378 -0.3431  0.3505  0.0087
 5990TIP3    H142165   5.279   2.358   2.436 -2.5076  0.0670 -0.0145
 5990TIP3    H242166   5.328   2.500   2.419  1.8247 -1.2719 -0.1248
 5991TIP3   OH242167   5.188   0.303   2.620 -0.0108 -0.1505  0.4501
 5991TIP3    H142168   5.152   0.259   2.543  0.6175 -1.5133  0.9142
 5991TIP3    H242169   5.252   0.366   2.584 -0.5727  0.0709 -0.1882
 5992TIP3   OH242170   7.625   2.711   0.727 -0.3213 -0.0402 -0.1692
 5992TIP3    H142171   7.633   2.702   0.633 -2.0104 -3.8141 -0.1152
 5992TIP3    H242172   7.531   2.705   0.744 -0.1680  1.7207  1.7472
 5993TIP3   OH242173   6.506   0.131   0.812  0.2190 -0.5109 -0.1174
 5993TIP3    H142174   6.454   0.171   0.882  0.1567  0.1820 -0.5483
 5993TIP3    H242175   6.596   0.157   0.833  0.2369 -0.5844 -0.1051
 5994TIP3   OH242176   2.704   2.068   0.757  0.2101 -0.7568  0.6623
 5994TIP3    H142177   2.682   2.045   0.847 -0.8929  2.3270  1.3335
 5994TIP3    H242178   2.629   2.039   0.705  1.2779 -3.4299  0.4838
 5995TIP3   OH242179   7.060   2.271   2.985  0.1620 -0.3066 -0.5418
 5995TIP3    H142180   7.008   2.206   3.032 -0.6572 -0.5500 -1.7406
 5995TIP3    H242181   7.083   2.336   3.052 -1.2828 -0.4411  0.1407
 5996TIP3   OH242182   5.789   6.746   2.401 -0.2036 -0.0672  0.2030
 5996TIP3    H142183   5.828   6.777   2.319 -0.6625  0.2424  0.0997
 5996TIP3    H242184   5.725   6.680   2.373  0.9307 -1.3248  0.4313
 5997TIP3   OH242185   5.874   3.747   1.722 -0.0699  0.3336  0.2590
 5997TIP3    H142186   5.827   3.827   1.748  0.2975 -0.0459  2.1964
 5997TIP3    H242187   5.837   3.678   1.777 -0.6392 -0.9611 -1.6315
 5998TIP3   OH242188   5.988   6.035   1.897  0.4418 -0.4768 -0.0461
 5998TIP3    H142189   6.027   5.998   1.977 -1.4581  1.4970  1.9432
 5998TIP3    H242190   5.988   6.130   1.912 -3.7049 -0.2253 -0.4433
 5999TIP3   OH242191   2.385   3.539   2.783 -0.4221 -0.2901  0.1783
 5999TIP3    H142192   2.406   3.460   2.733  1.9142  0.0545  0.4854
 5999TIP3    H242193   2.295   3.560   2.759 -1.4404 -3.5120  0.7388
 6000TIP3   OH242194   3.785   2.083   2.786 -0.0854  0.1952  0.4186
 6000TIP3    H142195   3.741   2.051   2.865 -1.2729  0.7912  0.0305
 6000TIP3    H242196   3.814   2.004   2.741 -3.5308 -0.5367 -0.8499
 6001TIP3   OH242197   7.072   3.300   2.903  0.0695  0.4551  0.3139
 6001TIP3    H142198   7.071   3.307   2.807  0.7697 -0.8496  0.1837
 6001TIP3    H242199   7.058   3.389   2.934  2.1024  1.3176 -1.0161
 6002TIP3   OH242200   7.389   5.527   2.487 -0.0509 -0.0057  0.1723
 6002TIP3    H142201   7.463   5.577   2.453  0.6676 -1.8542 -1.1727
 6002TIP3    H242202   7.312   5.565   2.444 -0.1403  2.5963  2.3357
 6003TIP3   OH242203   1.042   2.080   1.819 -0.0874  0.1521  0.1322
 6003TIP3    H142204   0.991   2.106   1.742 -1.0255  0.6267  0.8983
 6003TIP3    H242205   1.042   1.984   1.817  1.6820  0.1177 -1.5966
 6004TIP3   OH242206   7.649   6.810   2.239  0.2966 -0.0914 -0.3003
 6004TIP3    H142207   7.588   6.864   2.190  1.0093  1.3491  0.3470
 6004TIP3    H242208   7.733   6.855   2.231  0.3487  0.4818  2.6159
 6005TIP3   OH242209   0.948   5.010   0.568  0.3902  0.3607 -0.9173
 6005TIP3    H142210   0.953   5.088   0.512  0.0583  1.3944  0.4301
 6005TIP3    H242211   1.031   5.009   0.615  0.4082 -0.1395 -0.9544
 6006TIP3   OH242212   3.013   1.670   1.775 -0.0881  0.1013 -0.3853
 6006TIP3    H142213   3.095   1.687   1.730  0.7904  0.3029  1.2030
 6006TIP3    H242214   2.968   1.755   1.777  0.2050  0.2519 -0.2330
 6007TIP3   OH242215   1.307   1.376   2.114 -1.1100 -0.0214 -0.1677
 6007TIP3    H142216   1.251   1.431   2.169 -1.0540  0.4501 -0.5646
 6007TIP3    H242217   1.342   1.437   2.049  0.1885 -0.2240  0.3162
 6008TIP3   OH242218   7.237   4.056   0.822 -0.2272 -0.3758 -0.1347
 6008TIP3    H142219   7.148   4.041   0.854 -0.0724  0.7574  0.9133
 6008TIP3    H242220   7.262   3.973   0.782 -1.6701 -0.7829 -0.2587
 6009TIP3   OH242221   0.955   3.725   0.744  0.3283  0.1317 -0.1174
 6009TIP3    H142222   0.997   3.640   0.732 -0.1315  0.0071 -0.9058
 6009TIP3    H242223   0.982   3.777   0.669  1.3907  1.0251  0.8641
 6010TIP3   OH242224   2.247   1.443   0.683 -0.6319 -0.0053 -0.2272
 6010TIP3    H142225   2.212   1.529   0.659 -0.9647 -0.5891 -2.0583
 6010TIP3    H242226   2.236   1.437   0.777 -2.2707  1.2467 -0.3011
 6011TIP3   OH242227   3.899   4.274   0.968  0.5473  0.2393 -0.0050
 6011TIP3    H142228   3.984   4.287   1.008  0.4431 -0.5920  0.5086
 6011TIP3    H242229   3.849   4.353   0.989  1.1530  0.6878 -0.2362
 6012TIP3   OH242230   1.283   4.647   3.466  0.3853  0.5670 -0.4651
 6012TIP3    H142231   1.304   4.737   3.443 -1.0286  0.7736 -1.0206
 6012TIP3    H242232   1.255   4.607   3.383  1.0859 -0.4284 -0.2493
 6013TIP3   OH242233   6.821   3.112   2.118 -0.1461  0.1530  0.2892
 6013TIP3    H142234   6.868   3.170   2.058 -1.2880 -1.4799 -2.3591
 6013TIP3    H242235   6.889   3.070   2.171  0.8962  1.6888  0.2365
 6014TIP3   OH242236   6.083   0.030   0.627 -0.6370  0.0247 -0.1329
 6014TIP3    H142237   6.066   0.102   0.567  0.2793  0.8097  0.5301
 6014TIP3    H242238   6.178   0.018   0.626 -0.4968  0.5692  1.7030
 6015TIP3   OH242239   7.515   0.552   1.279 -1.0975  0.2499 -0.7492
 6015TIP3    H142240   7.499   0.556   1.373  1.1210  0.3648 -0.3268
 6015TIP3    H242241   7.530   0.459   1.262 -0.1596  0.3890 -0.7213
 6016TIP3   OH242242   4.783   2.005   1.938  0.2725  0.1807 -0.0465
 6016TIP3    H142243   4.829   1.985   1.857 -0.0958  0.8556 -0.4295
 6016TIP3    H242244   4.713   1.939   1.943  0.6901 -0.2608  0.0587
 6017TIP3   OH242245   5.834   6.385   1.104 -0.7338  0.0902  0.3554
 6017TIP3    H142246   5.845   6.391   1.198 -2.3854  2.9836  0.4974
 6017TIP3    H242247   5.763   6.321   1.092  1.8744 -3.1175  0.6826
 6018TIP3   OH242248   6.003   6.743   1.659  0.4282  0.0487  0.5598
 6018TIP3    H142249   6.070   6.705   1.717  1.0507  0.1312 -0.0821
 6018TIP3    H242250   6.023   6.836   1.658  2.1532 -0.2398 -1.8581
 6019TIP3   OH242251   1.744   4.333   2.775 -0.5936  0.1713  0.1804
 6019TIP3    H142252   1.754   4.425   2.749 -0.1778  0.4090  1.1324
 6019TIP3    H242253   1.711   4.290   2.696 -1.3486  1.2386 -0.1199
 6020TIP3   OH242254   0.367   6.929   1.793  0.1622  0.3536  0.9998
 6020TIP3    H142255   0.291   6.925   1.851 -1.1037  1.1412 -0.5304
 6020TIP3    H242256   0.413   7.009   1.820 -1.7628  2.1209 -0.5540
 6021TIP3   OH242257   3.066   4.729   1.188 -0.1790 -0.3500  0.0255
 6021TIP3    H142258   3.151   4.691   1.210 -0.0199 -0.3055 -0.5014
 6021TIP3    H242259   3.085   4.822   1.171 -0.5801  0.0162  1.4105
 6022TIP3   OH242260   3.023   6.044   1.730 -0.3300  0.1240  0.2652
 6022TIP3    H142261   3.102   6.089   1.702  0.0183 -1.1648 -0.9180
 6022TIP3    H242262   3.054   5.975   1.788 -0.5970 -0.2838 -0.0739
 6023TIP3   OH242263   0.285   0.434   1.795  0.4206  0.8482  0.4022
 6023TIP3    H142264   0.360   0.377   1.781 -1.5255 -1.4783 -1.3008
 6023TIP3    H242265   0.279   0.487   1.716 -1.0698 -0.7611 -0.6557
 6024TIP3   OH242266   6.797   6.619   2.093 -0.4551 -0.5717 -0.0835
 6024TIP3    H142267   6.806   6.560   2.018  1.5337 -0.3415 -0.0759
 6024TIP3    H242268   6.723   6.676   2.069 -0.6769 -1.3168 -1.2853
 6025TIP3   OH242269   4.083   5.240   2.986 -0.0912  0.5122  0.2460
 6025TIP3    H142270   4.164   5.290   3.000  0.6531 -0.5860  0.0264
 6025TIP3    H242271   4.045   5.279   2.907  1.1071 -0.0174 -0.6313
 6026TIP3   OH242272   7.360   6.767   2.002 -0.2542 -0.1995  0.2554
 6026TIP3    H142273   7.281   6.822   1.994 -0.3090 -0.3019  0.0909
 6026TIP3    H242274   7.416   6.796   1.931 -1.0542 -1.6378 -1.0153
 6027TIP3   OH242275   4.649   5.590   1.655 -0.7912 -0.1843 -0.8160
 6027TIP3    H142276   4.653   5.494   1.650 -1.7516 -0.2529 -0.3419
 6027TIP3    H242277   4.556   5.611   1.651 -0.7836  0.5701  1.6519
 6028TIP3   OH242278   3.671   2.196   0.755 -0.6167  0.2327  0.1711
 6028TIP3    H142279   3.603   2.142   0.714 -0.5252  1.6226 -1.9880
 6028TIP3    H242280   3.753   2.150   0.734 -0.6981 -0.0339  0.4302
 6029TIP3   OH242281   4.116   1.047   1.998  0.2610 -0.3504  0.9375
 6029TIP3    H142282   4.151   1.113   2.058 -0.6780  1.4007 -0.3494
 6029TIP3    H242283   4.032   1.023   2.036 -0.8267  1.5465 -0.1392
 6030TIP3   OH242284   2.510   6.512   1.645  0.2541  0.5050 -0.0209
 6030TIP3    H142285   2.456   6.539   1.570 -0.7662 -1.3676 -0.0161
 6030TIP3    H242286   2.461   6.441   1.685  1.8844 -0.0356  1.1004
 6031TIP3   OH242287   6.771   4.323   2.699 -0.1379  0.0658 -0.0465
 6031TIP3    H142288   6.789   4.242   2.745 -1.0977 -0.1077  0.0402
 6031TIP3    H242289   6.791   4.392   2.763 -0.3768 -0.1401  0.2544
 6032TIP3   OH242290   7.194   3.935   2.051 -0.5018  0.1938  0.0678
 6032TIP3    H142291   7.204   4.022   2.090  0.5379 -0.0317  0.3307
 6032TIP3    H242292   7.233   3.945   1.964 -2.0841  0.4780 -0.6484
 6033TIP3   OH242293   5.248   2.285   2.794 -0.2378 -0.4028 -0.2678
 6033TIP3    H142294   5.301   2.271   2.716 -0.0793  0.0607 -0.2485
 6033TIP3    H242295   5.236   2.380   2.798 -0.4269 -0.4413  0.1500
 6034TIP3   OH242296   7.586   3.270   3.303 -0.2102 -0.2666  0.2657
 6034TIP3    H142297   7.660   3.305   3.353  0.1316  0.3391 -0.6286
 6034TIP3    H242298   7.553   3.345   3.253  0.9820 -1.2725 -2.2429
 6035TIP3   OH242299   2.589   4.029   2.646  0.4339  0.5145 -0.7844
 6035TIP3    H142300   2.539   4.092   2.699  1.9760  2.0731 -1.0869
 6035TIP3    H242301   2.665   4.079   2.615  1.6658 -1.4918 -1.1517
 6036TIP3   OH242302   7.449   4.137   1.994 -0.3174 -0.3959 -1.1587
 6036TIP3    H142303   7.443   4.228   1.964 -1.3027 -0.6233 -1.6751
 6036TIP3    H242304   7.393   4.088   1.935 -2.4418 -0.8679  1.0790
 6037TIP3   OH242305   1.181   0.790   2.453  0.1341  0.0833 -0.8763
 6037TIP3    H142306   1.134   0.765   2.532  1.9866 -2.4797 -0.4387
 6037TIP3    H242307   1.115   0.793   2.385 -1.2880  1.0261  0.4731
 6038TIP3   OH242308   0.876   7.190   1.693 -0.1648 -0.0808 -0.3681
 6038TIP3    H142309   0.947   7.237   1.736 -0.5429  0.0694  0.1067
 6038TIP3    H242310   0.914   7.106   1.667  0.2027  0.0299 -0.1812
 6039TIP3   OH242311   6.990   4.000   0.958 -0.3307  0.0133  0.5156
 6039TIP3    H142312   7.002   3.913   0.919 -0.4373  0.8301 -1.4342
 6039TIP3    H242313   6.896   4.018   0.947 -0.0936  0.8607 -0.1736
 6040TIP3   OH242314   0.520   7.535   3.218 -0.1026 -0.1350  0.2229
 6040TIP3    H142315   0.587   7.572   3.160 -0.2220 -1.3690 -0.7252
 6040TIP3    H242316   0.562   7.533   3.304  0.7379 -0.0179 -0.1704
 6041TIP3   OH242317   5.120   5.959   1.250  0.0370 -0.5339  0.4098
 6041TIP3    H142318   5.056   5.898   1.214  0.0809 -0.6836  0.5877
 6041TIP3    H242319   5.077   5.996   1.328 -0.7652  1.0890 -0.7352
 6042TIP3   OH242320   0.501   4.372   1.551  0.2531 -0.0097 -0.0849
 6042TIP3    H142321   0.496   4.418   1.635 -0.7765  0.0007 -0.1332
 6042TIP3    H242322   0.412   4.375   1.517  0.4541 -0.8589 -0.7278
 6043TIP3   OH242323   1.852   1.415   0.760 -0.0181 -0.3765  0.0370
 6043TIP3    H142324   1.898   1.477   0.816 -1.5402  0.4092  0.4472
 6043TIP3    H242325   1.828   1.465   0.682 -0.5002 -0.6728 -0.0117
 6044TIP3   OH242326   5.893   6.808   2.775 -0.0995 -0.3282  0.0018
 6044TIP3    H142327   5.896   6.715   2.799  0.7772 -0.7113 -1.4127
 6044TIP3    H242328   5.971   6.846   2.814 -0.8164 -0.0187  1.1556
 6045TIP3   OH242329   1.247   5.389   0.762 -0.1569 -0.4065  0.0838
 6045TIP3    H142330   1.246   5.417   0.670 -0.2336  1.9520  0.7384
 6045TIP3    H242331   1.331   5.345   0.773 -0.2515 -0.9533 -1.1530
 6046TIP3   OH242332   2.602   0.840   2.425  0.2380  0.2388  0.4347
 6046TIP3    H142333   2.669   0.782   2.461  0.3911  0.6430  0.8059
 6046TIP3    H242334   2.598   0.914   2.486  0.9084  1.2124 -0.6516
 6047TIP3   OH242335   5.638   5.664   2.474 -0.4520 -0.3231  0.4063
 6047TIP3    H142336   5.547   5.647   2.452 -0.2477 -0.1252 -0.6127
 6047TIP3    H242337   5.676   5.703   2.395  0.2024  0.7846  1.2255
 6048TIP3   OH242338   1.495   5.570   1.456 -0.6140 -0.0547 -0.2834
 6048TIP3    H142339   1.444   5.494   1.427 -0.4189 -0.7404  1.1256
 6048TIP3    H242340   1.584   5.537   1.466 -0.5256  0.3627  0.3177
 6049TIP3   OH242341   4.521   2.639   1.907  0.0237  0.0028  0.1266
 6049TIP3    H142342   4.552   2.576   1.973 -1.3790 -0.9813 -0.0881
 6049TIP3    H242343   4.475   2.706   1.958 -0.9078 -0.6636  0.1858
 6050TIP3   OH242344   6.539   0.442   1.149  0.3776 -0.0404  0.4963
 6050TIP3    H142345   6.561   0.437   1.242  1.3610 -2.5899  0.1991
 6050TIP3    H242346   6.607   0.498   1.111  1.1080 -0.5663  1.0116
 6051TIP3   OH242347   4.555   3.233   1.304  0.0973  0.5660 -0.0298
 6051TIP3    H142348   4.479   3.204   1.354  1.2213 -1.3345  0.6903
 6051TIP3    H242349   4.525   3.234   1.213 -0.9896  0.6346  0.3171
 6052TIP3   OH242350   6.243   3.586   1.888 -0.0697  0.0183 -0.0701
 6052TIP3    H142351   6.221   3.493   1.878  2.7749 -0.6746 -0.6693
 6052TIP3    H242352   6.185   3.631   1.826 -1.0327 -1.3970 -0.2583
 6053TIP3   OH242353   2.765   1.817   1.531 -0.3035 -0.1541  0.2021
 6053TIP3    H142354   2.771   1.912   1.536 -1.7450  0.2239 -3.0035
 6053TIP3    H242355   2.706   1.793   1.603 -0.2949  1.4033  0.7624
 6054TIP3   OH242356   7.225   0.606   2.010 -0.2572  0.5441 -0.1778
 6054TIP3    H142357   7.199   0.684   2.058  1.0339 -0.2865  2.0580
 6054TIP3    H242358   7.177   0.535   2.052 -0.9132  0.0155 -1.7424
 6055TIP3   OH242359   6.716   0.335   1.628 -0.2673  0.2557  0.3074
 6055TIP3    H142360   6.634   0.367   1.590 -0.9664 -0.0438  1.4819
 6055TIP3    H242361   6.776   0.409   1.623 -0.3799  0.2612 -1.2000
 6056TIP3   OH242362   2.337   0.258   1.139  0.5359  0.2436 -0.0703
 6056TIP3    H142363   2.364   0.213   1.219 -1.1346 -1.1178 -0.2305
 6056TIP3    H242364   2.400   0.229   1.073 -0.9067 -2.5791 -0.3501
 6057TIP3   OH242365   3.616   5.907   1.047  0.2567  0.2805  0.0512
 6057TIP3    H142366   3.671   5.984   1.062 -0.4672  0.8957 -0.3481
 6057TIP3    H242367   3.604   5.904   0.952  0.0419 -0.1511  0.0902
 6058TIP3   OH242368   0.830   0.404   0.857  0.2990  0.1192  0.0616
 6058TIP3    H142369   0.893   0.392   0.787  1.2403 -0.0653  0.9111
 6058TIP3    H242370   0.829   0.498   0.873  1.0672  0.0344  0.6625
 6059TIP3   OH242371   7.547   4.031   3.264  0.3046  0.5957  0.3101
 6059TIP3    H142372   7.466   4.082   3.259  0.0994  0.6392  2.7361
 6059TIP3    H242373   7.518   3.940   3.276  0.6724  0.1700 -1.6312
 6060TIP3   OH242374   1.513   5.717   2.117 -0.3287 -0.3931  0.0532
 6060TIP3    H142375   1.557   5.734   2.034 -2.0078  0.7052 -0.6704
 6060TIP3    H242376   1.421   5.738   2.100 -1.1533 -2.5005  1.5029
 6061TIP3   OH242377   6.641   4.024   1.446  0.1081 -0.1422  0.2238
 6061TIP3    H142378   6.730   4.037   1.481  0.4042 -0.8568 -0.2444
 6061TIP3    H242379   6.609   3.946   1.491  0.4046 -0.9410 -0.9119
 6062TIP3   OH242380   5.289   3.348   1.889  0.2271  0.1674  0.2081
 6062TIP3    H142381   5.246   3.265   1.907 -2.5051  0.3297 -4.1277
 6062TIP3    H242382   5.358   3.326   1.826 -2.3110  1.2114 -3.2230
 6063TIP3   OH242383   2.369   6.033   2.946  0.5835  0.5599  0.7367
 6063TIP3    H142384   2.311   5.960   2.968  0.6263  0.4314  0.4321
 6063TIP3    H242385   2.311   6.104   2.919  0.5830  0.2020 -0.2530
 6064TIP3   OH242386   5.746   6.700   0.767 -0.1100  0.2584 -0.6735
 6064TIP3    H142387   5.689   6.681   0.693  0.6073 -1.0777 -0.9208
 6064TIP3    H242388   5.803   6.623   0.774  0.7536  0.9577  0.4072
 6065TIP3   OH242389   1.060   6.179   2.474 -0.1374  0.3810 -0.4065
 6065TIP3    H142390   0.998   6.190   2.546 -0.2409  1.3138 -0.6234
 6065TIP3    H242391   1.027   6.237   2.405  0.3248 -0.0069 -0.9586
 6066TIP3   OH242392   7.069   2.242   1.175 -0.1502 -0.0478 -0.0784
 6066TIP3    H142393   7.082   2.254   1.269 -1.4483 -0.9836  0.2518
 6066TIP3    H242394   6.974   2.253   1.162  0.1348  1.1077 -1.4474
 6067TIP3   OH242395   6.977   7.109   3.097 -0.1145  0.1848  0.0691
 6067TIP3    H142396   7.034   7.061   3.158 -1.0384 -1.9582 -0.6610
 6067TIP3    H242397   6.954   7.189   3.145  2.4606  0.5481  0.8691
 6068TIP3   OH242398   1.914   6.510   1.723  0.0630  0.1539 -1.0056
 6068TIP3    H142399   1.918   6.415   1.737  1.3262 -0.2126 -3.2914
 6068TIP3    H242400   1.948   6.548   1.804  0.5871 -1.3919 -0.4652
 6069TIP3   OH242401   5.697   1.543   2.894 -0.4975  0.4382 -0.2983
 6069TIP3    H142402   5.623   1.567   2.950  0.5927 -1.3216  2.0661
 6069TIP3    H242403   5.664   1.472   2.840 -0.8479  0.4102 -0.0485
 6070TIP3   OH242404   5.948   1.651   2.760 -0.2239 -0.2504 -0.3169
 6070TIP3    H142405   5.869   1.641   2.812 -0.0705  1.2647  0.2594
 6070TIP3    H242406   6.011   1.693   2.819 -0.2383  2.0863 -1.8460
 6071TIP3   OH242407   6.707   0.688   2.082 -0.5205 -0.3384 -0.3280
 6071TIP3    H142408   6.717   0.601   2.043  0.8223  0.1530 -1.1437
 6071TIP3    H242409   6.652   0.673   2.158  1.3068 -2.2856  0.7440
 6072TIP3   OH242410   6.790   5.440   3.230 -0.2890  0.3300  0.4181
 6072TIP3    H142411   6.815   5.510   3.290  1.7012 -0.1249  0.1930
 6072TIP3    H242412   6.821   5.360   3.273 -0.7223 -0.2058 -0.2553
 6073TIP3   OH242413   6.714   1.006   1.410 -0.3813  0.1381  0.3726
 6073TIP3    H142414   6.652   0.962   1.353 -0.8773  1.7505 -0.3942
 6073TIP3    H242415   6.795   1.011   1.358 -0.2383 -0.0983  0.5678
 6074TIP3   OH242416   3.049   1.956   0.907  0.2399 -0.6372  0.5886
 6074TIP3    H142417   3.002   1.880   0.871 -0.3965 -0.9653  2.0268
 6074TIP3    H242418   2.990   1.991   0.974  0.8046  0.7497  0.3998
 6075TIP3   OH242419   4.480   4.803   2.278 -0.3486 -0.0431 -0.1674
 6075TIP3    H142420   4.394   4.811   2.319 -1.0372 -0.6738 -1.4352
 6075TIP3    H242421   4.533   4.756   2.343 -1.0132  0.1622  0.5407
 6076TIP3   OH242422   4.754   0.079   2.841  0.1716 -0.2461 -0.1188
 6076TIP3    H142423   4.672   0.049   2.880  1.1029  0.0372  2.2200
 6076TIP3    H242424   4.751   0.174   2.849  0.7829 -0.2453  0.1149
 6077TIP3   OH242425   0.294   0.130   1.627  0.5312 -0.2241  0.1711
 6077TIP3    H142426   0.324   0.040   1.616  0.2938 -0.2294 -0.4949
 6077TIP3    H242427   0.374   0.181   1.639  0.6881 -0.4748  0.1966
 6078TIP3   OH242428   3.291   7.340   1.918  0.1543 -0.6108 -0.7275
 6078TIP3    H142429   3.332   7.419   1.885 -0.7560  0.3487  0.3220
 6078TIP3    H242430   3.200   7.346   1.889 -0.6720  0.2555  1.7664
 6079TIP3   OH242431   3.044   4.512   1.539  1.1696  0.2172  0.1821
 6079TIP3    H142432   3.085   4.431   1.572  1.1015 -0.4569 -1.2825
 6079TIP3    H242433   3.116   4.558   1.495  0.5121 -0.9492 -2.3635
 6080TIP3   OH242434   2.253   7.217   0.928 -0.0260  0.4413 -0.6936
 6080TIP3    H142435   2.275   7.273   0.854  0.8462  0.7804 -0.2000
 6080TIP3    H242436   2.168   7.249   0.959 -0.6285 -0.0187 -1.8344
 6081TIP3   OH242437   1.864   6.684   2.734 -0.0355  0.3623 -0.3742
 6081TIP3    H142438   1.837   6.617   2.797  0.9534  1.4827  1.3422
 6081TIP3    H242439   1.783   6.730   2.711 -0.3564  0.2459  0.4859
 6082TIP3   OH242440   1.011   6.693   2.063  0.0033  0.1829 -0.1619
 6082TIP3    H142441   0.974   6.639   1.993  1.8293 -1.5187  0.0869
 6082TIP3    H242442   1.017   6.781   2.025 -2.1596  0.0633 -0.9293
 6083TIP3   OH242443   1.873   1.360   0.416  0.5944  0.1030  0.2817
 6083TIP3    H142444   1.809   1.348   0.346  1.2654 -1.6924 -0.0904
 6083TIP3    H242445   1.838   1.431   0.470 -1.3833 -0.4223 -0.2497
 6084TIP3   OH242446   6.657   1.861   2.232  0.6444 -0.0952  0.4615
 6084TIP3    H142447   6.698   1.914   2.163  0.8712  1.1983  1.5411
 6084TIP3    H242448   6.731   1.818   2.276  0.6738  0.4575  0.9748
 6085TIP3   OH242449   1.671   4.235   2.534 -0.1876 -0.1655 -0.4926
 6085TIP3    H142450   1.692   4.176   2.462  0.7150  2.3289 -2.4161
 6085TIP3    H242451   1.634   4.312   2.491 -1.1645  0.7835  1.8838
 6086TIP3   OH242452   7.494   0.695   1.784  0.4836  0.6101  0.2710
 6086TIP3    H142453   7.504   0.658   1.696  1.2733  1.2822  0.0730
 6086TIP3    H242454   7.478   0.788   1.769 -0.1123  0.6035  0.8227
 6087TIP3   OH242455   3.211   2.114   1.633  0.3263  0.0148  0.4327
 6087TIP3    H142456   3.282   2.051   1.624  0.0688 -0.3972  1.2592
 6087TIP3    H242457   3.242   2.192   1.586  1.2552 -0.2132  0.6608
 6088TIP3   OH242458   2.156   6.920   1.683 -0.2738 -0.3593 -0.4655
 6088TIP3    H142459   2.171   6.976   1.759 -0.0133  0.8620 -1.3940
 6088TIP3    H242460   2.244   6.904   1.648 -0.2111 -2.3517  0.4486
 6089TIP3   OH242461   7.188   4.131   0.560  0.1946 -0.7510  0.0988
 6089TIP3    H142462   7.188   4.126   0.656  0.5418 -0.2932  0.1265
 6089TIP3    H242463   7.216   4.221   0.541  2.4936 -1.5336 -0.4497
 6090TIP3   OH242464   2.453   4.917   2.843 -0.6122  0.1726 -0.2278
 6090TIP3    H142465   2.434   4.845   2.782 -0.0830 -0.2214  0.0693
 6090TIP3    H242466   2.380   4.915   2.905 -0.2210 -0.5962  0.2223
 6091TIP3   OH242467   2.260   2.779   2.616  0.0315  0.2615 -0.1469
 6091TIP3    H142468   2.252   2.741   2.703  0.6453  1.6403  0.5336
 6091TIP3    H242469   2.202   2.726   2.561  0.7265 -1.5478  0.7651
 6092TIP3   OH242470   4.955   5.480   2.159  0.5377  0.7245 -0.0621
 6092TIP3    H142471   4.894   5.533   2.107  0.3468 -0.4026 -1.0219
 6092TIP3    H242472   4.910   5.468   2.243  0.3878  1.6914  0.0034
 6093TIP3   OH242473   1.682   1.219   0.309 -0.0926  0.0864 -0.0305
 6093TIP3    H142474   1.726   1.139   0.336 -0.6097 -0.3124 -0.3326
 6093TIP3    H242475   1.588   1.199   0.316 -0.2358  0.3092 -1.1008
 6094TIP3   OH242476   6.155   2.198   2.421  1.0274  0.0409 -0.1862
 6094TIP3    H142477   6.119   2.172   2.506  0.1081 -2.0405 -1.1444
 6094TIP3    H242478   6.216   2.269   2.442  1.0011 -0.5500  2.2304
 6095TIP3   OH242479   0.554   3.582   3.745  0.3837  0.2542  0.2375
 6095TIP3    H142480   0.645   3.608   3.731  1.0635 -2.1533 -0.2776
 6095TIP3    H242481   0.550   3.556   3.837 -0.3364  2.1395  0.7972
 6096TIP3   OH242482   2.414   1.232   2.279 -0.2574  0.1746  0.3579
 6096TIP3    H142483   2.437   1.226   2.187  2.3814 -1.9164  1.0326
 6096TIP3    H242484   2.476   1.295   2.316  1.4918 -1.9494  1.3209
 6097TIP3   OH242485   4.659   4.298   0.925  0.3673 -0.4693 -0.0487
 6097TIP3    H142486   4.670   4.247   1.006  1.1776 -0.5733 -0.2168
 6097TIP3    H242487   4.624   4.382   0.955  0.3319 -0.6320  0.3787
 6098TIP3   OH242488   4.953   5.769   1.111 -0.3156  0.4762 -0.0383
 6098TIP3    H142489   4.857   5.761   1.118 -0.3530  1.1318  0.3341
 6098TIP3    H242490   4.969   5.781   1.017 -0.4540 -1.1662 -0.3054
 6099TIP3   OH242491   4.811   1.501   1.584 -0.2542  0.2718 -0.2612
 6099TIP3    H142492   4.841   1.423   1.630  1.5798  1.0366 -0.0770
 6099TIP3    H242493   4.830   1.574   1.643 -1.9018  0.8941 -0.4419
 6100TIP3   OH242494   0.632   3.731   1.236 -0.1549 -0.4086  0.0622
 6100TIP3    H142495   0.542   3.698   1.234 -0.3936  0.0745  1.4902
 6100TIP3    H242496   0.677   3.682   1.167 -1.4380 -0.8514 -0.5018
 6101TIP3   OH242497   2.066   4.267   1.965 -0.0981  0.2814  0.2993
 6101TIP3    H142498   2.010   4.330   2.011  1.7252  1.2811  1.2558
 6101TIP3    H242499   2.137   4.320   1.928  0.4422 -0.9818 -0.5226
 6102TIP3   OH242500   4.392   6.614   0.627 -0.0028  0.2034  0.0960
 6102TIP3    H142501   4.390   6.524   0.660  1.2802  0.4426  0.8963
 6102TIP3    H242502   4.325   6.660   0.677  1.4768  0.4101  1.9898
 6103TIP3   OH242503   5.781   0.782   0.977  0.5343  0.0190  0.9823
 6103TIP3    H142504   5.759   0.867   0.938  0.8611  1.3194  3.3911
 6103TIP3    H242505   5.864   0.757   0.935 -0.0854  0.3516 -0.4990
 6104TIP3   OH242506   5.298   0.901   1.153 -0.1540  0.2881  0.7053
 6104TIP3    H142507   5.302   0.986   1.197 -0.2322  0.0552  1.1697
 6104TIP3    H242508   5.252   0.918   1.070 -1.1755  0.4891  1.2970
 6105TIP3   OH242509   7.633   0.690   0.819 -0.3007 -0.1367 -0.9189
 6105TIP3    H142510   7.667   0.712   0.733 -0.7530  0.3197 -0.9847
 6105TIP3    H242511   7.576   0.764   0.843 -0.2177 -0.2768 -0.2543
 6106TIP3   OH242512   3.150   3.511   0.593 -0.0320  0.1068  0.4671
 6106TIP3    H142513   3.057   3.489   0.599  0.0267 -0.1757  0.3774
 6106TIP3    H242514   3.152   3.603   0.566 -0.2864 -0.4281 -1.4862
 6107TIP3   OH242515   2.225   7.284   1.260  0.2862 -0.4496 -0.1046
 6107TIP3    H142516   2.197   7.347   1.193  1.9962 -1.7705 -2.1864
 6107TIP3    H242517   2.169   7.208   1.247 -0.9199  0.0954  1.5667
 6108TIP3   OH242518   4.657   0.175   2.313  0.0624 -0.1881  0.3508
 6108TIP3    H142519   4.599   0.099   2.305  1.5488 -1.1192 -3.2451
 6108TIP3    H242520   4.732   0.143   2.362 -0.3161 -0.3270  0.8552
 6109TIP3   OH242521   5.567   5.952   2.905  0.0277 -0.2199  0.2570
 6109TIP3    H142522   5.568   6.028   2.847 -0.1748 -0.4630 -0.0715
 6109TIP3    H242523   5.554   5.988   2.992  0.2412  0.1434  0.1400
 6110TIP3   OH242524   0.577   5.410   0.629  0.3222 -0.0750  0.1673
 6110TIP3    H142525   0.620   5.364   0.556 -1.6562  0.8624 -1.7142
 6110TIP3    H242526   0.498   5.358   0.646 -1.0114  1.5160 -0.7737
 6111TIP3   OH242527   0.771   6.514   2.221  0.2651 -0.4131 -0.2937
 6111TIP3    H142528   0.777   6.519   2.126  0.1490  0.6033 -0.2567
 6111TIP3    H242529   0.736   6.599   2.248  3.9058  0.9320  0.9212
 6112TIP3   OH242530   0.596   4.561   2.744 -0.0361  0.4769  0.1503
 6112TIP3    H142531   0.512   4.576   2.787  0.4772 -0.9257  1.7258
 6112TIP3    H242532   0.644   4.643   2.756  0.1269  0.1101  2.4286
 6113TIP3   OH242533   6.276   2.964   1.499  0.0790  0.0257  0.8258
 6113TIP3    H142534   6.362   3.006   1.488 -0.3320  0.6588 -0.0251
 6113TIP3    H242535   6.238   2.962   1.412 -0.7383 -0.3418  1.1781
 6114TIP3   OH242536   2.774   6.252   1.357 -0.0047  0.1245  0.2183
 6114TIP3    H142537   2.769   6.317   1.427  1.7137  2.2611 -1.5414
 6114TIP3    H242538   2.834   6.289   1.293 -0.3909 -2.3994 -1.7613
 6115TIP3   OH242539   4.893   3.947   2.147 -0.6953  0.2062  0.1365
 6115TIP3    H142540   4.933   4.033   2.161  0.2369 -0.0024 -1.0555
 6115TIP3    H242541   4.838   3.959   2.069  1.2768 -0.7944 -1.5084
 6116TIP3   OH242542   3.731   6.939   2.581 -0.0675  0.8621 -0.6996
 6116TIP3    H142543   3.775   6.996   2.518 -1.1208  0.7255 -1.5883
 6116TIP3    H242544   3.797   6.872   2.603  0.2425  0.7810 -1.8274
 6117TIP3   OH242545   1.349   5.319   1.891  0.2604 -0.2625  0.8925
 6117TIP3    H142546   1.270   5.373   1.890  0.3199 -0.1885 -0.2396
 6117TIP3    H242547   1.418   5.376   1.857  0.2082 -1.1936 -0.8677
 6118TIP3   OH242548   3.336   6.431   0.693  0.2511  0.4086 -0.1659
 6118TIP3    H142549   3.240   6.434   0.687  0.2218 -1.5030 -1.5546
 6118TIP3    H242550   3.358   6.503   0.752 -2.0328  0.8822  0.2226
 6119TIP3   OH242551   2.482   5.020   1.850 -0.3150  0.5493 -0.6055
 6119TIP3    H142552   2.528   4.963   1.911 -1.3190  2.2101  1.9000
 6119TIP3    H242553   2.392   4.985   1.848 -1.1426  2.2980  1.5474
 6120TIP3   OH242554   4.411   3.182   2.150  0.8439  0.2806  0.3441
 6120TIP3    H142555   4.359   3.247   2.198 -0.2590 -0.5386  0.2985
 6120TIP3    H242556   4.498   3.222   2.143 -0.0453  2.1992 -0.5762
 6121TIP3   OH242557   5.699   3.249   0.439 -0.2681  0.3476  0.1418
 6121TIP3    H142558   5.755   3.308   0.490  0.2915  0.0011 -0.0557
 6121TIP3    H242559   5.758   3.178   0.413 -0.8147 -0.0420 -0.0455
 6122TIP3   OH242560   1.172   1.167   0.956 -0.1390  0.3061  0.2448
 6122TIP3    H142561   1.233   1.111   0.907 -1.4869 -0.7349 -0.3295
 6122TIP3    H242562   1.213   1.254   0.954  0.8898 -0.1615 -0.8904
 6123TIP3   OH242563   5.728   5.856   1.928 -0.3135  0.3667 -0.0903
 6123TIP3    H142564   5.783   5.786   1.964 -0.7949  0.9777  1.9153
 6123TIP3    H242565   5.788   5.908   1.874  1.4235  1.5673  2.7655
 6124TIP3   OH242566   1.855   6.752   1.228  0.0047 -0.2064 -0.3133
 6124TIP3    H142567   1.864   6.657   1.235 -0.3207 -0.3010 -1.1393
 6124TIP3    H242568   1.912   6.787   1.296 -0.6449 -1.0160  0.6706
 6125TIP3   OH242569   4.488   1.322   1.478  0.1012 -0.7145  0.6718
 6125TIP3    H142570   4.462   1.306   1.387  1.4339  0.9277 -0.0452
 6125TIP3    H242571   4.568   1.271   1.489  0.0302 -0.7821  0.8722
 6126TIP3   OH242572   7.439   0.598   3.319 -0.0610  0.3780  0.1502
 6126TIP3    H142573   7.531   0.569   3.317 -0.1441  0.0651  0.7508
 6126TIP3    H242574   7.431   0.657   3.244  0.4732 -0.0817 -0.2778
 6127TIP3   OH242575   1.047   6.178   2.876  0.3551 -0.3431  0.5891
 6127TIP3    H142576   1.093   6.166   2.959 -0.3286 -1.3485  0.8409
 6127TIP3    H242577   1.089   6.117   2.816 -0.2585 -0.8534  0.6678
 6128TIP3   OH242578   0.067   3.000   1.087  0.1806  0.2980  0.0359
 6128TIP3    H142579   0.119   3.037   1.158 -1.7944  1.5386  0.9515
 6128TIP3    H242580  -0.001   2.949   1.131 -0.2765 -0.0514 -1.0289
 6129TIP3   OH242581   2.229   2.404   1.906 -0.1377  0.1446 -0.2994
 6129TIP3    H142582   2.158   2.343   1.927  0.0024  0.1846  0.3156
 6129TIP3    H242583   2.185   2.478   1.864 -0.6001  0.6117  0.9561
 6130TIP3   OH242584   4.295   0.309   2.316  0.2055 -0.5663  0.4534
 6130TIP3    H142585   4.221   0.362   2.343 -0.2263 -1.4622  1.0976
 6130TIP3    H242586   4.359   0.371   2.281 -0.4469  0.3147  0.8075
 6131TIP3   OH242587   1.639   4.376   1.957 -0.1749  0.3433 -0.0739
 6131TIP3    H142588   1.671   4.360   1.868  0.6786 -1.2056  0.4767
 6131TIP3    H242589   1.718   4.399   2.007  0.2039 -3.1230  1.2093
 6132TIP3   OH242590   3.925   2.566   1.632 -0.1293  0.1754 -0.4932
 6132TIP3    H142591   3.953   2.637   1.574  0.2920  0.2078 -0.2561
 6132TIP3    H242592   3.979   2.576   1.710 -0.2362 -0.2635 -0.3596
 6133TIP3   OH242593   3.879   0.453   1.105 -0.2326  0.4562  0.4436
 6133TIP3    H142594   3.922   0.537   1.086 -1.2871  1.0072  0.4202
 6133TIP3    H242595   3.789   0.477   1.128 -1.3467 -0.8378 -2.1680
 6134TIP3   OH242596   3.871   2.992   0.691 -0.3784 -0.5845  0.1271
 6134TIP3    H142597   3.815   3.067   0.711 -1.0854 -0.7898 -1.0038
 6134TIP3    H242598   3.838   2.959   0.608  0.8770 -1.2579 -0.1281
 6135TIP3   OH242599   7.471   2.659   3.572  0.1688  0.6273 -0.3269
 6135TIP3    H142600   7.522   2.697   3.501  1.0043  1.1777  0.5332
 6135TIP3    H242601   7.385   2.701   3.566  0.5913  1.4983 -0.3367
 6136TIP3   OH242602   7.634   1.043   2.239 -0.0685 -0.2630  0.5391
 6136TIP3    H142603   7.580   0.983   2.291  0.1943 -0.2121  0.8786
 6136TIP3    H242604   7.724   1.013   2.254  0.0879  0.3743  0.9296
 6137TIP3   OH242605   3.196   6.379   1.894  0.2793 -0.3435  0.5596
 6137TIP3    H142606   3.273   6.407   1.844  0.4082  0.7485  1.3230
 6137TIP3    H242607   3.124   6.381   1.830  0.4412  1.0237  0.3751
 6138TIP3   OH242608   1.689   1.620   2.003  0.1150  0.7535 -0.1552
 6138TIP3    H142609   1.784   1.616   1.992  0.0675 -0.4462 -0.3365
 6138TIP3    H242610   1.654   1.607   1.915 -0.2194  0.2559  0.0460
 6139TIP3   OH242611   5.413   4.800   1.322  0.1360  0.1852 -0.1654
 6139TIP3    H142612   5.391   4.798   1.229 -0.6974  0.1367  0.0260
 6139TIP3    H242613   5.425   4.893   1.341 -2.1389  0.4597  0.2099
 6140TIP3   OH242614   6.892   5.062   2.598 -0.0309  0.0668 -0.0109
 6140TIP3    H142615   6.919   4.988   2.545 -0.2115  0.6954 -1.0024
 6140TIP3    H242616   6.804   5.040   2.628 -0.0756 -0.1205 -0.2853
 6141TIP3   OH242617   5.946   1.768   0.686 -0.2754  0.3624  0.3747
 6141TIP3    H142618   6.026   1.815   0.707  0.0781 -0.5545  1.1217
 6141TIP3    H242619   5.881   1.837   0.670  0.2164  1.0994  1.4888
 6142TIP3   OH242620   2.832   2.757   2.375 -0.0548  0.0201  0.1514
 6142TIP3    H142621   2.902   2.699   2.407  1.7646  2.0815  0.1811
 6142TIP3    H242622   2.752   2.721   2.412  0.9496 -2.5292  0.0341
 6143TIP3   OH242623   1.319   3.915   0.505  0.4667 -0.5735 -0.2948
 6143TIP3    H142624   1.323   3.822   0.525 -0.6927 -0.5596  0.0882
 6143TIP3    H242625   1.410   3.944   0.504  0.7590 -1.2818  1.7482
 6144TIP3   OH242626   5.277   1.505   1.899 -0.1180 -0.7783 -0.3140
 6144TIP3    H142627   5.342   1.569   1.930  0.6461 -1.2090 -0.9891
 6144TIP3    H242628   5.197   1.529   1.946 -0.0510  1.0938 -1.0441
 6145TIP3   OH242629   3.767   6.471   0.591 -0.2385 -0.2575  0.2621
 6145TIP3    H142630   3.699   6.404   0.597  0.1600 -0.6856  0.0786
 6145TIP3    H242631   3.786   6.477   0.497 -0.5095  0.3598  0.2406
 6146TIP3   OH242632   3.150   3.844   3.027 -0.3513 -0.0378  0.5829
 6146TIP3    H142633   3.233   3.833   3.073 -1.9417  1.6910  4.2988
 6146TIP3    H242634   3.101   3.765   3.046 -0.8672  0.5125  1.6172
 6147TIP3   OH242635   5.395   4.423   0.848  0.7367  0.8175  0.6885
 6147TIP3    H142636   5.407   4.514   0.878  0.8054  1.2303 -0.5537
 6147TIP3    H242637   5.483   4.385   0.853  1.1374  1.4819 -0.8527
 6148TIP3   OH242638   5.723   5.063   2.017 -0.1205  0.2285 -0.2604
 6148TIP3    H142639   5.633   5.055   2.048  0.4675 -1.0899  1.2778
 6148TIP3    H242640   5.770   5.107   2.089  0.7178 -0.3366 -0.4389
 6149TIP3   OH242641   5.730   2.955   2.099  0.5371  0.3703 -0.1738
 6149TIP3    H142642   5.777   2.925   2.021 -1.2781 -0.2010 -1.0955
 6149TIP3    H242643   5.799   2.978   2.161  2.0265 -0.4687 -1.4511
 6150TIP3   OH242644   0.105   5.712   2.092  0.2207 -0.3206  0.7162
 6150TIP3    H142645   0.169   5.641   2.092  1.7834  1.0288  1.2001
 6150TIP3    H242646   0.070   5.712   2.003  1.9586 -0.1864  0.0018
 6151TIP3   OH242647   6.275   2.680   1.246  0.4737  0.4012 -0.3421
 6151TIP3    H142648   6.261   2.772   1.222  0.7075  0.4886 -0.1444
 6151TIP3    H242649   6.359   2.658   1.208  0.5173  0.3330 -0.2056
 6152TIP3   OH242650   0.869   6.416   3.342 -0.0205  0.2097 -0.3133
 6152TIP3    H142651   0.884   6.374   3.258  0.4415  0.7007 -0.4812
 6152TIP3    H242652   0.957   6.431   3.378 -0.2055  0.1957  0.1567
 6153TIP3   OH242653   1.576   2.264   1.868  0.1581 -0.3405  0.3479
 6153TIP3    H142654   1.496   2.215   1.851 -0.5957  0.4003  1.6283
 6153TIP3    H242655   1.633   2.242   1.795 -0.9498 -1.4257 -0.2307
 6154TIP3   OH242656   6.280   2.143   3.237  0.1570 -0.3427  0.1245
 6154TIP3    H142657   6.363   2.097   3.256 -0.2597 -1.3139 -0.3272
 6154TIP3    H242658   6.304   2.235   3.237  1.5167 -0.6444 -1.2042
 6155TIP3   OH242659   3.039   4.062   3.174  0.4268  0.2673 -0.2893
 6155TIP3    H142660   3.049   3.992   3.110 -0.5507 -1.4571  1.3097
 6155TIP3    H242661   3.128   4.089   3.195  0.8235 -0.3969 -1.0536
 6156TIP3   OH242662   6.518   3.543   3.352 -0.4559 -0.0409  0.2916
 6156TIP3    H142663   6.446   3.603   3.334  1.9471  2.5967 -1.5053
 6156TIP3    H242664   6.595   3.587   3.316  1.5285 -4.5041 -1.7639
 6157TIP3   OH242665   0.279   7.592   1.855  0.5504 -0.3229  0.5178
 6157TIP3    H142666   0.292   7.517   1.913 -2.2560  0.0724  1.7847
 6157TIP3    H242667   0.317   7.666   1.903  1.8598 -0.6147 -0.0173
 6158TIP3   OH242668   7.071   3.326   1.691  0.0212  0.9144 -0.3604
 6158TIP3    H142669   7.118   3.244   1.671 -0.8610  0.4092 -0.4091
 6158TIP3    H242670   7.057   3.367   1.607 -2.2737 -0.4271 -0.7148
 6159TIP3   OH242671   0.143   5.257   3.246 -0.0734  0.2538  0.3487
 6159TIP3    H142672   0.168   5.167   3.227 -0.8692  0.2155 -0.6061
 6159TIP3    H242673   0.137   5.261   3.341 -0.5552 -0.8483  0.3738
 6160TIP3   OH242674   3.787   1.071   1.227  0.4288  0.0266 -0.3725
 6160TIP3    H142675   3.759   1.147   1.279 -0.5101  0.8210 -1.9601
 6160TIP3    H242676   3.867   1.041   1.270 -0.5436  0.3503  1.7913
 6161TIP3   OH242677   7.112   7.258   0.713  0.0947 -0.2637  0.4220
 6161TIP3    H142678   7.169   7.182   0.702 -0.8745 -1.8734  4.5115
 6161TIP3    H242679   7.027   7.221   0.736 -0.9128  2.0673  0.7352
 6162TIP3   OH242680   0.024   3.322   2.534  0.3642  0.6382 -0.0928
 6162TIP3    H142681   0.060   3.284   2.614 -0.9603 -0.0706  0.1926
 6162TIP3    H242682   0.043   3.416   2.542 -0.7372  0.7641  1.6232
 6163TIP3   OH242683   2.959   5.653   1.254 -0.1274 -0.5363 -0.0271
 6163TIP3    H142684   3.022   5.700   1.200 -0.3953 -0.0316  0.0927
 6163TIP3    H242685   3.001   5.569   1.273  1.1693  0.3611  1.3006
 6164TIP3   OH242686   6.477   1.708   1.904  0.3535 -0.5286 -0.3470
 6164TIP3    H142687   6.567   1.738   1.894 -0.2146  1.5866  0.3371
 6164TIP3    H242688   6.482   1.639   1.971  1.1961  1.3201  1.6072
 6165TIP3   OH242689   6.398   2.690   1.536  1.0034 -0.0772 -0.1703
 6165TIP3    H142690   6.440   2.629   1.476  1.5761  0.5105 -0.3781
 6165TIP3    H242691   6.414   2.776   1.497 -0.9954  0.1285 -0.6296
 6166TIP3   OH242692   0.022   1.125   1.246 -0.7939 -0.2129  0.1918
 6166TIP3    H142693   0.005   1.148   1.154 -2.7717  0.8798  0.7901
 6166TIP3    H242694   0.040   1.208   1.289  1.0004 -0.8051  0.6713
 6167TIP3   OH242695   3.334   6.719   0.832  0.4876  0.2224 -0.5371
 6167TIP3    H142696   3.252   6.698   0.876  1.6344  0.2922  1.8111
 6167TIP3    H242697   3.326   6.812   0.809  0.3645  0.6120  0.9293
 6168TIP3   OH242698   5.037   0.002   3.588  0.1094  0.1380 -0.0684
 6168TIP3    H142699   5.094  -0.052   3.532  1.2322  0.8736  0.3425
 6168TIP3    H242700   5.026  -0.050   3.667  1.9083  0.8252  0.6903
 6169TIP3   OH242701   5.544   2.484   7.812  0.3831  0.1486  0.5870
 6169TIP3    H142702   5.512   2.558   7.759  2.1568  1.0350  0.6750
 6169TIP3    H242703   5.467   2.431   7.828 -0.5303  0.7368 -1.4893
 6170TIP3   OH242704   6.626   7.099   0.589 -0.4865 -0.0964 -0.1891
 6170TIP3    H142705   6.598   7.067   0.503 -2.6931  2.5822 -0.5929
 6170TIP3    H242706   6.583   7.039   0.651  0.6205 -1.6716 -0.8671
 6171TIP3   OH242707   1.598   6.252   3.007 -0.0687 -0.4139  0.3946
 6171TIP3    H142708   1.665   6.313   3.037 -0.1870  0.9160 -1.8047
 6171TIP3    H242709   1.623   6.232   2.917 -1.3734 -1.7345  0.2825
 6172TIP3   OH242710   5.059   3.702   0.531 -0.6859 -0.2398 -0.5773
 6172TIP3    H142711   4.977   3.667   0.496 -0.4255 -3.0641  1.2562
 6172TIP3    H242712   5.125   3.636   0.508  0.2779 -0.0033  1.2855
 6173TIP3   OH242713   4.245   2.819   2.680  0.0172  0.0594  0.3068
 6173TIP3    H142714   4.219   2.729   2.698 -0.2777  0.2481  0.8314
 6173TIP3    H242715   4.237   2.864   2.764  1.5350  0.2508  0.3697
 6174TIP3   OH242716   6.631   1.253   2.769  0.0071 -0.2616  0.4028
 6174TIP3    H142717   6.555   1.220   2.721  0.8316 -0.6457 -0.6790
 6174TIP3    H242718   6.596   1.323   2.824 -0.8198  1.0057 -1.6007
 6175TIP3   OH242719   4.276   6.733   2.490 -0.3698  0.3985  0.0169
 6175TIP3    H142720   4.305   6.656   2.540 -1.0460  0.8946  1.2027
 6175TIP3    H242721   4.290   6.708   2.398  1.1180 -0.4535  0.4283
 6176TIP3   OH242722   4.068   3.218   2.179  0.1823  0.1349  0.2694
 6176TIP3    H142723   4.064   3.184   2.269 -1.6962  0.0930  0.2218
 6176TIP3    H242724   4.008   3.293   2.179 -0.8429 -0.6330 -1.2396
 6177TIP3   OH242725   1.400   6.589   2.268  0.6811 -0.1254 -0.1980
 6177TIP3    H142726   1.381   6.673   2.226 -0.5299 -1.1837 -1.8968
 6177TIP3    H242727   1.461   6.611   2.338  1.6539  1.9560 -1.5902
 6178TIP3   OH242728   2.349   4.702   2.467 -0.4303 -0.1357  0.4379
 6178TIP3    H142729   2.331   4.714   2.374  1.8431 -2.1146 -0.3566
 6178TIP3    H242730   2.438   4.736   2.479 -0.6297 -0.0503  1.8727
 6179TIP3   OH242731   1.535   6.597   1.229  0.2410 -0.6232 -0.4797
 6179TIP3    H142732   1.525   6.667   1.295 -2.4695 -0.5184 -0.8777
 6179TIP3    H242733   1.624   6.565   1.242  0.9579  1.6735  0.9512
 6180TIP3   OH242734   1.259   2.207   1.286  0.4634  0.1928 -0.3198
 6180TIP3    H142735   1.182   2.251   1.322  1.1419  0.5888  0.6950
 6180TIP3    H242736   1.334   2.255   1.323  1.2337  1.0269 -2.7409
 6181TIP3   OH242737   4.183   4.008   2.015  0.1797  0.4359  0.5559
 6181TIP3    H142738   4.229   3.955   2.080  1.6211  0.1950 -0.6050
 6181TIP3    H242739   4.180   4.095   2.053 -2.7681 -0.4460  2.7812
 6182TIP3   OH242740   2.675   4.319   2.053 -0.1201  0.3724  0.2045
 6182TIP3    H142741   2.723   4.293   1.974  0.0252  0.2690  0.3258
 6182TIP3    H242742   2.605   4.376   2.021 -0.4678 -0.1963 -0.0720
 6183TIP3   OH242743   3.058   3.488   1.213 -0.2010  0.7278  0.3066
 6183TIP3    H142744   3.086   3.447   1.131 -0.6459  0.9092  0.0625
 6183TIP3    H242745   2.968   3.457   1.226  0.3241 -0.4407  1.4633
 6184TIP3   OH242746   2.112   4.821   1.089 -0.1196 -0.2305 -0.2271
 6184TIP3    H142747   2.150   4.846   1.173 -2.5332 -0.3684  0.9824
 6184TIP3    H242748   2.088   4.905   1.049  0.5000 -0.1970 -0.5465
 6185TIP3   OH242749   1.667   4.346   1.130  0.0845 -0.6123  0.3363
 6185TIP3    H142750   1.638   4.438   1.136 -0.1234 -0.7377  1.5796
 6185TIP3    H242751   1.693   4.335   1.039 -0.8698  0.3991 -0.0898
 6186TIP3   OH242752   5.738   0.559   1.858 -0.0519  0.2546  0.4275
 6186TIP3    H142753   5.649   0.527   1.874  0.1212  0.5793  2.2388
 6186TIP3    H242754   5.759   0.528   1.770 -1.2498 -1.4587  0.6981
 6187TIP3   OH242755   4.185   0.384   3.402 -0.3844 -0.3269  0.0340
 6187TIP3    H142756   4.259   0.356   3.455  0.1487 -0.1380 -0.5917
 6187TIP3    H242757   4.182   0.479   3.412 -0.8029 -0.3735  0.3836
 6188TIP3   OH242758   5.658   5.066   3.199  0.2996 -0.5837  0.8001
 6188TIP3    H142759   5.753   5.062   3.208  0.4207  0.1418 -0.0253
 6188TIP3    H242760   5.641   5.033   3.111 -0.3869 -2.4816  1.5870
 6189TIP3   OH242761   6.634   2.929   2.271  0.1873  0.5661  0.2855
 6189TIP3    H142762   6.594   2.899   2.189  0.6182  1.6373 -0.3345
 6189TIP3    H242763   6.712   2.976   2.243 -0.2026  1.8368  1.2361
 6190TIP3   OH242764   2.242   3.733   2.577  0.0470  0.5211 -0.0159
 6190TIP3    H142765   2.336   3.722   2.563  0.0864 -0.2271  0.7144
 6190TIP3    H242766   2.235   3.767   2.666 -0.3601  0.9153 -0.1958
 6191TIP3   OH242767   3.966   0.688   1.682 -0.0009 -0.0076  0.6966
 6191TIP3    H142768   3.884   0.716   1.722 -0.2549 -0.9017  0.8299
 6191TIP3    H242769   4.021   0.766   1.683 -0.6404  0.4490  1.1474
 6192TIP3   OH242770   3.683   1.650   0.925  0.4180 -0.3504 -0.5996
 6192TIP3    H142771   3.610   1.599   0.960 -0.2835  1.1129  0.1516
 6192TIP3    H242772   3.652   1.740   0.927  1.6173  0.1269 -1.9043
 6193TIP3   OH242773   5.392   1.259   3.116  0.2978 -0.0012  0.0414
 6193TIP3    H142774   5.426   1.341   3.151  2.3037 -2.1756  3.7647
 6193TIP3    H242775   5.470   1.208   3.096 -0.7760 -2.4328  1.6617
 6194TIP3   OH242776   7.341   4.681   2.995 -0.2141 -0.1789  0.1585
 6194TIP3    H142777   7.308   4.769   3.013  0.7362  0.3449 -0.5644
 6194TIP3    H242778   7.299   4.626   3.061 -1.7543  0.6007 -0.1210
 6195TIP3   OH242779   6.356   5.594   2.625  0.1947  0.2809 -0.1793
 6195TIP3    H142780   6.414   5.520   2.610 -1.7977 -1.4929  0.3631
 6195TIP3    H242781   6.401   5.647   2.690  2.1764  0.1881 -1.4005
 6196TIP3   OH242782   2.539   4.520   2.677 -0.3882  0.5387 -0.0832
 6196TIP3    H142783   2.581   4.576   2.612  0.5436 -0.9231 -0.7831
 6196TIP3    H242784   2.457   4.565   2.697  0.9559  2.9014  0.5137
 6197TIP3   OH242785   0.547   1.472   2.269  0.0531 -0.2661  0.5018
 6197TIP3    H142786   0.551   1.557   2.312  1.7702  0.5016 -1.0263
 6197TIP3    H242787   0.456   1.464   2.239 -0.6341  0.0799  2.3732
 6198TIP3   OH242788   6.059   1.168   2.154  0.0346  0.1345  0.1326
 6198TIP3    H142789   6.097   1.144   2.239 -1.6689  0.5000  1.0589
 6198TIP3    H242790   5.968   1.138   2.160 -0.2642  0.6666 -1.3652
 6199TIP3   OH242791   1.060   0.617   2.678 -0.8100  0.5519  0.0594
 6199TIP3    H142792   1.004   0.562   2.624  0.1060 -0.2160 -0.1164
 6199TIP3    H242793   1.071   0.568   2.759  1.1638 -0.2187 -0.6252
 6200TIP3   OH242794   4.542   4.046   0.835 -0.0373 -0.4778  0.3563
 6200TIP3    H142795   4.556   4.008   0.921 -0.4343 -1.4524 -0.0005
 6200TIP3    H242796   4.614   4.109   0.824  1.4788 -2.1411  0.3733
 6201TIP3   OH242797   1.937   5.641   1.606  0.4793  0.2477  0.2173
 6201TIP3    H142798   2.000   5.712   1.622  0.7593  0.0344  0.0753
 6201TIP3    H242799   1.909   5.614   1.693 -0.3462  1.1643  0.2525
 6202TIP3   OH242800   1.146   0.134   0.628  0.4455 -0.3011  0.3475
 6202TIP3    H142801   1.131   0.042   0.650  1.7962  0.0171  3.0700
 6202TIP3    H242802   1.240   0.140   0.612 -0.1350 -0.0386 -3.9570
 6203TIP3   OH242803   4.519   2.648   0.988  0.2092 -1.0354  0.4818
 6203TIP3    H142804   4.506   2.617   0.899  1.8593 -1.1554  0.2535
 6203TIP3    H242805   4.473   2.732   0.991 -1.9944 -2.1585  0.3118
 6204TIP3   OH242806   3.094   4.983   1.128 -0.5751 -0.7196  0.6366
 6204TIP3    H142807   3.003   5.013   1.119 -0.8258 -1.3114  1.0882
 6204TIP3    H242808   3.127   5.029   1.204  0.0279  0.6938 -0.4280
 6205TIP3   OH242809   1.147   0.184   2.814 -0.1079  0.1316  0.2476
 6205TIP3    H142810   1.211   0.112   2.813 -0.2784 -0.0285  0.5941
 6205TIP3    H242811   1.086   0.161   2.744  1.0484  1.0711 -1.1435
 6206TIP3   OH242812   0.193   4.820   1.865  0.2078 -0.3488 -0.4648
 6206TIP3    H142813   0.210   4.802   1.773  0.1271 -1.2433 -0.3130
 6206TIP3    H242814   0.097   4.826   1.871 -0.0036 -3.0597  0.0126
 6207TIP3   OH242815   2.914   6.695   1.474  0.7057 -0.0952 -0.0065
 6207TIP3    H142816   2.827   6.701   1.435  0.1238 -1.7455  0.9168
 6207TIP3    H242817   2.968   6.754   1.422 -1.0355  1.2877 -0.3565
 6208TIP3   OH242818   7.617   3.758   0.934 -0.4328 -0.5917  0.4601
 6208TIP3    H142819   7.712   3.747   0.932 -0.6381 -2.5918 -0.8568
 6208TIP3    H242820   7.601   3.821   1.005  1.9637  1.1776 -0.4633
 6209TIP3   OH242821   2.708   4.749   1.060 -0.3856  0.1698 -0.0087
 6209TIP3    H142822   2.664   4.821   1.017  1.1534  0.9155 -0.3895
 6209TIP3    H242823   2.649   4.725   1.132 -1.0790  1.5732 -0.0706
 6210TIP3   OH242824   3.456   2.133   2.715 -0.3500  0.2684 -0.0644
 6210TIP3    H142825   3.438   2.082   2.794 -0.0666  0.0747 -0.1256
 6210TIP3    H242826   3.524   2.195   2.741 -1.5304  1.4378  0.3453
 6211TIP3   OH242827   6.394   6.402   1.668 -0.1092 -0.2154 -0.2102
 6211TIP3    H142828   6.309   6.369   1.698 -0.2079 -1.6803 -1.9312
 6211TIP3    H242829   6.389   6.497   1.682 -1.8913 -0.3220  0.0781
 6212TIP3   OH242830   2.273   2.175   0.945  0.0374 -0.7518  0.3846
 6212TIP3    H142831   2.247   2.252   0.894  1.9586 -0.5405 -0.3411
 6212TIP3    H242832   2.194   2.152   0.994 -0.7047  1.4589  0.3527
 6213TIP3   OH242833   1.676   2.686   1.422 -0.5119 -0.6818  0.0488
 6213TIP3    H142834   1.653   2.631   1.497  0.7583 -0.2485  0.7834
 6213TIP3    H242835   1.685   2.774   1.459 -1.2811 -0.1944 -0.8819
 6214TIP3   OH242836   6.011   1.151   1.884 -0.1505 -0.0565  0.3518
 6214TIP3    H142837   6.042   1.142   1.974 -0.3682 -1.1603  0.3312
 6214TIP3    H242838   6.071   1.215   1.844 -0.5854  1.1019  1.5028
 6215TIP3   OH242839   6.298   7.450   0.844  0.5803 -0.2436 -0.0432
 6215TIP3    H142840   6.244   7.389   0.793  0.4768 -0.0627 -0.1513
 6215TIP3    H242841   6.236   7.514   0.878  0.7930  0.2698 -0.6126
 6216TIP3   OH242842   3.224   6.268   1.191 -0.2001 -0.2500  0.1808
 6216TIP3    H142843   3.189   6.345   1.236  1.1899  0.6069 -0.1135
 6216TIP3    H242844   3.308   6.298   1.156 -0.9691 -1.0227 -2.5467
 6217TIP3   OH242845   2.123   7.438   1.054 -0.1584 -0.2289  0.3267
 6217TIP3    H142846   2.049   7.499   1.049 -0.3117 -0.3570  1.0248
 6217TIP3    H242847   2.188   7.476   0.995 -0.9509 -0.3680 -0.6734
 6218TIP3   OH242848   5.290   7.117   1.310 -0.6817  0.4667 -0.2522
 6218TIP3    H142849   5.195   7.109   1.314 -0.5601 -0.8155  0.6478
 6218TIP3    H242850   5.313   7.090   1.222 -1.1685  1.2012 -0.6182
 6219TIP3   OH242851   0.030   0.519   3.269 -0.2482  0.0716  0.0153
 6219TIP3    H142852   0.025   0.454   3.339 -0.7432 -2.0867 -1.8699
 6219TIP3    H242853   0.037   0.466   3.189  0.8897  2.4012 -1.5325
 6220TIP3   OH242854   5.866   3.651   1.448 -0.5208  0.2640  0.1150
 6220TIP3    H142855   5.773   3.629   1.443 -0.0820 -2.1067  0.9694
 6220TIP3    H242856   5.878   3.686   1.537 -0.4738 -0.1695  0.2817
 6221TIP3   OH242857   5.204   3.111   2.459  0.3494  0.3550  0.1963
 6221TIP3    H142858   5.254   3.121   2.378  0.9603 -2.9343  0.0581
 6221TIP3    H242859   5.270   3.094   2.526 -0.2151  2.2149  1.2943
 6222TIP3   OH242860   6.956   3.852   1.898  0.4299 -0.2793  0.8955
 6222TIP3    H142861   7.046   3.884   1.907  0.1978  0.9729 -0.7469
 6222TIP3    H242862   6.944   3.792   1.972  1.5412  1.9157  2.9939
 6223TIP3   OH242863   3.820   4.546   1.734  0.5722 -0.2401 -0.0674
 6223TIP3    H142864   3.741   4.543   1.789 -0.0995 -1.1455 -1.0435
 6223TIP3    H242865   3.787   4.566   1.647  1.4079 -0.7446 -0.5080
 6224TIP3   OH242866   6.190   5.491   2.029  0.5361 -0.0852  0.5744
 6224TIP3    H142867   6.189   5.402   2.064  3.8381 -0.3432  0.3259
 6224TIP3    H242868   6.173   5.547   2.105 -1.1512 -0.8344  0.8084
 6225TIP3   OH242869   6.568   5.617   1.789 -0.0673 -0.2669  0.2275
 6225TIP3    H142870   6.653   5.662   1.785  0.7912 -1.8590 -0.2156
 6225TIP3    H242871   6.547   5.599   1.698  0.2320 -1.8489  0.4472
 6226TIP3   OH242872   3.435   7.350   0.859  0.2521 -0.4669  0.4555
 6226TIP3    H142873   3.348   7.337   0.822  0.5689  1.1932 -0.9809
 6226TIP3    H242874   3.462   7.263   0.889 -0.9361 -1.4696 -1.2530
 6227TIP3   OH242875   0.846   5.187   1.592  0.0703  0.1245  0.6905
 6227TIP3    H142876   0.781   5.116   1.591 -1.5639  1.5580 -0.2482
 6227TIP3    H242877   0.900   5.172   1.514 -0.6371  0.2140  0.1760
 6228TIP3   OH242878   1.115   3.172   2.222 -0.3753 -0.7001 -0.2380
 6228TIP3    H142879   1.173   3.237   2.183  0.5782 -1.8960 -0.8577
 6228TIP3    H242880   1.107   3.199   2.314 -0.1785  0.4066 -0.5358
 6229TIP3   OH242881   2.414   5.466   2.111  0.3844  0.1638 -0.2276
 6229TIP3    H142882   2.422   5.412   2.033  1.0691  0.6816 -0.5278
 6229TIP3    H242883   2.485   5.529   2.104  0.2841  0.3928  0.6802
 6230TIP3   OH242884   4.278   1.075   1.399 -0.1402  0.5472  0.2419
 6230TIP3    H142885   4.230   1.070   1.316 -0.4817  0.5989  0.4377
 6230TIP3    H242886   4.369   1.086   1.372 -0.3118  1.1309 -0.1259
 6231TIP3   OH242887   4.594   3.298   0.541 -0.4518 -0.0235  0.2016
 6231TIP3    H142888   4.533   3.237   0.500  0.1154 -1.2642  1.1491
 6231TIP3    H242889   4.681   3.260   0.526 -0.1118  0.4108  1.0080
 6232TIP3   OH242890   0.119   0.547   1.107 -0.0040 -0.3469  0.0613
 6232TIP3    H142891   0.028   0.520   1.097 -0.0453  0.2881 -1.5669
 6232TIP3    H242892   0.167   0.466   1.123 -0.4001 -1.1890 -2.5830
 6233TIP3   OH242893   6.543   6.929   0.771 -0.2116  0.3537  0.2860
 6233TIP3    H142894   6.621   6.927   0.827 -1.4221  0.4028  2.0822
 6233TIP3    H242895   6.511   6.839   0.773 -1.0911  0.6644  0.9502
 6234TIP3   OH242896   3.246   2.477   2.350  0.1700 -0.5639  0.0833
 6234TIP3    H142897   3.326   2.497   2.302 -0.6209  0.6703 -0.7672
 6234TIP3    H242898   3.265   2.395   2.395  2.3963  0.3669  1.0020
 6235TIP3   OH242899   1.574   7.179   1.058  0.2614  0.1322 -0.2781
 6235TIP3    H142900   1.589   7.088   1.032 -2.2994 -0.7990  1.1642
 6235TIP3    H242901   1.505   7.210   0.998  0.6473  0.9212 -0.3316
 6236TIP3   OH242902   5.183   5.358   2.081  0.0027 -0.2637 -0.6444
 6236TIP3    H142903   5.227   5.368   2.166 -1.4949 -1.6429  0.3471
 6236TIP3    H242904   5.095   5.392   2.096 -0.3325 -0.6687 -1.6220
 6237TIP3   OH242905   6.702   2.920   1.727 -0.2190  0.2531  0.3515
 6237TIP3    H142906   6.680   2.967   1.646 -3.1578  1.4865  1.7044
 6237TIP3    H242907   6.768   2.974   1.770  1.3401 -0.3927 -1.1245
 6238TIP3   OH242908   1.874   2.494   2.078 -0.0472 -0.1970 -0.3560
 6238TIP3    H142909   1.917   2.431   2.021  0.9284  0.6006 -0.5388
 6238TIP3    H242910   1.793   2.518   2.032  0.9594  0.7979 -1.6730
 6239TIP3   OH242911   3.156   5.389   2.262  0.1490  0.2776  0.4995
 6239TIP3    H142912   3.110   5.470   2.284 -1.4828 -0.6721  0.7341
 6239TIP3    H242913   3.164   5.342   2.345 -0.7413 -0.6806  0.0669
 6240TIP3   OH242914   0.189   2.631   2.572  0.6448 -0.0033  0.4915
 6240TIP3    H142915   0.283   2.633   2.592  0.6375  0.4221  0.4871
 6240TIP3    H242916   0.147   2.611   2.656  0.6994  0.4306  0.6225
 6241TIP3   OH242917   5.378   3.527   0.419 -0.0215 -0.1961 -0.2403
 6241TIP3    H142918   5.418   3.552   0.336 -0.6957 -1.7296 -1.0649
 6241TIP3    H242919   5.371   3.432   0.415  0.0311 -0.3105  1.6342
 6242TIP3   OH242920   7.363   3.599   3.796  0.3715  0.3953  0.0921
 6242TIP3    H142921   7.434   3.622   3.856  1.6334 -2.4738 -0.1322
 6242TIP3    H242922   7.387   3.512   3.764 -1.1821  1.0694 -3.2218
 6243TIP3   OH242923   2.613   1.115   2.559  0.3043  0.2880  0.2392
 6243TIP3    H142924   2.660   1.129   2.476 -1.7092 -0.2772 -1.0819
 6243TIP3    H242925   2.585   1.202   2.586 -0.9462  0.2770 -0.9194
 6244TIP3   OH242926   7.340   7.065   2.977  0.1279 -0.0113  0.1181
 6244TIP3    H142927   7.291   7.147   2.971 -1.5884 -0.9386  0.6767
 6244TIP3    H242928   7.354   7.039   2.886 -1.0986 -0.0624 -0.0820
 6245TIP3   OH242929   3.461   5.221   1.601  0.3072  0.3254  0.0672
 6245TIP3    H142930   3.378   5.187   1.567  0.8551 -0.9563 -0.0593
 6245TIP3    H242931   3.438   5.301   1.648 -0.6128  1.6591 -2.4885
 6246TIP3   OH242932   1.332   6.950   1.800 -0.6882  0.4916 -0.2314
 6246TIP3    H142933   1.340   6.866   1.844 -0.4806  0.2385 -0.7437
 6246TIP3    H242934   1.308   6.928   1.710 -0.0121  0.9404 -0.5335
 6247TIP3   OH242935   5.324   2.520   3.080 -0.7983 -0.0977 -0.3055
 6247TIP3    H142936   5.318   2.559   2.993 -1.7692  0.3064 -0.0590
 6247TIP3    H242937   5.364   2.587   3.134  1.2750 -0.8947 -0.7550
 6248TIP3   OH242938   4.330   5.617   2.364 -0.6277  0.2990 -0.3597
 6248TIP3    H142939   4.277   5.581   2.436  1.2001  0.6606  1.2511
 6248TIP3    H242940   4.318   5.712   2.371  0.1946  0.3808 -0.0018
 6249TIP3   OH242941   5.405   2.630   2.523  0.3291  0.2840 -0.1414
 6249TIP3    H142942   5.475   2.594   2.577 -0.8663 -0.0236  1.2588
 6249TIP3    H242943   5.340   2.662   2.586  0.2085  2.6600 -1.3529
 6250TIP3   OH242944   6.842   6.428   0.692 -0.2656 -0.7042 -0.4251
 6250TIP3    H142945   6.857   6.363   0.761 -0.8163 -0.5346 -0.1338
 6250TIP3    H242946   6.813   6.377   0.616 -0.2071 -0.8460 -0.3525
 6251TIP3   OH242947   0.521   7.307   0.902 -0.0176  0.2635  0.4299
 6251TIP3    H142948   0.511   7.233   0.842  0.9225 -0.9305  1.6643
 6251TIP3    H242949   0.573   7.371   0.853 -1.0602  0.2459 -0.7500
 6252TIP3   OH242950   0.100   6.769   1.821  0.5635  0.0808  0.4972
 6252TIP3    H142951   0.147   6.702   1.771  0.0685  0.3220 -0.3235
 6252TIP3    H242952   0.035   6.720   1.871 -1.3793  0.0709 -1.8756
 6253TIP3   OH242953   6.687   1.353   1.888 -0.0472 -0.3961  0.8860
 6253TIP3    H142954   6.629   1.418   1.927  0.3940  0.7956 -0.3819
 6253TIP3    H242955   6.641   1.270   1.901 -1.2600  0.3195  1.3548
 6254TIP3   OH242956   7.521   1.124   3.109 -0.2090 -0.5001 -0.1905
 6254TIP3    H142957   7.486   1.187   3.045 -0.5045 -0.2665  0.1914
 6254TIP3    H242958   7.445   1.073   3.136 -0.0399 -0.7603 -0.2057
 6255TIP3   OH242959   1.993   5.208   1.909 -0.3190  0.2538  0.4725
 6255TIP3    H142960   1.903   5.241   1.914 -0.8393 -1.2451  2.1362
 6255TIP3    H242961   2.041   5.259   1.974 -0.6333 -0.7060  1.5053
 6256TIP3   OH242962   7.236   3.747   2.268  0.2880  0.4340 -0.5136
 6256TIP3    H142963   7.203   3.818   2.213  0.9633  1.9691  0.9640
 6256TIP3    H242964   7.328   3.739   2.243  0.3846  0.5549 -0.1943
 6257TIP3   OH242965   6.781   7.142   3.405 -0.1983  0.2553 -0.2735
 6257TIP3    H142966   6.823   7.212   3.354  2.1194 -1.0843 -0.3532
 6257TIP3    H242967   6.799   7.165   3.496  1.7054 -0.7981 -0.3265
 6258TIP3   OH242968   5.501   2.005   1.563  0.2844 -0.0957 -0.1469
 6258TIP3    H142969   5.546   1.949   1.500 -2.3508  0.3564 -2.6137
 6258TIP3    H242970   5.556   2.083   1.570  0.6564 -0.1652 -1.9113
 6259TIP3   OH242971   2.331   4.636   1.474  0.3049  0.2460  0.3166
 6259TIP3    H142972   2.329   4.544   1.449 -2.0446  0.4013 -0.3961
 6259TIP3    H242973   2.331   4.636   1.570 -0.7837 -0.5497  0.3361
 6260TIP3   OH242974   4.912   5.551   1.461 -0.3889 -0.6590 -0.3921
 6260TIP3    H142975   4.996   5.597   1.465 -0.4859 -0.5672  1.1697
 6260TIP3    H242976   4.848   5.620   1.448 -0.4092 -0.4912  0.5695
 6261TIP3   OH242977   5.140   7.214   2.135 -0.0600  0.1730  0.4741
 6261TIP3    H142978   5.062   7.199   2.189 -0.7346  0.9968 -0.2418
 6261TIP3    H242979   5.213   7.198   2.195 -0.7821  0.5063  1.4817
 6262TIP3   OH242980   1.586   4.537   0.871 -0.1287 -0.3163  0.2534
 6262TIP3    H142981   1.668   4.526   0.920 -0.7204 -1.1313  1.1072
 6262TIP3    H242982   1.556   4.625   0.895  0.2416 -0.2089  0.3354
 6263TIP3   OH242983   7.592   5.708   2.309  0.8360  0.3788 -0.0905
 6263TIP3    H142984   7.619   5.682   2.221  0.1112  3.4571 -1.3218
 6263TIP3    H242985   7.666   5.684   2.365  0.3802 -3.8655 -0.9749
 6264TIP3   OH242986   5.462   1.601   2.257  0.4024  0.0552 -0.3198
 6264TIP3    H142987   5.452   1.689   2.294 -0.6469  0.0715 -0.6036
 6264TIP3    H242988   5.498   1.549   2.329 -0.4615  0.3656  0.3636
 6265TIP3   OH242989   2.835   3.511   0.660 -0.4719  0.3754  0.9751
 6265TIP3    H142990   2.841   3.533   0.753 -0.4314 -0.9408  1.3011
 6265TIP3    H242991   2.765   3.446   0.656  0.0353 -0.1358  0.1927
 6266TIP3   OH242992   6.364   5.753   0.382 -0.0865  0.2489 -0.2969
 6266TIP3    H142993   6.298   5.711   0.435  0.7024 -0.7540 -0.0794
 6266TIP3    H242994   6.327   5.754   0.293 -0.6343  0.2618 -0.0703
 6267TIP3   OH242995   0.323   3.471   3.591 -0.3478  0.2593  0.2385
 6267TIP3    H142996   0.407   3.500   3.557 -0.5217 -0.7444 -1.1786
 6267TIP3    H242997   0.334   3.468   3.686 -0.2320  4.4777  0.5381
 6268TIP3   OH242998   5.012   2.463   2.190 -0.4282  0.2990  0.0906
 6268TIP3    H142999   5.033   2.465   2.097 -1.0396  2.7828 -0.0486
 6268TIP3    H243000   5.097   2.465   2.234 -0.0925 -1.8147 -0.3335
 6269TIP3   OH243001   3.518   1.546   2.349 -0.5929 -0.4365 -0.5610
 6269TIP3    H143002   3.490   1.494   2.424 -1.7866  1.2278  0.1976
 6269TIP3    H243003   3.437   1.568   2.302  0.1589 -1.9096 -2.7204
 6270TIP3   OH243004   6.214   5.321   2.813 -0.0358  0.4812  0.2020
 6270TIP3    H143005   6.154   5.344   2.742 -1.1128 -0.8570  0.6415
 6270TIP3    H243006   6.205   5.392   2.876  0.6180  1.4765 -0.7801
 6271TIP3   OH243007   5.740   5.037   2.684  0.1970 -0.2029  0.1334
 6271TIP3    H143008   5.752   5.089   2.763  1.2525 -0.2914  0.0386
 6271TIP3    H243009   5.746   5.100   2.613 -1.4496 -0.0100  0.1278
 6272TIP3   OH243010   4.685   0.306   0.686  0.1375 -0.2506 -0.4643
 6272TIP3    H143011   4.780   0.316   0.685  0.0430  0.9387  0.4439
 6272TIP3    H243012   4.665   0.265   0.602  1.6281 -2.4551  0.1667
 6273TIP3   OH243013   1.774   5.075   1.180  0.1311 -0.6014 -0.0344
 6273TIP3    H143014   1.775   4.979   1.176 -2.2156 -0.7131  0.7998
 6273TIP3    H243015   1.845   5.097   1.241 -0.0476 -1.8989  0.6790
 6274TIP3   OH243016   0.838   1.508   1.791  0.0086  0.6894  0.3168
 6274TIP3    H143017   0.929   1.499   1.819  0.1841 -0.9159 -0.6495
 6274TIP3    H243018   0.831   1.452   1.713 -1.8402  0.6847  0.4447
 6275TIP3   OH243019   0.473   7.122   1.447 -0.4626  0.1014 -0.1087
 6275TIP3    H143020   0.429   7.161   1.371 -0.1693  0.4652 -0.0965
 6275TIP3    H243021   0.509   7.039   1.414  0.6060  0.7654 -0.6692
 6276TIP3   OH243022   7.202   5.388   1.190  0.1507 -0.1769  0.2669
 6276TIP3    H143023   7.131   5.426   1.243  1.4321 -0.1975  2.0795
 6276TIP3    H243024   7.191   5.294   1.200  1.0995 -0.1859  1.5832
 6277TIP3   OH243025   5.093   3.397   0.742 -0.1543  0.1239 -0.2138
 6277TIP3    H143026   5.125   3.319   0.696 -0.4859  0.5847 -1.2664
 6277TIP3    H243027   5.140   3.397   0.825 -0.9421 -1.7827  0.2850
 6278TIP3   OH243028   1.355   4.579   2.765 -0.2534 -0.6041  0.2216
 6278TIP3    H143029   1.351   4.654   2.824  0.8457 -0.8282  0.6202
 6278TIP3    H243030   1.372   4.505   2.823  1.0480 -0.7974 -0.3777
 6279TIP3   OH243031   1.574   6.200   1.604  0.7958 -0.0345  0.1073
 6279TIP3    H143032   1.502   6.155   1.648  0.4026 -0.0026 -0.4896
 6279TIP3    H243033   1.566   6.173   1.513  2.0796 -0.7268  0.1913
 6280TIP3   OH243034   3.375   0.780   1.095 -0.0051  0.0085  0.1467
 6280TIP3    H143035   3.331   0.813   1.017  0.8047 -0.7449 -0.6547
 6280TIP3    H243036   3.407   0.859   1.140  0.2287  0.4129 -0.7134
 6281TIP3   OH243037   3.764   3.871   0.823 -0.0708 -0.2469 -0.8583
 6281TIP3    H143038   3.689   3.898   0.876 -0.1302 -1.1282 -0.4837
 6281TIP3    H243039   3.798   3.953   0.787  1.3727  0.7251  2.3519
 6282TIP3   OH243040   6.865   2.984   2.579 -0.2961  0.1260  0.5178
 6282TIP3    H143041   6.942   3.021   2.621  0.0031 -1.0203  1.0195
 6282TIP3    H243042   6.819   2.936   2.648 -1.1131  0.2363  0.0765
 6283TIP3   OH243043   4.014   1.244   1.851  0.2080  0.2620 -0.2899
 6283TIP3    H143044   4.047   1.323   1.893 -1.4535  1.3564 -0.9744
 6283TIP3    H243045   4.057   1.172   1.898 -1.3417  1.3796  3.1684
 6284TIP3   OH243046   2.634   0.498   2.708  0.1725  0.7065 -0.5944
 6284TIP3    H143047   2.649   0.583   2.750  1.9383 -0.0294  0.3540
 6284TIP3    H243048   2.721   0.459   2.700 -0.5830 -0.9600 -1.1413
 6285TIP3   OH243049   0.396   4.308   2.030  0.0900 -0.2897  0.3243
 6285TIP3    H143050   0.457   4.380   2.047  0.5973 -0.5828 -0.2652
 6285TIP3    H243051   0.381   4.269   2.116  1.7937 -1.0765  0.2845
 6286TIP3   OH243052   7.044   2.139   2.326  0.2879  0.0320 -0.1040
 6286TIP3    H143053   6.993   2.059   2.315  0.7702 -0.3083  0.0828
 6286TIP3    H243054   7.024   2.192   2.249 -0.1425 -0.2065 -0.1592
 6287TIP3   OH243055   5.991   3.108   1.511  0.4330  0.0747 -0.1437
 6287TIP3    H143056   6.015   3.088   1.420  0.5514  0.1770 -0.1354
 6287TIP3    H243057   6.073   3.097   1.559  0.6756  1.2849 -0.2466
 6288TIP3   OH243058   3.955   5.906   0.678  0.1691 -0.6648 -0.4688
 6288TIP3    H143059   3.960   5.914   0.773  1.2802  1.5324 -0.6608
 6288TIP3    H243060   3.863   5.887   0.661 -0.0514 -1.0933  1.0260
 6289TIP3   OH243061   3.033   0.553   0.832  0.1544  0.0913 -0.7268
 6289TIP3    H143062   2.995   0.507   0.907 -0.4596  0.1930 -0.9741
 6289TIP3    H243063   2.961   0.563   0.770 -0.2930  3.2604  0.1704
 6290TIP3   OH243064   5.784   3.410   2.737 -0.5100 -0.0258  0.5924
 6290TIP3    H143065   5.704   3.450   2.771 -0.1097  1.3980 -0.1030
 6290TIP3    H243066   5.753   3.349   2.670 -0.9493  1.9114 -1.0483
 6291TIP3   OH243067   4.764   2.157   3.262  0.0146  0.1142  0.6693
 6291TIP3    H143068   4.671   2.143   3.280 -0.3657 -0.0417 -1.2329
 6291TIP3    H243069   4.766   2.194   3.174  1.8254 -1.5897 -0.0781
 6292TIP3   OH243070   6.995   0.338   1.864  0.1005  0.0768 -0.1794
 6292TIP3    H143071   6.988   0.300   1.777 -0.4746  0.5856 -0.3642
 6292TIP3    H243072   7.078   0.306   1.898  0.1108 -0.4960 -0.7343
 6293TIP3   OH243073   1.591   6.125   2.092 -0.4681  0.0485 -0.3282
 6293TIP3    H143074   1.660   6.065   2.066 -0.4295 -0.1821  0.3024
 6293TIP3    H243075   1.636   6.193   2.143 -0.2778  1.4072 -2.2003
 6294TIP3   OH243076   6.157   0.488   1.411 -0.2564  0.5852  0.2532
 6294TIP3    H143077   6.155   0.436   1.491 -1.4086  0.6331  0.2804
 6294TIP3    H243078   6.225   0.554   1.426 -0.4249  0.5595  1.1763
 6295TIP3   OH243079   0.282   0.630   3.128 -0.4948  0.0115 -0.0797
 6295TIP3    H143080   0.373   0.658   3.129 -0.5101  0.1154 -1.1405
 6295TIP3    H243081   0.285   0.539   3.159 -0.1241  0.2477  0.5910
 6296TIP3   OH243082   1.306   7.668   1.227  0.2613 -0.0493 -0.2481
 6296TIP3    H143083   1.343   7.596   1.176 -0.5872  0.6671 -1.9697
 6296TIP3    H243084   1.211   7.653   1.222  0.1683 -0.3759  1.8128
 6297TIP3   OH243085   7.234   6.285   3.180 -0.0425  0.4235 -0.2001
 6297TIP3    H143086   7.313   6.336   3.194 -0.3715  1.3212 -1.4051
 6297TIP3    H243087   7.252   6.236   3.099 -0.1815 -0.4679  0.3013
 6298TIP3   OH243088   3.572   1.270   0.704 -0.2113  0.2107  0.5904
 6298TIP3    H143089   3.660   1.300   0.683 -0.4171  0.5070  0.1579
 6298TIP3    H243090   3.514   1.337   0.670 -0.7901 -1.5114 -2.1247
 6299TIP3   OH243091   6.342   5.688   2.378 -0.2277 -0.4731 -0.0161
 6299TIP3    H143092   6.408   5.757   2.365  1.1485 -1.4256  1.4900
 6299TIP3    H243093   6.338   5.678   2.473 -3.1281  0.0364 -0.0142
 6300TIP3   OH243094   0.351   1.575   0.612 -0.2184 -0.7218  0.4926
 6300TIP3    H143095   0.408   1.539   0.681 -0.3729 -0.0929  0.9593
 6300TIP3    H243096   0.412   1.606   0.545  0.0126  0.2617  1.1452
 6301TIP3   OH243097   3.862   6.749   2.755 -0.8327  0.2103  0.7148
 6301TIP3    H143098   3.914   6.706   2.823  1.8713 -0.0382 -1.3086
 6301TIP3    H243099   3.833   6.831   2.795 -2.5714 -1.5091  3.3031
 6302TIP3   OH243100   4.841   3.818   2.538 -0.0571 -0.3855  0.8151
 6302TIP3    H143101   4.756   3.804   2.495  0.0187  1.5286 -0.0386
 6302TIP3    H243102   4.827   3.790   2.629 -1.1358 -1.5425  0.3175
 6303TIP3   OH243103   5.510   2.725   0.417 -0.1555 -0.4862 -0.0225
 6303TIP3    H143104   5.546   2.651   0.367 -0.3391 -1.6548  1.5061
 6303TIP3    H243105   5.490   2.688   0.503  0.0803  1.4498  0.9064
 6304TIP3   OH243106   3.277   2.288   1.120 -0.2791 -0.2265  0.1178
 6304TIP3    H143107   3.345   2.222   1.104 -1.2590 -0.8418 -1.8438
 6304TIP3    H243108   3.325   2.365   1.149  1.5108 -0.1229 -2.7060
 6305TIP3   OH243109   1.731   6.441   1.549  0.3805  0.1278 -0.2674
 6305TIP3    H143110   1.779   6.478   1.623 -0.9325  0.3585  0.5040
 6305TIP3    H243111   1.691   6.362   1.584  0.0316  0.0546 -0.8240
 6306TIP3   OH243112   4.631   6.490   0.865 -0.5445  0.1141  0.0783
 6306TIP3    H143113   4.648   6.430   0.793 -3.3113 -1.3052  0.4520
 6306TIP3    H243114   4.701   6.555   0.860  1.2514 -1.8121 -1.7854
 6307TIP3   OH243115   5.689   6.800   1.155  0.0629 -0.3144 -0.0235
 6307TIP3    H143116   5.692   6.857   1.078  0.7542 -2.1033 -1.4143
 6307TIP3    H243117   5.780   6.794   1.183  0.1254 -1.3358 -0.4012
 6308TIP3   OH243118   0.653   3.969   2.970  0.1154  0.3073 -0.4188
 6308TIP3    H143119   0.738   3.973   3.014 -0.0124 -2.4193  0.2839
 6308TIP3    H243120   0.594   3.933   3.036 -1.0422  0.0244 -1.5814
 6309TIP3   OH243121   2.670   5.270   2.097 -0.3455  0.4681 -0.0863
 6309TIP3    H143122   2.619   5.305   2.024  0.6203  1.6641 -0.2217
 6309TIP3    H243123   2.694   5.347   2.148 -1.6114 -0.4126  1.9361
 6310TIP3   OH243124   5.167   1.900   1.413  0.0394 -0.4054  0.0578
 6310TIP3    H143125   5.191   1.909   1.506 -0.9543 -1.5634  0.4550
 6310TIP3    H243126   5.246   1.866   1.372 -0.1534 -2.0368  0.9307
 6311TIP3   OH243127   6.424   3.214   2.608 -0.1659  0.0299  0.4165
 6311TIP3    H143128   6.425   3.120   2.626 -2.4129 -0.2693 -0.6671
 6311TIP3    H243129   6.384   3.253   2.686  0.4346  0.0756  0.7118
 6312TIP3   OH243130   2.327   3.513   1.156 -0.3300 -0.0414  0.1064
 6312TIP3    H143131   2.266   3.448   1.191 -0.2977  0.0889  0.4145
 6312TIP3    H243132   2.271   3.580   1.117 -0.4366  0.5753  1.2628
 6313TIP3   OH243133   1.032   7.626   1.274 -0.1440  0.5170 -0.4199
 6313TIP3    H143134   1.041   7.606   1.367 -1.6874  0.1911 -0.3144
 6313TIP3    H243135   0.972   7.559   1.240  0.8527  0.2688 -1.7964
 6314TIP3   OH243136   1.497   4.514   3.188  0.4404  0.6829 -0.3525
 6314TIP3    H143137   1.514   4.608   3.190 -0.5338  0.8577 -0.0751
 6314TIP3    H243138   1.574   4.477   3.144 -0.0330  1.8032 -2.2399
 6315TIP3   OH243139   2.969   2.104   1.491 -0.4383  0.1819 -0.9199
 6315TIP3    H143140   2.905   2.174   1.497 -0.2821  0.2647 -0.0968
 6315TIP3    H243141   3.046   2.139   1.536 -0.3734 -0.5317 -0.4735
 6316TIP3   OH243142   6.472   0.779   2.645 -0.3318  0.5009  0.0965
 6316TIP3    H143143   6.473   0.745   2.556  1.4379  1.3204 -0.2565
 6316TIP3    H243144   6.387   0.822   2.654 -1.5290 -1.6455 -0.3166
 6317TIP3   OH243145   3.632   5.404   1.472 -0.3584 -0.1255 -0.3828
 6317TIP3    H143146   3.575   5.330   1.491 -0.6969  0.5272  1.3300
 6317TIP3    H243147   3.607   5.470   1.537  0.0749  1.4160 -1.7232
 6318TIP3   OH243148   4.663   2.382   0.651  0.0006  0.4636 -0.0121
 6318TIP3    H143149   4.691   2.469   0.624 -0.9155  0.6846 -0.2554
 6318TIP3    H243150   4.744   2.330   0.650  0.3914  1.0626 -0.8224
 6319TIP3   OH243151   6.924   4.651   3.202 -0.1802 -0.1970  0.1983
 6319TIP3    H143152   6.876   4.681   3.279 -0.6940  0.1456 -0.2457
 6319TIP3    H243153   6.867   4.584   3.164  0.4881 -1.0173  0.6146
 6320TIP3   OH243154   0.039   3.844   1.991  0.6444  0.4355  0.4388
 6320TIP3    H143155   0.019   3.793   1.913 -1.0123 -0.9151  1.6681
 6320TIP3    H243156   0.112   3.900   1.965  0.6266 -0.4868 -1.8326
 6321TIP3   OH243157   4.181   4.269   1.021 -0.0608  0.8819  0.2401
 6321TIP3    H143158   4.220   4.210   1.087 -1.0338 -0.3275 -0.2322
 6321TIP3    H243159   4.221   4.354   1.039  2.6340 -0.2119 -0.0642
 6322TIP3   OH243160   5.303   6.078   0.914 -0.3406 -0.5854 -0.0087
 6322TIP3    H143161   5.227   6.029   0.942 -0.6925 -0.1534 -0.1926
 6322TIP3    H243162   5.368   6.012   0.892 -0.0915 -0.9300  1.6925
 6323TIP3   OH243163   1.451   1.878   0.598  0.0652 -0.1307  0.3882
 6323TIP3    H143164   1.465   1.784   0.593 -0.4400 -0.1712 -0.3685
 6323TIP3    H243165   1.539   1.916   0.590  0.0955 -0.4779 -1.1152
 6324TIP3   OH243166   4.021   7.328   1.345 -0.3300  0.0185 -0.0109
 6324TIP3    H143167   4.031   7.238   1.377 -0.8299 -0.0838 -0.1344
 6324TIP3    H243168   3.932   7.353   1.371 -0.0393  0.6405  0.4227
 6325TIP3   OH243169   2.470   5.724   1.684  0.3796 -0.1452 -0.4871
 6325TIP3    H143170   2.464   5.773   1.602  0.1550  0.9301  0.1489
 6325TIP3    H243171   2.557   5.747   1.719  0.6154 -0.8722 -0.5916
 6326TIP3   OH243172   2.840   4.485   0.922  0.4206  0.0225 -0.3150
 6326TIP3    H143173   2.811   4.470   0.832 -2.8525 -1.2592  0.8214
 6326TIP3    H243174   2.819   4.577   0.940  1.9213  0.5440 -1.0736
 6327TIP3   OH243175   4.311   4.564   0.641 -0.3882 -0.0804 -0.5057
 6327TIP3    H143176   4.386   4.547   0.699 -0.9778  0.4752  0.4518
 6327TIP3    H243177   4.294   4.480   0.599  0.4584 -0.3396 -0.3561
 6328TIP3   OH243178   2.313   2.431   1.361 -0.4070 -0.3273  0.3158
 6328TIP3    H143179   2.358   2.457   1.442 -0.4773 -0.7433  0.4876
 6328TIP3    H243180   2.368   2.362   1.325  1.0888  1.5912 -1.3655
 6329TIP3   OH243181   5.291   5.542   2.670 -0.0029 -0.3634 -0.1184
 6329TIP3    H143182   5.322   5.613   2.726  1.9818 -0.3454 -1.1275
 6329TIP3    H243183   5.198   5.533   2.691  0.0131  1.5764  1.0368
 6330TIP3   OH243184   2.077   2.619   2.502  0.4505  0.1075  0.5106
 6330TIP3    H143185   2.011   2.654   2.442 -0.5000 -0.2473  1.3109
 6330TIP3    H243186   2.101   2.534   2.465  0.1308  0.0438  0.4450
 6331TIP3   OH243187   0.469   2.302   1.712 -0.0649  0.5029 -0.0591
 6331TIP3    H143188   0.544   2.245   1.733  1.4705  2.3772 -0.1789
 6331TIP3    H243189   0.497   2.389   1.739 -2.2935  1.2691 -0.0139
 6332TIP3   OH243190   0.273   3.888   2.615 -0.2182  0.5536  0.8009
 6332TIP3    H143191   0.193   3.888   2.563 -0.0393 -0.8884  0.4794
 6332TIP3    H243192   0.340   3.921   2.555 -0.5132  1.5709  1.0093
 6333TIP3   OH243193   6.161   0.483   2.563  0.4659 -0.0682 -0.1582
 6333TIP3    H143194   6.175   0.526   2.479  0.7204  0.0431 -0.0600
 6333TIP3    H243195   6.083   0.429   2.550 -0.5549  1.2972  0.0307
 6334TIP3   OH243196   0.330   1.065   2.027  0.1698 -0.0667  0.0296
 6334TIP3    H143197   0.262   1.048   1.962 -0.6575  0.6872  0.6824
 6334TIP3    H243198   0.377   1.142   1.994  0.7399 -0.6004 -0.4322
 6335TIP3   OH243199   6.915   1.448   2.198 -0.0195  0.0322  0.3065
 6335TIP3    H143200   6.883   1.368   2.157 -0.9322 -0.6391  2.2248
 6335TIP3    H243201   6.868   1.519   2.153  0.3390 -0.5238 -0.9820
 6336TIP3   OH243202   0.327   3.921   0.781  0.6083 -0.0323  0.0259
 6336TIP3    H143203   0.279   3.849   0.822  0.6660  0.0779  0.2917
 6336TIP3    H243204   0.419   3.899   0.793  0.6264  0.1068  0.1496
 6337TIP3   OH243205   2.805   1.336   1.169  0.1714  0.0197 -0.3455
 6337TIP3    H143206   2.788   1.430   1.158 -2.0716 -0.2071  0.6133
 6337TIP3    H243207   2.885   1.332   1.220  0.0188  1.4336  0.0564
 6338TIP3   OH243208   1.987   0.126   2.332  0.1024  0.3812 -0.1013
 6338TIP3    H143209   2.025   0.067   2.397 -3.3628 -2.8132 -0.6621
 6338TIP3    H243210   1.953   0.199   2.383  3.1775  1.3705  0.7792
 6339TIP3   OH243211   6.515   4.372   1.064  0.2090  0.8701 -0.3796
 6339TIP3    H143212   6.422   4.356   1.045 -0.7670  2.3592  2.6589
 6339TIP3    H243213   6.554   4.384   0.977 -2.6794  1.5514 -1.7340
 6340TIP3   OH243214   1.208   2.162   2.815 -0.4778  0.7320 -0.2228
 6340TIP3    H143215   1.245   2.123   2.894 -1.2493 -0.6534 -0.5249
 6340TIP3    H243216   1.114   2.162   2.829 -0.5269  2.1587 -0.4064
 6341TIP3   OH243217   3.594   3.275   2.047 -0.0697  0.3347  0.7131
 6341TIP3    H143218   3.586   3.294   2.140  0.1070  2.0239  0.4100
 6341TIP3    H243219   3.534   3.336   2.004  0.9841  0.6578 -0.3697
 6342TIP3   OH243220   7.050   6.612   2.720 -0.3824  0.4263  0.1634
 6342TIP3    H143221   7.143   6.619   2.697 -0.2917  1.3617  0.7722
 6342TIP3    H243222   7.044   6.650   2.808 -1.5130  1.4225 -0.3100
 6343TIP3   OH243223   7.617   7.164   2.817  0.2666  0.0069 -0.3311
 6343TIP3    H143224   7.710   7.140   2.820  0.5137  0.6272 -1.9520
 6343TIP3    H243225   7.596   7.191   2.906  1.4718 -0.7433  0.2029
 6344TIP3   OH243226   1.808   3.157   1.539  0.2039 -0.0255 -0.0082
 6344TIP3    H143227   1.791   3.194   1.626 -2.3137  0.6753 -0.6841
 6344TIP3    H243228   1.744   3.201   1.482  1.0621 -1.2218 -2.0185
 6345TIP3   OH243229   0.292   7.434   2.338  0.2755 -0.1054 -0.2129
 6345TIP3    H143230   0.208   7.389   2.331 -0.4613  1.3194 -0.7253
 6345TIP3    H243231   0.282   7.514   2.286  0.6488  2.0110  2.7625
 6346TIP3   OH243232   3.548   1.203   0.968 -0.4953 -0.5865 -0.0023
 6346TIP3    H143233   3.534   1.208   0.874 -0.2302  0.1195 -0.0062
 6346TIP3    H243234   3.550   1.109   0.987 -2.8443 -0.7707 -0.3630
 6347TIP3   OH243235   0.713   2.571   2.037 -0.2095 -0.0944  0.1021
 6347TIP3    H143236   0.626   2.586   2.002  0.1269 -0.4736 -0.9361
 6347TIP3    H243237   0.770   2.625   1.982  0.0704  1.2169  1.6304
 6348TIP3   OH243238   2.754   6.067   2.602 -0.2112 -0.5373 -0.1391
 6348TIP3    H143239   2.800   6.151   2.594  0.7042 -1.0345 -0.2197
 6348TIP3    H243240   2.676   6.077   2.546 -0.5362  0.5288  0.4793
 6349TIP3   OH243241   6.178   4.899   1.928  0.0741 -0.1368  0.5070
 6349TIP3    H143242   6.205   4.808   1.943 -1.3447 -0.1236  4.2539
 6349TIP3    H243243   6.083   4.897   1.929 -0.0194  1.2481 -1.0455
 6350TIP3   OH243244   2.551   4.098   2.166  0.2961 -0.3585  0.2247
 6350TIP3    H143245   2.618   4.150   2.123  0.0341  1.8900  2.3598
 6350TIP3    H243246   2.468   4.137   2.138  0.1022  0.6596  2.0462
 6351TIP3   OH243247   4.873   1.204   1.761 -0.0145 -0.0105 -0.5714
 6351TIP3    H143248   4.885   1.136   1.695  0.7962 -0.4328 -0.0038
 6351TIP3    H243249   4.950   1.260   1.752  0.8799 -0.9090  0.9625
 6352TIP3   OH243250   0.723   5.207   2.291  0.4842  0.7083 -0.5937
 6352TIP3    H143251   0.691   5.222   2.380 -0.6431 -0.1041 -0.8429
 6352TIP3    H243252   0.802   5.261   2.285 -0.3369  2.0939  0.3385
 6353TIP3   OH243253   0.421   3.032   2.297  0.2806 -0.1184 -0.5157
 6353TIP3    H143254   0.510   3.069   2.299 -0.3061  1.3830 -0.8642
 6353TIP3    H243255   0.406   3.002   2.386  0.6332  0.9301 -0.0826
 6354TIP3   OH243256   5.122   5.093   3.061 -0.0416  0.4296 -0.4446
 6354TIP3    H143257   5.050   5.050   3.015 -0.0235  0.0893 -0.1523
 6354TIP3    H243258   5.100   5.186   3.057 -1.4107  0.2041  1.1745
 6355TIP3   OH243259   6.287   6.990   1.042  0.0827  0.5755 -0.3638
 6355TIP3    H143260   6.291   7.035   0.958  0.7792  0.5653 -0.3386
 6355TIP3    H243261   6.331   7.049   1.104  1.5845 -0.4025 -0.4572
 6356TIP3   OH243262   3.569   1.611   1.252 -0.0153 -0.1736  0.5213
 6356TIP3    H143263   3.553   1.551   1.179 -1.3151  2.6904 -1.8007
 6356TIP3    H243264   3.631   1.675   1.217 -0.3939  1.0899  2.0536
 6357TIP3   OH243265   0.178   4.202   1.643  0.0201 -0.1421  0.2344
 6357TIP3    H143266   0.155   4.231   1.732 -0.3334 -1.6840  0.6828
 6357TIP3    H243267   0.180   4.282   1.591 -2.0887  0.5624  1.1416
 6358TIP3   OH243268   6.120   5.463   2.589  0.0723 -0.6812  0.1139
 6358TIP3    H143269   6.178   5.537   2.601 -0.8164 -0.2737  2.3727
 6358TIP3    H243270   6.057   5.492   2.523 -0.1524  0.5364  0.8340
 6359TIP3   OH243271   5.058   6.610   0.656  0.3913  0.6421  0.8727
 6359TIP3    H143272   5.088   6.619   0.566  0.6358  1.2831  1.0089
 6359TIP3    H243273   5.107   6.536   0.690  0.7103  0.7426  0.6380
 6360TIP3   OH243274   7.660   2.227   2.622  0.0988  0.1888 -0.6060
 6360TIP3    H143275   7.639   2.139   2.653  1.9499 -0.5177 -1.2021
 6360TIP3    H243276   7.602   2.285   2.671  1.7085 -0.9588  2.9986
 6361TIP3   OH243277   0.393   3.595   1.205 -1.1103  0.2645  0.1490
 6361TIP3    H143278   0.405   3.522   1.266  1.5363  0.4122 -0.0642
 6361TIP3    H243279   0.307   3.631   1.227 -1.8336 -1.9530  1.2684
 6362TIP3   OH243280   6.503   6.951   1.365  0.1799  0.0293 -0.0939
 6362TIP3    H143281   6.561   6.894   1.316  0.3714  1.0315 -1.0636
 6362TIP3    H243282   6.501   7.033   1.316 -2.6451 -0.1967 -0.5422
 6363TIP3   OH243283   6.064   7.629   1.386  0.1202  0.9753  0.6979
 6363TIP3    H143284   6.008   7.695   1.345 -0.6790  0.2920  0.6724
 6363TIP3    H243285   6.141   7.678   1.415 -0.9101  2.1260  1.6200
 6364TIP3   OH243286   2.418   1.874   2.127  0.2209  0.2337 -0.2251
 6364TIP3    H143287   2.403   1.796   2.073  0.2155 -0.0828  0.2270
 6364TIP3    H243288   2.458   1.841   2.207  0.0655  0.6768  0.0429
 6365TIP3   OH243289   3.129   1.485   1.162 -0.0623 -0.3132 -0.3219
 6365TIP3    H143290   3.169   1.439   1.236  0.7571 -0.8928 -1.1141
 6365TIP3    H243291   3.049   1.523   1.199  0.8781  0.3491  1.1368
 6366TIP3   OH243292   4.674   0.906   0.949  0.5535  0.3235  0.4201
 6366TIP3    H143293   4.648   0.990   0.987 -3.7033 -0.7841  0.4688
 6366TIP3    H243294   4.648   0.841   1.014  0.4789 -1.1847 -1.0366
 6367TIP3   OH243295   2.099   5.915   1.361  0.3733  0.2077  0.5488
 6367TIP3    H143296   2.056   5.830   1.352  1.3592 -0.1432 -1.2383
 6367TIP3    H243297   2.057   5.954   1.438 -2.8062 -0.2735 -0.7903
 6368TIP3   OH243298   6.586   5.438   1.229 -0.3316 -0.7143  0.2576
 6368TIP3    H143299   6.569   5.366   1.167  0.0195 -0.7345  0.1816
 6368TIP3    H243300   6.602   5.514   1.173 -0.7317 -0.5650  0.3387
 6369TIP3   OH243301   1.532   3.247   1.437 -0.2653  0.2803 -0.7673
 6369TIP3    H143302   1.465   3.258   1.505  0.2126 -1.0049 -0.0666
 6369TIP3    H243303   1.488   3.276   1.357 -0.6807  2.2965  0.1079
 6370TIP3   OH243304   2.382   1.433   0.435  0.0471 -0.0656 -0.0184
 6370TIP3    H143305   2.467   1.469   0.462 -1.4774  2.1143  2.4182
 6370TIP3    H243306   2.342   1.406   0.518 -2.6529  1.5255 -0.6871
 6371TIP3   OH243307   0.878   1.543   0.941  0.3309  0.0876  0.3422
 6371TIP3    H143308   0.932   1.614   0.907  1.1773 -1.0352 -0.7178
 6371TIP3    H243309   0.795   1.585   0.963  1.4303  1.7635  1.5598
 6372TIP3   OH243310   1.478   0.944   1.406 -0.5152  0.0892  0.3767
 6372TIP3    H143311   1.446   0.868   1.357  2.0726  0.0719 -1.4353
 6372TIP3    H243312   1.405   1.006   1.403 -1.4319 -0.9863 -1.1527
 6373TIP3   OH243313   6.548   7.016   1.672 -0.5769  0.7390  0.0312
 6373TIP3    H143314   6.566   7.037   1.581 -0.5961  0.4057 -0.0502
 6373TIP3    H243315   6.634   7.019   1.715 -0.2188 -1.2680 -0.4402
 6374TIP3   OH243316   3.003   1.289   1.872  0.5641 -0.3723 -0.6795
 6374TIP3    H143317   3.030   1.205   1.908  0.1921  0.2012  1.0378
 6374TIP3    H243318   3.032   1.354   1.936  1.1913  0.8702 -2.1460
 6375TIP3   OH243319   2.709   4.336   1.560  0.2748 -0.2404 -0.7038
 6375TIP3    H143320   2.727   4.276   1.488 -1.5555  0.3579 -1.7372
 6375TIP3    H243321   2.703   4.422   1.518 -1.5527  0.0218  0.0027
 6376TIP3   OH243322   6.194   3.815   2.295 -0.1254  0.0823  0.7350
 6376TIP3    H143323   6.104   3.847   2.294 -0.0775  0.2284 -0.2864
 6376TIP3    H243324   6.247   3.892   2.316 -0.2632 -0.1164  1.8722
 6377TIP3   OH243325   2.475   1.305   1.154  0.3726  0.4022  0.0367
 6377TIP3    H143326   2.472   1.335   1.245 -0.5700  0.0181  0.1428
 6377TIP3    H243327   2.507   1.380   1.105 -0.0886  0.9489  0.5589
 6378TIP3   OH243328   7.185   5.493   1.930 -0.2776 -0.3035 -0.3386
 6378TIP3    H143329   7.238   5.492   2.010 -0.3979  2.1333 -0.1514
 6378TIP3    H243330   7.133   5.414   1.934  0.3350 -0.6442  1.5796
 6379TIP3   OH243331   6.884   7.107   2.576  0.1300  0.0753 -0.0971
 6379TIP3    H143332   6.869   7.189   2.528  0.5325  0.1153 -0.1594
 6379TIP3    H243333   6.915   7.135   2.663 -0.5220  0.0021  0.1606
 6380TIP3   OH243334   4.863   3.251   0.805  0.1457  0.1405  0.5378
 6380TIP3    H143335   4.941   3.307   0.811 -0.0304  0.2524  2.2686
 6380TIP3    H243336   4.874   3.185   0.874 -2.0937  1.2804  2.1629
 6381TIP3   OH243337   3.784   0.548   1.891  0.3135  0.0835  0.1981
 6381TIP3    H143338   3.706   0.495   1.909 -0.1095  1.0760  1.4373
 6381TIP3    H243339   3.847   0.486   1.853 -0.5032 -1.0899  0.7089
 6382TIP3   OH243340   0.777   0.178   2.091  0.0176 -0.0516 -0.1347
 6382TIP3    H143341   0.720   0.161   2.016 -0.8966  3.7206 -0.5233
 6382TIP3    H243342   0.836   0.247   2.060  2.2437 -1.0892  1.5044
 6383TIP3   OH243343   6.491   1.150   2.072 -0.1036  0.0326  0.0339
 6383TIP3    H143344   6.473   1.173   1.981 -1.1233 -2.0897 -0.3554
 6383TIP3    H243345   6.489   1.054   2.074 -0.2554  0.0258  2.3264
 6384TIP3   OH243346   2.546   6.189   2.372  0.6464 -0.4198  0.2754
 6384TIP3    H143347   2.507   6.135   2.304 -0.5175  1.1704 -0.4017
 6384TIP3    H243348   2.600   6.252   2.325  1.6648 -0.7275  1.0055
 6385TIP3   OH243349   6.776   3.887   0.627  1.0110  0.5963  0.2196
 6385TIP3    H143350   6.811   3.862   0.713 -1.7155  1.4542  1.7056
 6385TIP3    H243351   6.830   3.962   0.601  1.9944  0.2305  1.0889
 6386TIP3   OH243352   0.537   3.622   3.307 -0.0535  0.1664 -0.0486
 6386TIP3    H143353   0.498   3.679   3.241 -0.8908 -0.5444 -0.1850
 6386TIP3    H243354   0.574   3.682   3.372  0.1300  0.8661 -0.7828
 6387TIP3   OH243355   4.703   3.470   1.293 -0.0719 -0.0482 -0.2222
 6387TIP3    H143356   4.655   3.388   1.285 -2.2305  0.9845  1.4933
 6387TIP3    H243357   4.652   3.533   1.242  1.1633  0.4371 -0.9129
 6388TIP3   OH243358   6.514   0.935   1.703  0.0343  0.1470  0.0681
 6388TIP3    H143359   6.602   0.969   1.719  0.3271  0.5154 -1.9599
 6388TIP3    H243360   6.526   0.840   1.699  0.3463  0.1903 -0.1202
 6389TIP3   OH243361   3.293   5.946   1.007 -0.5920 -0.1633  0.5333
 6389TIP3    H143362   3.235   5.892   1.059 -0.9152  2.1695  2.7506
 6389TIP3    H243363   3.364   5.971   1.067  1.4656 -0.9540 -1.4125
 6390TIP3   OH243364   6.945   1.431   0.687  0.1484 -0.1999 -0.0966
 6390TIP3    H143365   6.964   1.522   0.662  1.4491  0.1039  1.8434
 6390TIP3    H243366   7.026   1.384   0.669 -0.2529 -0.8341 -0.2863
 6391TIP3   OH243367   4.278   1.868   1.420 -0.2296  0.1684 -0.0800
 6391TIP3    H143368   4.322   1.810   1.482 -0.2413  1.3075  1.0413
 6391TIP3    H243369   4.314   1.955   1.438 -2.3156  1.0107  0.3285
 6392TIP3   OH243370   5.324   0.417   3.098 -0.1197  0.5430  0.4396
 6392TIP3    H143371   5.247   0.360   3.107 -0.3955  0.8998  0.3787
 6392TIP3    H243372   5.398   0.362   3.122 -0.5405  0.6368  2.1000
 6393TIP3   OH243373   0.923   2.631   0.831  0.2473  0.3523  0.2447
 6393TIP3    H143374   0.880   2.684   0.899  1.7632 -0.2185  1.7101
 6393TIP3    H243375   1.013   2.664   0.829  0.8902 -1.3293  0.3141
 6394TIP3   OH243376   6.508   1.113   1.180 -0.5277  0.2165 -0.5192
 6394TIP3    H143377   6.557   1.085   1.102 -0.4683 -0.8323 -0.1261
 6394TIP3    H243378   6.448   1.040   1.197  0.6787 -0.3684  1.4439
 6395TIP3   OH243379   2.245   0.217   1.717  0.5311  0.4584 -0.6902
 6395TIP3    H143380   2.214   0.308   1.712  1.3739  0.7471 -0.9069
 6395TIP3    H243381   2.301   0.215   1.794 -0.0155 -0.0565 -0.2982
 6396TIP3   OH243382   0.390   7.240   7.682  0.5633  0.5269 -0.1912
 6396TIP3    H143383   0.362   7.171   7.621 -0.8874  0.6689  0.2623
 6396TIP3    H243384   0.476   7.267   7.651  0.1515  0.1216 -1.7669
 6397TIP3   OH243385   4.710   0.854   3.555 -0.3608 -0.0046 -0.2034
 6397TIP3    H143386   4.651   0.859   3.480 -1.5414  2.0276  0.7919
 6397TIP3    H243387   4.727   0.945   3.578  2.1268 -0.5563  0.3988
 6398TIP3   OH243388   1.510   2.491   2.015  0.0510  0.3056 -0.1556
 6398TIP3    H143389   1.423   2.464   2.044  0.0230  0.2295 -0.3092
 6398TIP3    H243390   1.539   2.421   1.957  0.6668 -0.1960  0.7459
 6399TIP3   OH243391   2.725   2.251   2.151  0.0888  0.2470  0.5240
 6399TIP3    H143392   2.712   2.345   2.145  1.7929  0.4481 -1.1561
 6399TIP3    H243393   2.647   2.213   2.111 -0.5668  0.9178  1.1259
 6400TIP3   OH243394   2.662   6.501   0.818 -0.1182 -0.0654  0.0685
 6400TIP3    H143395   2.577   6.545   0.805 -0.7037 -1.1109  0.2616
 6400TIP3    H243396   2.722   6.549   0.761 -1.3567 -0.8326 -2.0202
 6401TIP3   OH243397   0.956   0.100   1.700  0.5834  0.0378 -0.4523
 6401TIP3    H143398   0.967   0.195   1.695  1.8293 -0.0862 -0.1710
 6401TIP3    H243399   0.899   0.087   1.777  2.7982  0.4198  1.3498
 6402TIP3   OH243400   5.058   5.489   0.523  0.2140 -0.2991  0.4301
 6402TIP3    H143401   4.996   5.493   0.450 -0.1196  0.1092  0.7321
 6402TIP3    H243402   5.029   5.557   0.583 -0.3329 -1.4810  1.5762
 6403TIP3   OH243403   5.261   2.211   2.188  0.0702  1.0032  0.2152
 6403TIP3    H143404   5.268   2.301   2.220 -1.1575  0.9436  0.7310
 6403TIP3    H243405   5.241   2.220   2.095  0.1249  1.2642  0.2264
 6404TIP3   OH243406   0.298   0.788   0.580  0.2162 -0.4857  0.7559
 6404TIP3    H143407   0.245   0.708   0.580 -0.8402  0.1857  0.2318
 6404TIP3    H243408   0.242   0.852   0.625 -0.5737  0.9544 -2.0655
 6405TIP3   OH243409   3.441   6.962   2.532  0.0626 -0.0063 -0.3602
 6405TIP3    H143410   3.453   7.056   2.544  1.0019 -0.2366  0.6545
 6405TIP3    H243411   3.529   6.925   2.539 -0.5257 -1.2135  1.8961
 6406TIP3   OH243412   1.426   2.223   2.297  0.2296  0.5465 -0.0714
 6406TIP3    H143413   1.490   2.165   2.337 -0.7236 -1.2759 -1.0267
 6406TIP3    H243414   1.445   2.309   2.333  2.3686 -0.1614  0.6301
 6407TIP3   OH243415   3.149   5.129   1.362  0.0394  0.4265  0.8856
 6407TIP3    H143416   3.177   5.104   1.450  1.4127  0.8902  0.6148
 6407TIP3    H243417   3.215   5.193   1.334 -1.2859  1.5121  0.1450
 6408TIP3   OH243418   2.596   7.270   1.953 -0.2527  0.3498  0.0418
 6408TIP3    H143419   2.547   7.344   1.988 -2.5759 -0.9335 -0.2863
 6408TIP3    H243420   2.665   7.254   2.018 -1.7870  0.7147  1.8610
 6409TIP3   OH243421   1.952   2.869   0.963  0.2513 -0.0614  0.6181
 6409TIP3    H143422   1.901   2.929   1.018  1.7580  0.6974  1.2250
 6409TIP3    H243423   1.936   2.783   1.002  0.7277  0.3780  1.8177
 6410TIP3   OH243424   1.667   5.437   0.885  0.1255 -0.6135 -0.1699
 6410TIP3    H143425   1.685   5.524   0.849  1.8286 -0.2555  1.4142
 6410TIP3    H243426   1.655   5.451   0.979  1.1413 -2.1487  0.2334
 6411TIP3   OH243427   2.558   4.234   0.658 -0.0148 -0.5443  0.1620
 6411TIP3    H143428   2.567   4.174   0.731  1.9239  0.2481  0.6482
 6411TIP3    H243429   2.466   4.262   0.660 -0.1103 -0.8897  2.0151
 6412TIP3   OH243430   2.763   7.565   2.906 -0.3872  0.0670 -0.4979
 6412TIP3    H143431   2.695   7.498   2.908  0.3392 -0.6839 -0.0948
 6412TIP3    H243432   2.843   7.519   2.932  0.8443  0.3075 -3.4302
 6413TIP3   OH243433   2.280   0.419   2.203 -0.0524  0.2214 -0.2863
 6413TIP3    H143434   2.337   0.360   2.253  0.2692  0.8787  0.1358
 6413TIP3    H243435   2.192   0.384   2.216 -0.3182  1.6417  2.7001
 6414TIP3   OH243436   7.079   7.064   2.308 -0.9186 -0.0759  0.6215
 6414TIP3    H143437   7.127   7.007   2.247 -0.2935  0.8268  0.2575
 6414TIP3    H243438   7.040   7.131   2.253 -0.6185  0.5602  1.1785
 6415TIP3   OH243439   7.409   1.107   2.596  0.0375  0.4463 -0.1768
 6415TIP3    H143440   7.327   1.117   2.645  0.8209  0.4845  1.1943
 6415TIP3    H243441   7.469   1.170   2.636  0.8132  0.2542 -0.9892
 6416TIP3   OH243442   0.060   1.245   3.500 -0.1754  0.3296 -0.4148
 6416TIP3    H143443   0.075   1.173   3.438  1.9140 -1.1544  1.6005
 6416TIP3    H243444  -0.033   1.240   3.521 -0.4210 -0.6570 -1.6192
 6417TIP3   OH243445   0.105   4.719   2.784  0.8173 -0.0520 -0.0184
 6417TIP3    H143446   0.136   4.660   2.853  1.4154 -0.7509 -0.8695
 6417TIP3    H243447   0.111   4.806   2.823  1.4594 -0.4001  0.6970
 6418TIP3   OH243448   0.688   7.544   1.437 -0.1684  0.5555  0.1127
 6418TIP3    H143449   0.654   7.465   1.479 -0.3110  0.4791 -0.1439
 6418TIP3    H243450   0.783   7.533   1.439 -0.2008  0.0853 -0.4732
 6419TIP3   OH243451   7.133   7.202   1.606  0.4910  0.4737  0.4836
 6419TIP3    H143452   7.102   7.284   1.644 -0.4874 -0.1037  0.9878
 6419TIP3    H243453   7.066   7.178   1.542 -0.1434 -0.7857  1.5676
 6420TIP3   OH243454   7.572   3.313   2.028  0.4228 -0.4692  0.5960
 6420TIP3    H143455   7.635   3.289   1.960  1.0627 -1.8340  1.6032
 6420TIP3    H243456   7.538   3.398   2.001 -0.3403 -1.5113 -2.1176
 6421TIP3   OH243457   5.952   4.356   1.362  0.4945  0.6804 -0.0842
 6421TIP3    H143458   5.974   4.398   1.446  0.5469 -1.2282  0.9172
 6421TIP3    H243459   5.874   4.304   1.382  1.5331 -1.1999 -0.7319
 6422TIP3   OH243460   1.727   7.139   0.751 -0.7468  0.0178  0.2417
 6422TIP3    H143461   1.775   7.208   0.798  0.7891  0.1903 -1.4489
 6422TIP3    H243462   1.786   7.114   0.680 -2.5449 -0.9156 -0.9901
 6423TIP3   OH243463   2.577   1.160   2.934 -0.1717  0.1518  0.2417
 6423TIP3    H143464   2.653   1.102   2.943 -0.0445  0.2988  0.1270
 6423TIP3    H243465   2.559   1.191   3.023 -0.1530  0.0462  0.2822
 6424TIP3   OH243466   4.451   2.195   1.916  0.3281  0.2659  0.4621
 6424TIP3    H143467   4.441   2.118   1.972  0.6845  0.8790  1.3876
 6424TIP3    H243468   4.514   2.251   1.961  0.1886  1.0433 -0.2650
 6425TIP3   OH243469   5.692   4.597   0.739 -0.3472  0.1466 -0.8023
 6425TIP3    H143470   5.670   4.630   0.826  0.3064  0.7000 -0.8406
 6425TIP3    H243471   5.612   4.609   0.688 -0.3963  0.8309 -0.5689
 6426TIP3   OH243472   0.172   3.978   3.280  0.2835 -0.0031 -0.1607
 6426TIP3    H143473   0.238   4.040   3.309  0.0737 -0.0998  0.5404
 6426TIP3    H243474   0.089   4.026   3.283  0.2172 -0.1077 -0.2833
 6427TIP3   OH243475   1.090   3.870   2.156 -0.0751 -0.5784  0.1974
 6427TIP3    H143476   1.039   3.950   2.168  0.6925 -0.0311 -0.1142
 6427TIP3    H243477   1.024   3.801   2.152 -0.7176 -0.0324  0.9922
 6428TIP3   OH243478   0.235   2.273   2.204  0.2009 -0.1434 -0.7691
 6428TIP3    H143479   0.320   2.314   2.193  0.3113  0.3136  1.4472
 6428TIP3    H243480   0.221   2.225   2.122  2.1243  0.5617 -1.5612
 6429TIP3   OH243481   3.473   7.451   1.365 -0.1301  0.0204 -0.3362
 6429TIP3    H143482   3.451   7.527   1.311 -0.5745 -1.0850 -1.7456
 6429TIP3    H243483   3.476   7.377   1.304  1.3719 -0.9371  0.8104
 6430TIP3   OH243484   4.413   4.289   1.396 -0.7889  0.3446 -0.3929
 6430TIP3    H143485   4.408   4.254   1.307  0.1911  0.8016 -0.6399
 6430TIP3    H243486   4.348   4.239   1.445  0.9819 -2.2990 -0.5513
 6431TIP3   OH243487   4.096   2.904   2.466 -0.0157  0.1333 -0.1540
 6431TIP3    H143488   4.130   2.865   2.546 -0.9101  0.2147  0.2819
 6431TIP3    H243489   4.160   2.970   2.442  0.3614 -0.0314  0.3783
 6432TIP3   OH243490   6.864   6.060   2.730 -0.1294 -0.6333 -0.2065
 6432TIP3    H143491   6.777   6.074   2.692  0.1534  2.8440  0.0732
 6432TIP3    H243492   6.904   5.993   2.674 -2.3150 -0.9522 -1.5072
 6433TIP3   OH243493   4.996   3.205   2.106  1.0840 -0.0693  0.1295
 6433TIP3    H143494   4.973   3.113   2.101 -0.5562  0.3291 -0.0257
 6433TIP3    H243495   4.936   3.249   2.046  2.7631  0.9599 -0.8893
 6434TIP3   OH243496   7.115   6.776   2.296  0.0255 -0.6426 -0.2337
 6434TIP3    H143497   7.203   6.739   2.309 -0.7682 -2.7766 -0.6338
 6434TIP3    H243498   7.056   6.707   2.326 -1.5949 -0.5999 -3.0938
 6435TIP3   OH243499   0.056   1.665   1.196 -0.5448 -0.0720  0.9213
 6435TIP3    H143500   0.018   1.691   1.280  0.1983 -0.1628  1.2951
 6435TIP3    H243501   0.140   1.711   1.192  1.1228 -2.7801  1.8925
 6436TIP3   OH243502   0.153   1.594   2.526 -0.1337  0.1473  0.0135
 6436TIP3    H143503   0.194   1.671   2.486  0.5137 -0.5331 -0.6636
 6436TIP3    H243504   0.061   1.601   2.501  0.1795 -0.0326 -1.2539
 6437TIP3   OH243505   6.117   2.953   1.980  0.4494  0.2763  0.2222
 6437TIP3    H143506   6.160   3.009   2.044 -0.1348 -0.2539  1.1043
 6437TIP3    H243507   6.174   2.876   1.973 -0.3314 -0.4391  1.4123
 6438TIP3   OH243508   4.715   6.023   1.546 -0.0068  0.6295  0.9235
 6438TIP3    H143509   4.662   6.093   1.508 -1.2816 -0.7631  0.0302
 6438TIP3    H243510   4.683   6.015   1.636 -1.5200 -0.3308  0.3356
 6439TIP3   OH243511   7.671   1.564   0.829  0.3618  0.4940  0.3739
 6439TIP3    H143512   7.696   1.655   0.846  1.1420  0.5223 -0.8104
 6439TIP3    H243513   7.753   1.515   0.835  0.1637  0.0709 -0.2993
 6440TIP3   OH243514   1.573   3.897   1.410 -0.2947  0.6602 -0.4221
 6440TIP3    H143515   1.501   3.891   1.347 -1.3393 -0.7949  0.8330
 6440TIP3    H243516   1.576   3.989   1.434 -0.4978  1.0753 -1.8561
 6441TIP3   OH243517   6.654   3.343   2.886  0.0584  0.1543 -0.0158
 6441TIP3    H143518   6.690   3.302   2.808  0.3302  1.0806 -0.3773
 6441TIP3    H243519   6.701   3.426   2.895  1.0911 -0.5584  1.9547
 6442TIP3   OH243520   4.584   7.072   2.795  0.2432  0.0775  0.0093
 6442TIP3    H143521   4.534   6.991   2.807  1.1520 -0.3153  1.4503
 6442TIP3    H243522   4.669   7.042   2.760  0.9867  0.2596  1.5832
 6443TIP3   OH243523   5.599   0.109   0.755  0.0896 -0.4861  0.3087
 6443TIP3    H143524   5.527   0.055   0.788 -0.5115  0.4639  0.5770
 6443TIP3    H243525   5.585   0.195   0.793 -1.7605  1.2813 -3.7323
 6444TIP3   OH243526   2.034   4.373   3.098  0.5336  0.2893 -0.3605
 6444TIP3    H143527   2.011   4.316   3.171  0.7486 -0.4523 -0.8636
 6444TIP3    H243528   1.996   4.330   3.021  0.0806  1.1964 -0.6634
 6445TIP3   OH243529   5.190   0.067   1.755 -0.3336  0.2887 -0.7331
 6445TIP3    H143530   5.222   0.005   1.689  2.4658 -0.2998  1.0412
 6445TIP3    H243531   5.238   0.148   1.737 -0.5823  0.5470 -0.2579
 6446TIP3   OH243532   2.612   1.521   1.959 -0.3134  0.3188 -0.0774
 6446TIP3    H143533   2.666   1.483   2.029 -0.7004  1.6971  1.0185
 6446TIP3    H243534   2.670   1.583   1.915 -0.5064  0.5571  0.0028
 6447TIP3   OH243535   0.243   3.843   0.497  0.1640  0.2459  0.2827
 6447TIP3    H143536   0.278   3.762   0.536  1.3589  0.3504 -0.5233
 6447TIP3    H243537   0.302   3.912   0.529  1.0715  0.3602 -1.5089
 6448TIP3   OH243538   2.565   0.215   2.387  0.2885 -0.6114  0.0705
 6448TIP3    H143539   2.563   0.208   2.482 -2.0373 -1.1118  0.0500
 6448TIP3    H243540   2.479   0.184   2.359  1.3520 -1.6939 -2.2926
 6449TIP3   OH243541   1.758   1.723   2.330 -0.0848  0.1056 -0.1708
 6449TIP3    H143542   1.813   1.777   2.274 -1.5569 -0.2086 -2.0453
 6449TIP3    H243543   1.730   1.651   2.273 -0.7807 -0.8317  1.3066
 6450TIP3   OH243544   1.989   1.060   0.823  0.4666  0.0305 -0.4885
 6450TIP3    H143545   1.964   1.091   0.736  0.5922  1.0455 -0.1734
 6450TIP3    H243546   2.038   1.133   0.861  0.3789 -0.3895  0.4473
 6451TIP3   OH243547   5.643   4.956   1.065  0.2293 -0.0678 -0.4809
 6451TIP3    H143548   5.711   4.920   1.122 -0.5782  2.1572  2.1057
 6451TIP3    H243549   5.690   5.007   1.000  1.1184  0.1111  0.2807
 6452TIP3   OH243550   6.459   4.573   1.745 -0.0408 -0.1961 -0.5209
 6452TIP3    H143551   6.418   4.657   1.721 -0.7930 -0.8223 -1.5294
 6452TIP3    H243552   6.544   4.598   1.781 -0.6335  1.0551  0.0966
 6453TIP3   OH243553   1.030   1.516   1.487 -0.7187 -0.1419  0.4883
 6453TIP3    H143554   0.949   1.467   1.500 -1.3981  0.2143 -1.8237
 6453TIP3    H243555   1.010   1.605   1.515 -0.6900 -0.3530  1.1836
 6454TIP3   OH243556   4.568   1.025   2.115 -0.3661 -0.8066  0.6331
 6454TIP3    H143557   4.616   1.017   2.032 -1.4785  1.1522 -0.2666
 6454TIP3    H243558   4.626   1.075   2.172  0.1680 -1.6756  0.8752
 6455TIP3   OH243559   4.029   5.976   1.728 -0.4055 -0.6216 -0.1749
 6455TIP3    H143560   4.029   6.068   1.700 -1.6294  0.1306  2.0631
 6455TIP3    H243561   3.975   5.932   1.663 -1.2228  0.5920 -0.3571
 6456TIP3   OH243562   5.239   4.416   1.463  0.6596  0.0389 -0.1402
 6456TIP3    H143563   5.263   4.464   1.383 -0.5152 -0.2439 -0.6929
 6456TIP3    H243564   5.173   4.353   1.433 -3.4564  3.0161  1.7072
 6457TIP3   OH243565   2.230   7.338   2.303 -0.4024 -0.4014 -0.2183
 6457TIP3    H143566   2.322   7.357   2.323  0.6542 -2.0125 -3.1000
 6457TIP3    H243567   2.193   7.423   2.280  0.0695  0.3914  1.6926
 6458TIP3   OH243568   3.453   5.191   2.651 -1.1152 -0.0642 -0.1169
 6458TIP3    H143569   3.533   5.180   2.702 -0.8523 -1.6867 -0.8097
 6458TIP3    H243570   3.396   5.243   2.707  0.3096  0.8946  0.5023
 6459TIP3   OH243571   5.622   6.232   0.850  0.3294 -0.1379  0.0540
 6459TIP3    H143572   5.539   6.278   0.842 -0.2719 -1.0244  0.9802
 6459TIP3    H243573   5.611   6.176   0.926  1.7251 -0.3907  0.0925
 6460TIP3   OH243574   6.885   0.230   2.550  0.3535  0.0797  0.4990
 6460TIP3    H143575   6.805   0.238   2.602  0.0578 -0.4767  0.1370
 6460TIP3    H243576   6.954   0.211   2.614  0.2383  0.7687  0.8363
 6461TIP3   OH243577   4.524   3.594   2.597  0.4304  0.4767  0.0193
 6461TIP3    H143578   4.483   3.507   2.597  1.1389  0.1256 -0.3328
 6461TIP3    H243579   4.586   3.590   2.670 -0.3873  1.1183  0.7607
 6462TIP3   OH243580   2.849   3.624   1.391 -0.3589  0.3308 -0.1273
 6462TIP3    H143581   2.759   3.637   1.361 -0.0786  1.1082 -0.6325
 6462TIP3    H243582   2.899   3.602   1.312 -0.1521 -0.4184  0.1956
 6463TIP3   OH243583   2.702   1.161   2.308 -0.0445  0.2188 -0.6542
 6463TIP3    H143584   2.655   1.103   2.248  0.7358  0.6497 -1.7317
 6463TIP3    H243585   2.772   1.199   2.254  0.7827  0.5162  0.5748
 6464TIP3   OH243586   4.351   6.260   1.833  0.4805 -0.1042  0.5041
 6464TIP3    H143587   4.290   6.323   1.872 -1.1203 -0.4408 -1.3125
 6464TIP3    H243588   4.437   6.287   1.865 -0.4385  1.3639  1.8908
 6465TIP3   OH243589   3.827   2.440   2.584  0.4581  0.4947 -0.1684
 6465TIP3    H143590   3.808   2.534   2.579 -1.6098  0.0975 -0.6347
 6465TIP3    H243591   3.750   2.403   2.627  1.7437 -0.8792  1.0522
 6466TIP3   OH243592   4.488   6.342   2.518  0.2100 -0.6278  0.1233
 6466TIP3    H143593   4.530   6.331   2.604 -0.1912  0.1363  0.4307
 6466TIP3    H243594   4.549   6.397   2.469 -0.6373  0.9467  0.7589
 6467TIP3   OH243595   6.289   2.161   1.930 -0.5273  0.2294 -0.1466
 6467TIP3    H143596   6.227   2.131   1.997 -0.7796 -0.1974 -0.5652
 6467TIP3    H243597   6.313   2.082   1.883 -0.4477  0.5437 -0.6411
 6468TIP3   OH243598   7.359   7.309   1.047 -0.1968 -0.4417 -0.2087
 6468TIP3    H143599   7.442   7.277   1.013 -1.7965 -3.1291 -2.0076
 6468TIP3    H243600   7.330   7.240   1.108 -0.5479  1.0665  1.4039
 6469TIP3   OH243601   4.615   3.492   3.115 -0.1458 -0.0620 -0.2196
 6469TIP3    H143602   4.541   3.518   3.169  0.4254  1.1985  0.0051
 6469TIP3    H243603   4.692   3.505   3.171  0.4428  1.1635 -1.2428
 6470TIP3   OH243604   4.958   4.222   2.149  0.4108 -1.4139 -0.0392
 6470TIP3    H143605   5.041   4.250   2.187 -0.2983  1.1726 -0.1648
 6470TIP3    H243606   4.956   4.263   2.062 -1.1902 -0.9622  0.1656
 6471TIP3   OH243607   0.885   6.269   2.679  0.0927 -0.0907 -0.4494
 6471TIP3    H143608   0.941   6.252   2.755  0.3842 -1.5632 -0.9704
 6471TIP3    H243609   0.802   6.227   2.700 -0.3297  0.7859 -0.3295
 6472TIP3   OH243610   6.585   2.640   2.237 -0.6372 -0.1485  0.1630
 6472TIP3    H143611   6.611   2.555   2.201 -0.2553 -0.1267  0.3752
 6472TIP3    H243612   6.526   2.677   2.172  0.3630  0.0755 -0.6420
 6473TIP3   OH243613   5.663   1.794   0.787  0.6061  0.1004  0.5685
 6473TIP3    H143614   5.579   1.797   0.832 -0.0494  0.5481 -0.6264
 6473TIP3    H243615   5.641   1.778   0.695  1.6693  1.8932 -0.0722
 6474TIP3   OH243616   3.218   2.846   2.813 -0.0938  0.0764 -0.0055
 6474TIP3    H143617   3.290   2.896   2.852  0.9033  0.7315 -2.5061
 6474TIP3    H243618   3.241   2.754   2.827  0.5682  0.2934  0.3522
 6475TIP3   OH243619   3.218   5.802   1.740  1.1408  0.3882 -0.0565
 6475TIP3    H143620   3.286   5.765   1.683  1.2190 -1.9662  1.4249
 6475TIP3    H243621   3.225   5.752   1.821  0.1583  2.7107  1.5772
 6476TIP3   OH243622   5.121   1.385   1.200  0.1375  0.2377 -0.1590
 6476TIP3    H143623   5.123   1.309   1.258 -1.0172 -0.7240 -1.3123
 6476TIP3    H243624   5.101   1.459   1.258 -0.1189 -0.5528  0.7894
 6477TIP3   OH243625   1.252   2.450   0.716  0.1250 -0.2282 -0.0930
 6477TIP3    H143626   1.285   2.537   0.693  0.2742 -0.0674  0.6869
 6477TIP3    H243627   1.209   2.418   0.637  0.1699  0.5096 -0.4178
 6478TIP3   OH243628   2.737   2.283   1.242 -0.0789 -0.6508  0.2134
 6478TIP3    H143629   2.821   2.280   1.196 -0.2356 -1.8768 -0.0135
 6478TIP3    H243630   2.759   2.318   1.329  0.1777  1.9780 -0.8049
 6479TIP3   OH243631   2.080   4.721   2.523  0.6493  0.0575  0.1176
 6479TIP3    H143632   2.071   4.805   2.568  1.6829  1.7292 -2.4984
 6479TIP3    H243633   2.175   4.709   2.512  0.4820 -0.9737 -0.3571
 6480TIP3   OH243634   6.963   3.131   3.403 -0.2342  0.5312  0.4783
 6480TIP3    H143635   6.964   3.102   3.494 -0.7409 -0.2780  0.2352
 6480TIP3    H243636   7.010   3.214   3.404 -1.7220  1.4150  1.7762
 6481TIP3   OH243637   5.860   1.061   0.873 -0.1449  0.0346 -0.2305
 6481TIP3    H143638   5.862   1.108   0.956  0.0880 -1.7954  0.8513
 6481TIP3    H243639   5.934   1.097   0.823  0.5836  0.1648  0.9154
 6482TIP3   OH243640   4.259   3.994   1.762 -0.0665  0.2880 -0.1922
 6482TIP3    H143641   4.250   4.007   1.856 -0.1692 -0.7589 -0.0409
 6482TIP3    H243642   4.206   3.916   1.744  0.2623  0.2567 -1.0526
 6483TIP3   OH243643   4.799   1.882   3.001 -0.2756  0.3319  0.2670
 6483TIP3    H143644   4.738   1.853   3.068 -0.0340  0.6875  0.6530
 6483TIP3    H243645   4.790   1.977   3.000 -0.7218  0.2901 -0.6473
 6484TIP3   OH243646   4.995   5.181   1.834 -0.1233  0.1838  0.3755
 6484TIP3    H143647   5.020   5.147   1.920  0.0571 -0.2827  0.1424
 6484TIP3    H243648   5.076   5.215   1.797 -0.3607  1.2183  0.7479
 6485TIP3   OH243649   3.087   7.470   1.275  0.2940 -0.5409 -0.2667
 6485TIP3    H143650   3.154   7.488   1.208 -2.1998  5.5032 -1.8544
 6485TIP3    H243651   3.024   7.412   1.232  0.9327 -0.3604 -1.4818
 6486TIP3   OH243652   1.888   7.539   1.487  0.8954  0.4402  0.1312
 6486TIP3    H143653   1.871   7.490   1.567  0.6540  0.2814 -0.0178
 6486TIP3    H243654   1.856   7.483   1.417  0.1979  1.0036 -0.0076
 6487TIP3   OH243655   1.491   5.693   3.174 -0.2737 -0.1298  0.1582
 6487TIP3    H143656   1.449   5.779   3.171  1.5613  0.8376  0.9387
 6487TIP3    H243657   1.418   5.631   3.166 -1.8107  1.4491  1.1458
 6488TIP3   OH243658   0.996   3.543   1.879 -0.3523  0.5930  0.1616
 6488TIP3    H143659   0.974   3.569   1.969 -2.6358  1.4839 -0.5659
 6488TIP3    H243660   0.994   3.625   1.830 -0.5641 -0.0623 -0.9485
 6489TIP3   OH243661   0.685   7.549   1.117  0.0612  0.0375  0.0578
 6489TIP3    H143662   0.755   7.484   1.128 -1.2372 -1.2021  1.4197
 6489TIP3    H243663   0.646   7.558   1.204 -0.3078  2.1142 -0.2575
 6490TIP3   OH243664   7.614   1.199   2.774 -0.1660  0.2246 -0.6577
 6490TIP3    H143665   7.643   1.263   2.840  2.0490 -1.3102 -0.0370
 6490TIP3    H243666   7.604   1.117   2.823 -0.2592 -0.5411 -1.9302
 6491TIP3   OH243667   2.597   3.191   3.576 -0.4136 -0.2994 -0.2968
 6491TIP3    H143668   2.514   3.237   3.592 -0.3268  0.1433 -1.0510
 6491TIP3    H243669   2.646   3.250   3.517  0.3043 -0.6994 -0.1130
 6492TIP3   OH243670   2.307   3.977   0.969 -0.2341 -0.3871 -0.4920
 6492TIP3    H143671   2.374   3.994   0.903  1.0870 -1.2346  0.5608
 6492TIP3    H243672   2.225   3.972   0.920  0.6877 -0.9055 -2.0443
 6493TIP3   OH243673   3.758   7.009   1.769  0.3150 -0.4916 -0.3739
 6493TIP3    H143674   3.762   7.099   1.802 -0.3996 -1.2845  2.1054
 6493TIP3    H243675   3.733   6.957   1.845  0.6948 -2.8141 -1.7475
 6494TIP3   OH243676   2.729   4.888   1.406  0.3524  0.3615  1.4757
 6494TIP3    H143677   2.781   4.815   1.372  0.1359  0.6116  0.5848
 6494TIP3    H243678   2.794   4.951   1.436  0.5674  0.4055  0.9374
 6495TIP3   OH243679   2.659   1.544   0.601 -0.8445 -0.2765  0.4911
 6495TIP3    H143680   2.665   1.640   0.600  0.0335 -0.2185  3.1054
 6495TIP3    H243681   2.678   1.520   0.692 -1.5107 -2.9245  0.0086
 6496TIP3   OH243682   1.958   6.899   2.231  0.9293  0.5088 -0.0757
 6496TIP3    H143683   2.024   6.969   2.235  2.1556 -0.4884 -1.5840
 6496TIP3    H243684   2.006   6.823   2.199 -1.1119 -0.0307 -2.1568
 6497TIP3   OH243685   3.788   2.200   1.035 -0.1859 -0.4280 -0.6906
 6497TIP3    H143686   3.880   2.176   1.025 -0.2012 -0.6563 -0.3217
 6497TIP3    H243687   3.749   2.185   0.949 -0.1236 -1.4288 -0.5614
 6498TIP3   OH243688   5.619   0.300   2.228  0.0525 -0.3204 -0.2708
 6498TIP3    H143689   5.590   0.327   2.141  1.1525  0.3997 -0.4271
 6498TIP3    H243690   5.563   0.225   2.249 -1.3784  0.5391 -0.8723
 6499TIP3   OH243691   0.728   6.476   2.827  0.2212 -0.3599 -0.1149
 6499TIP3    H143692   0.764   6.465   2.739  1.1863  0.3618  0.1735
 6499TIP3    H243693   0.633   6.474   2.815  0.3272 -1.7767 -0.9638
 6500TIP3   OH243694   2.963   6.304   2.120 -0.2415  0.3899 -0.3194
 6500TIP3    H143695   3.046   6.270   2.088 -0.0370 -2.0595  2.3203
 6500TIP3    H243696   2.982   6.392   2.150  1.3866 -0.0528  0.0486
 6501TIP3   OH243697   5.814   1.937   1.695  0.1673  0.6292  0.0529
 6501TIP3    H143698   5.745   1.906   1.754 -0.1487  3.4687  1.3390
 6501TIP3    H243699   5.770   2.000   1.638  1.0152 -0.1934 -1.5658
 6502TIP3   OH243700   5.607   7.262   1.315  0.2529 -0.0741  0.0364
 6502TIP3    H143701   5.683   7.279   1.370 -0.2203  1.4209  0.2728
 6502TIP3    H243702   5.535   7.307   1.359 -0.9891 -2.1806  0.2879
 6503TIP3   OH243703   3.337   5.455   1.736 -0.5518 -0.3440 -0.2565
 6503TIP3    H143704   3.276   5.382   1.728 -2.1866  1.0616 -1.7053
 6503TIP3    H243705   3.306   5.504   1.812 -3.0128  1.7647 -2.4244
 6504TIP3   OH243706   1.540   1.040   2.013  0.2307  0.3781  0.2296
 6504TIP3    H143707   1.492   0.964   1.979 -0.0347  0.9366 -0.6891
 6504TIP3    H243708   1.496   1.060   2.096 -0.0037 -0.1674  0.2467
 6505TIP3   OH243709   7.542   7.651   2.071 -0.2598  0.0903 -0.3024
 6505TIP3    H143710   7.475   7.673   2.135  0.4759  1.5199  0.0252
 6505TIP3    H243711   7.576   7.736   2.042  1.2356 -0.5901 -0.6384
 6506TIP3   OH243712   4.049   5.597   1.220  0.1963  0.2863 -0.2209
 6506TIP3    H143713   4.075   5.582   1.311 -2.9210 -0.7954  0.5945
 6506TIP3    H243714   4.022   5.689   1.218  1.0923  0.5618 -0.3267
 6507TIP3   OH243715   5.297   7.055   1.039  0.3862  0.3970 -0.2309
 6507TIP3    H143716   5.382   7.098   1.043  0.6277 -0.0694 -0.2901
 6507TIP3    H243717   5.240   7.117   0.995  1.3932 -0.4184 -2.8728
 6508TIP3   OH243718   6.989   7.560   2.790  0.1092  0.0164 -0.0585
 6508TIP3    H143719   6.930   7.636   2.785 -1.6835 -1.1202  2.1227
 6508TIP3    H243720   7.076   7.598   2.803 -0.7030  1.7216  0.7445
 6509TIP3   OH243721   5.619   4.114   1.062  0.3754  0.3503  0.6096
 6509TIP3    H143722   5.572   4.190   1.097  1.2372  0.5974  1.2828
 6509TIP3    H243723   5.636   4.136   0.971 -0.2824  0.5200  0.5285
 6510TIP3   OH243724   5.206   6.792   1.021 -0.2286  0.4983  0.3955
 6510TIP3    H143725   5.257   6.871   1.041 -1.1870  1.0851  0.5819
 6510TIP3    H243726   5.268   6.720   1.033  0.9192  1.2711 -0.6680
 6511TIP3   OH243727   4.079   2.075   1.835  0.7466 -0.0599 -0.2022
 6511TIP3    H143728   4.143   2.004   1.832 -0.7237 -1.5134  1.0389
 6511TIP3    H243729   4.029   2.066   1.754  0.6194 -0.3762 -0.0863
 6512TIP3   OH243730   3.922   2.863   1.270 -0.0958 -0.3926  0.2737
 6512TIP3    H143731   3.841   2.839   1.317 -1.3534  3.0661  0.1316
 6512TIP3    H243732   3.897   2.864   1.178 -0.0126  1.0219  0.2531
 6513TIP3   OH243733   7.629   0.319   1.680 -0.1202  0.2574 -0.1386
 6513TIP3    H143734   7.617   0.226   1.661 -1.2035  0.3742 -0.0886
 6513TIP3    H243735   7.716   0.339   1.647 -0.1569 -0.6142 -0.8037
 6514TIP3   OH243736   4.651   3.259   2.392  0.0035  0.2932  0.2815
 6514TIP3    H143737   4.741   3.285   2.374 -0.1463  2.3267  2.0416
 6514TIP3    H243738   4.658   3.181   2.446  0.6293 -0.6835 -1.1716
 6515TIP3   OH243739   1.298   6.584   1.074  0.7618  0.4934 -0.3302
 6515TIP3    H143740   1.292   6.511   1.136  2.5652  1.7396  1.4877
 6515TIP3    H243741   1.385   6.620   1.089  0.3731  2.3014 -2.0106
 6516TIP3   OH243742   2.398   4.084   1.420  0.0546 -0.6942  0.2148
 6516TIP3    H143743   2.429   4.093   1.510 -1.6461 -0.2518  0.7910
 6516TIP3    H243744   2.312   4.043   1.428  0.0069 -0.9521 -1.2502
 6517TIP3   OH243745   6.516   2.013   2.419  0.2675  0.2113  0.1355
 6517TIP3    H143746   6.556   1.949   2.360  0.4698  0.9770 -0.5679
 6517TIP3    H243747   6.509   2.093   2.367  0.1113  0.7948  1.0346
 6518TIP3   OH243748   2.734   3.936   1.052  0.0625  0.2677 -1.3751
 6518TIP3    H143749   2.788   4.013   1.037  1.8482 -0.4467  0.7946
 6518TIP3    H243750   2.794   3.871   1.087 -1.9534 -1.0661 -0.1438
 6519TIP3   OH243751   7.291   6.283   1.396  0.2077  0.1414  0.2170
 6519TIP3    H143752   7.325   6.264   1.483 -0.3784 -0.0606  0.3984
 6519TIP3    H243753   7.361   6.254   1.337  0.3754 -0.2254  0.5926
 6520TIP3   OH243754   6.820   7.469   0.720 -0.1661 -0.3791 -0.7463
 6520TIP3    H143755   6.877   7.413   0.772  0.2085 -1.6488 -2.4332
 6520TIP3    H243756   6.732   7.435   0.734 -0.2185 -0.0145 -0.1238
 6521TIP3   OH243757   4.238   6.462   2.567 -0.5307  0.2572  0.1778
 6521TIP3    H143758   4.324   6.420   2.569 -0.3689  0.5811  1.4778
 6521TIP3    H243759   4.203   6.446   2.655 -0.4514  2.8285  0.7410
 6522TIP3   OH243760   2.978   2.319   0.660  0.0862 -0.6423 -0.1716
 6522TIP3    H143761   2.942   2.247   0.609 -1.6178 -1.6158  2.2544
 6522TIP3    H243762   3.073   2.309   0.653 -0.0931 -1.4245 -2.0893
 6523TIP3   OH243763   5.079   7.166   0.675 -0.2146 -0.0893  0.5693
 6523TIP3    H143764   5.051   7.088   0.722  0.6436 -0.5970  0.2736
 6523TIP3    H243765   5.169   7.146   0.648  0.2543  1.2605  1.0544
 6524TIP3   OH243766   7.419   1.479   2.328  0.1271  0.2869  0.3707
 6524TIP3    H143767   7.405   1.520   2.243 -0.2196 -2.6449 -1.0947
 6524TIP3    H243768   7.514   1.479   2.339  0.2746 -0.6370 -0.7545
 6525TIP3   OH243769   7.220   4.915   3.058 -0.6488  0.1180 -0.2226
 6525TIP3    H143770   7.181   4.947   2.977  0.8768  1.6065 -0.4249
 6525TIP3    H243771   7.224   4.991   3.116  2.1631  0.1849 -0.3373
 6526TIP3   OH243772   7.647   2.683   2.737  0.5528 -0.3007  0.0479
 6526TIP3    H143773   7.650   2.731   2.819  1.8985 -0.3514  0.0399
 6526TIP3    H243774   7.615   2.747   2.673  1.4876  0.3415  0.2112
 6527TIP3   OH243775   4.144   7.290   1.632 -0.0025  0.0105  0.1048
 6527TIP3    H143776   4.166   7.227   1.701  0.7627 -0.8750 -0.9249
 6527TIP3    H243777   4.139   7.238   1.552 -2.8100  0.6780 -0.2620
 6528TIP3   OH243778   3.414   2.499   3.026 -0.2293 -0.1256  0.5307
 6528TIP3    H143779   3.468   2.575   3.050 -0.1828  0.3939 -1.0910
 6528TIP3    H243780   3.342   2.536   2.976  0.3418 -1.2086 -1.1756
 6529TIP3   OH243781   2.499   2.125   2.045  0.4524  0.2036  0.0561
 6529TIP3    H143782   2.484   2.040   2.085  1.7991  0.0540  0.3246
 6529TIP3    H243783   2.429   2.136   1.981  0.4274 -1.2207 -0.1768
 6530TIP3   OH243784   2.240   4.848   1.327  0.1173 -0.1758  0.0357
 6530TIP3    H143785   2.292   4.779   1.370  1.0393  1.1870  1.1952
 6530TIP3    H243786   2.182   4.881   1.397  0.2957  0.8032 -0.2677
 6531TIP3   OH243787   6.532   0.669   1.743 -0.1380 -0.0723 -0.0634
 6531TIP3    H143788   6.616   0.631   1.769 -1.3582 -1.2479  2.4887
 6531TIP3    H243789   6.471   0.595   1.742 -1.3358  0.8723 -1.1418
 6532TIP3   OH243790   6.188   4.133   2.203  0.2424 -0.3024 -0.4429
 6532TIP3    H143791   6.103   4.116   2.163  0.4450 -0.5155 -0.7944
 6532TIP3    H243792   6.189   4.227   2.218 -1.2871 -0.6439  2.4282
 6533TIP3   OH243793   1.210   6.416   2.133 -0.5540 -0.3989  0.2969
 6533TIP3    H143794   1.287   6.464   2.165 -1.3676  1.6221 -0.5956
 6533TIP3    H243795   1.241   6.374   2.052 -0.0883 -0.5785  0.5617
 6534TIP3   OH243796   5.389   4.987   3.378  0.2344 -0.2698 -0.3541
 6534TIP3    H143797   5.411   5.018   3.290 -1.0886  0.7509 -0.3525
 6534TIP3    H243798   5.455   4.920   3.397  1.6141  0.7248 -1.4101
 6535TIP3   OH243799   4.573   0.066   3.056 -0.5240  0.2280  0.2084
 6535TIP3    H143800   4.522   0.129   3.107  0.9327  1.3481  0.3680
 6535TIP3    H243801   4.608   0.005   3.121 -0.2534  0.4980  0.3195
 6536TIP3   OH243802   2.480   3.651   0.704  0.1314 -0.5400 -0.5831
 6536TIP3    H143803   2.392   3.626   0.732  0.2451  0.5279  0.8197
 6536TIP3    H243804   2.523   3.568   0.684 -0.4866 -1.2542  0.9241
 6537TIP3   OH243805   7.035   4.637   2.221 -0.1314  0.0967 -0.1964
 6537TIP3    H143806   6.950   4.665   2.256  0.7030  0.4434  1.6722
 6537TIP3    H243807   7.013   4.590   2.140 -1.8712  2.5550 -1.2682
 6538TIP3   OH243808   4.106   7.137   0.822  0.3029 -0.4806 -0.2414
 6538TIP3    H143809   4.105   7.095   0.908 -0.9688 -0.7045 -0.3524
 6538TIP3    H243810   4.089   7.229   0.839 -0.0106 -0.5356 -0.2642
 6539TIP3   OH243811   0.488   2.799   2.951 -0.5784 -0.2069  0.3412
 6539TIP3    H143812   0.414   2.803   2.891 -0.2476 -0.6063 -0.0981
 6539TIP3    H243813   0.456   2.746   3.024 -1.0982  0.5731  0.6980
 6540TIP3   OH243814   0.910   7.407   2.574 -0.4369  0.1979  0.0129
 6540TIP3    H143815   1.003   7.416   2.591 -0.5866  0.2583  0.8189
 6540TIP3    H243816   0.877   7.496   2.567 -0.3524  0.1762 -0.7832
 6541TIP3   OH243817   4.782   4.264   3.366  0.0544 -0.0151 -0.1769
 6541TIP3    H143818   4.819   4.236   3.282 -0.8106 -0.4385 -0.4391
 6541TIP3    H243819   4.804   4.357   3.372  0.9879 -0.2121 -0.3949
 6542TIP3   OH243820   5.914   5.368   2.006  0.5154  0.3035  0.5958
 6542TIP3    H143821   5.986   5.345   1.947  0.0712  0.9346 -0.2041
 6542TIP3    H243822   5.836   5.368   1.951  0.1224  1.1121  1.1300
 6543TIP3   OH243823   5.096   0.280   1.457  0.5731  0.2017  0.2906
 6543TIP3    H143824   5.053   0.235   1.385  0.8671 -0.2063  0.3682
 6543TIP3    H243825   5.076   0.373   1.443  0.2921  0.0853 -0.0849
 6544TIP3   OH243826   0.425   7.574   1.576 -0.5506  0.0179  0.1761
 6544TIP3    H143827   0.409   7.488   1.614 -2.0188  0.0335 -0.3400
 6544TIP3    H243828   0.510   7.567   1.534 -0.2800 -0.9127  0.8625
 6545TIP3   OH243829   4.398   6.914   1.798 -0.0863  0.2275  0.0722
 6545TIP3    H143830   4.448   6.971   1.856 -1.2825  2.1816 -0.7128
 6545TIP3    H243831   4.398   6.829   1.842  2.1143  0.6769  1.0956
 6546TIP3   OH243832   6.475   1.801   1.315  0.6963  0.1489 -0.0550
 6546TIP3    H143833   6.478   1.715   1.357 -0.2672 -0.0279 -0.3360
 6546TIP3    H243834   6.542   1.796   1.246 -0.6806 -1.0887 -1.3642
 6547TIP3   OH243835   6.421   1.163   2.653  0.0455  0.4792  0.3445
 6547TIP3    H143836   6.414   1.216   2.574 -0.5575 -0.0133  0.0556
 6547TIP3    H243837   6.341   1.110   2.653  0.3656 -0.0134  0.9217
 6548TIP3   OH243838   2.182   6.997   3.027  0.2968 -0.6342  0.5870
 6548TIP3    H143839   2.135   6.958   2.953  1.0789  1.2848 -1.0075
 6548TIP3    H243840   2.193   6.925   3.089  0.3348 -2.5353 -1.5049
 6549TIP3   OH243841   4.675   6.467   2.365 -0.5511 -0.3815 -0.0484
 6549TIP3    H143842   4.715   6.386   2.398 -1.1395 -0.2256  1.0965
 6549TIP3    H243843   4.691   6.465   2.271  0.5323 -1.2164  0.1358
 6550TIP3   OH243844   0.292   7.351   3.102  0.9796 -0.2346 -0.2308
 6550TIP3    H143845   0.363   7.399   3.147  1.5976 -0.2728 -1.1401
 6550TIP3    H243846   0.338   7.293   3.041  0.3383 -2.9691  1.6945
 6551TIP3   OH243847   0.143   2.579   0.431  0.2768 -0.3377 -0.0558
 6551TIP3    H143848   0.198   2.533   0.368  0.5187  0.3811 -0.3750
 6551TIP3    H243849   0.198   2.588   0.509 -0.6265 -2.8899  1.0018
 6552TIP3   OH243850   1.146   6.004   2.696 -0.3567  0.2422  0.1190
 6552TIP3    H143851   1.174   5.916   2.673  0.6553  0.2893  1.0668
 6552TIP3    H243852   1.058   6.012   2.660 -0.1464 -0.8588 -0.6866
 6553TIP3   OH243853   2.353   3.014   1.933  0.1879 -0.0334  0.8312
 6553TIP3    H143854   2.411   2.939   1.920 -0.4541 -0.3339 -0.4134
 6553TIP3    H243855   2.266   2.982   1.910  0.0191  1.2863 -0.5491
 6554TIP3   OH243856   6.897   7.628   2.314 -0.0456 -0.3138  0.3618
 6554TIP3    H143857   6.803   7.643   2.306 -0.0621 -0.9327 -0.8706
 6554TIP3    H243858   6.936   7.715   2.306 -0.4812 -0.1361  0.1708
 6555TIP3   OH243859   5.138   5.662   1.908  0.0387  0.4578 -0.2974
 6555TIP3    H143860   5.074   5.592   1.900 -0.3498  0.8037 -0.2303
 6555TIP3    H243861   5.222   5.621   1.885  0.1578 -0.5622  1.7186
 6556TIP3   OH243862   4.355   5.479   0.725 -0.4261  0.2746  0.2297
 6556TIP3    H143863   4.442   5.447   0.747 -0.7634  0.0969  1.3517
 6556TIP3    H243864   4.348   5.466   0.630  0.5571 -0.2162  0.2148
 6557TIP3   OH243865   0.585   5.960   2.238 -0.2982 -0.3279  0.1114
 6557TIP3    H143866   0.565   6.043   2.280  0.3711 -0.7595  1.3400
 6557TIP3    H243867   0.672   5.937   2.272  1.1574  0.2026 -2.9510
 6558TIP3   OH243868   1.725   1.206   2.160  0.2848 -0.3135  1.2097
 6558TIP3    H143869   1.644   1.257   2.155  0.7635  0.3504 -1.6752
 6558TIP3    H243870   1.788   1.264   2.202  0.4059  0.9850 -0.6462
 6559TIP3   OH243871   5.205   1.866   1.947 -0.1492 -0.1869  0.4252
 6559TIP3    H143872   5.276   1.835   2.003  1.5438 -0.8184 -1.8807
 6559TIP3    H243873   5.134   1.802   1.961  1.0234 -1.5823  0.2994
 6560TIP3   OH243874   4.165   7.589   1.302 -0.0752 -0.3265  0.5779
 6560TIP3    H143875   4.104   7.515   1.305 -0.8436  0.2731  0.1648
 6560TIP3    H243876   4.127   7.652   1.364 -0.3443  0.3921 -0.3054
 6561TIP3   OH243877   1.453   0.203   0.593 -0.1943 -0.3831 -0.5507
 6561TIP3    H143878   1.495   0.285   0.567 -1.2988  0.2413 -0.4445
 6561TIP3    H243879   1.525   0.144   0.616  0.5887  0.8288  0.1832
 6562TIP3   OH243880   5.928   0.205   1.798  0.3554  0.3306  0.1436
 6562TIP3    H143881   5.869   0.134   1.823  0.2104  0.2081 -0.5268
 6562TIP3    H243882   5.963   0.238   1.881 -0.0311 -0.1314  0.4936
 6563TIP3   OH243883   5.284   3.744   1.590 -0.1299 -0.4775  0.2173
 6563TIP3    H143884   5.282   3.839   1.580  1.1089 -0.0779  2.8135
 6563TIP3    H243885   5.198   3.715   1.560 -1.2522  1.7054  1.1057
 6564TIP3   OH243886   3.659   2.002   3.039 -0.0557  0.0444 -0.0739
 6564TIP3    H143887   3.634   1.910   3.047 -1.3259  0.4543  1.1553
 6564TIP3    H243888   3.580   2.047   3.010  0.3900  0.8219 -0.1261
 6565TIP3   OH243889   4.149   0.524   1.795  0.2718  0.1329 -0.7630
 6565TIP3    H143890   4.101   0.452   1.754 -1.1559  0.1195  0.8401
 6565TIP3    H243891   4.096   0.602   1.779 -0.2445  0.1507  0.8672
 6566TIP3   OH243892   4.560   2.370   1.492 -0.6730 -0.0761  0.3817
 6566TIP3    H143893   4.547   2.459   1.461 -2.0739 -0.7051 -0.9537
 6566TIP3    H243894   4.641   2.341   1.450 -0.7097  0.2488  0.0889
 6567TIP3   OH243895   4.386   5.893   0.856 -0.2267  0.1768  0.1093
 6567TIP3    H143896   4.454   5.960   0.847  1.3636 -1.3398  0.2643
 6567TIP3    H243897   4.330   5.905   0.779  1.7398 -0.1555 -1.4491
 6568TIP3   OH243898   3.089   2.469   0.994 -0.2781  0.4709 -1.1865
 6568TIP3    H143899   3.089   2.468   0.899 -0.1588  0.4368 -1.1862
 6568TIP3    H243900   3.150   2.401   1.019 -0.1434  0.6278 -1.0873
 6569TIP3   OH243901   6.731   2.756   1.161  0.0559  0.6803 -0.4742
 6569TIP3    H143902   6.784   2.835   1.149  0.4617  0.8583  2.0117
 6569TIP3    H243903   6.794   2.686   1.178 -0.3808  0.5740  0.8767
 6570TIP3   OH243904   4.889   3.818   1.617  0.3458  0.5191  0.5716
 6570TIP3    H143905   4.906   3.728   1.592  0.1784 -0.0995  2.5410
 6570TIP3    H243906   4.938   3.830   1.698 -1.7544  1.3300  1.8049
 6571TIP3   OH243907   6.525   2.255   2.277 -0.3042 -0.2090 -0.3973
 6571TIP3    H143908   6.608   2.280   2.236 -0.3595  0.5508 -0.0555
 6571TIP3    H243909   6.474   2.336   2.279 -0.5787 -0.3995  0.5245
 6572TIP3   OH243910   7.665   0.794   0.523 -0.1632  0.5355  0.0893
 6572TIP3    H143911   7.688   0.867   0.581 -0.0215  0.7901 -0.2866
 6572TIP3    H243912   7.651   0.835   0.437  1.5356 -0.0836 -0.5133
 6573TIP3   OH243913   0.143   3.433   2.291 -0.2803 -0.3614  0.5452
 6573TIP3    H143914   0.054   3.397   2.292 -0.4549  0.0476  0.0278
 6573TIP3    H243915   0.186   3.388   2.219 -0.0966 -0.4888  0.7348
 6574TIP3   OH243916   7.085   2.536   0.770  0.5400  0.5475 -0.0580
 6574TIP3    H143917   7.029   2.536   0.847  0.8280  1.0109  0.1528
 6574TIP3    H243918   7.035   2.488   0.704 -0.0240  0.8038  0.1806
 6575TIP3   OH243919   1.217   0.038   1.661  0.1359 -0.0353 -0.0019
 6575TIP3    H143920   1.212   0.115   1.604  1.1914 -0.7654 -1.1413
 6575TIP3    H243921   1.129   0.029   1.698 -0.1546  1.3705 -0.2877
 6576TIP3   OH243922   6.540   3.378   0.887  0.0177  0.2031  0.2516
 6576TIP3    H143923   6.458   3.394   0.933 -0.3425 -0.2199 -0.2344
 6576TIP3    H243924   6.557   3.285   0.898 -0.0570  0.1022 -0.4349
 6577TIP3   OH243925   6.643   3.330   2.136  0.1563  0.4605 -0.2486
 6577TIP3    H143926   6.608   3.340   2.225 -0.5439 -0.8226 -0.3656
 6577TIP3    H243927   6.679   3.242   2.134 -2.0467 -0.4861 -1.9479
 6578TIP3   OH243928   2.029   4.919   2.168  0.2748 -0.6203 -0.6887
 6578TIP3    H143929   1.989   4.984   2.227  0.1224 -1.1082 -0.2418
 6578TIP3    H243930   2.106   4.889   2.215  0.0437 -1.1587 -0.6497
 6579TIP3   OH243931   2.125   3.449   1.321 -0.1737 -0.6869 -0.0818
 6579TIP3    H143932   2.032   3.434   1.300 -0.2842 -2.8210  1.6005
 6579TIP3    H243933   2.123   3.499   1.403  0.1646 -0.5445 -0.1608
 6580TIP3   OH243934   7.100   1.555   1.976 -0.6602  0.7523  0.0334
 6580TIP3    H143935   7.079   1.594   1.891  0.9373  1.4358 -0.0724
 6580TIP3    H243936   7.056   1.470   1.974  0.5290  0.1194 -2.0782
 6581TIP3   OH243937   5.685   4.311   2.530 -0.4687  0.3638 -0.3352
 6581TIP3    H143938   5.758   4.372   2.524 -0.0941 -0.1131 -0.8165
 6581TIP3    H243939   5.677   4.290   2.623  1.4465 -1.2555 -0.4785
 6582TIP3   OH243940   5.286   6.492   0.556  0.3851 -0.0945  0.0315
 6582TIP3    H143941   5.248   6.421   0.607  0.3140 -0.3775 -0.4141
 6582TIP3    H243942   5.371   6.458   0.529  0.8635  0.4409  0.8138
 6583TIP3   OH243943   5.554   0.889   2.159  0.3038  0.8560  0.0720
 6583TIP3    H143944   5.632   0.889   2.102  0.9001 -2.2567  0.6988
 6583TIP3    H243945   5.484   0.855   2.103  0.4617 -0.4326  0.6135
 6584TIP3   OH243946   5.930   0.874   1.402 -0.3351 -0.7273  0.2458
 6584TIP3    H143947   5.931   0.905   1.311  0.3512 -0.4307  0.3427
 6584TIP3    H243948   5.839   0.850   1.419 -0.5724 -0.2681 -0.3472
 6585TIP3   OH243949   5.375   5.616   2.408  0.2012  0.0119 -0.3056
 6585TIP3    H143950   5.346   5.600   2.497  1.6817 -0.2545  0.1595
 6585TIP3    H243951   5.313   5.680   2.373 -0.9742 -0.6302  0.5658
 6586TIP3   OH243952   4.736   2.626   0.592 -0.0482  0.5768 -0.2233
 6586TIP3    H143953   4.706   2.715   0.574  3.3759  1.6604 -1.3592
 6586TIP3    H243954   4.767   2.629   0.682 -0.2033  0.4308 -0.1644
 6587TIP3   OH243955   3.348   6.738   2.374  0.1877  0.7125  0.1142
 6587TIP3    H143956   3.395   6.805   2.425 -0.7681  0.2437  1.6458
 6587TIP3    H243957   3.277   6.709   2.431  0.1296 -1.0953 -0.8094
 6588TIP3   OH243958   0.543   2.933   1.890 -0.7924  0.2063  0.3043
 6588TIP3    H143959   0.594   2.926   1.809 -1.6169 -0.7881 -0.1444
 6588TIP3    H243960   0.527   3.027   1.900  1.5352  0.6263  0.7289
 6589TIP3   OH243961   4.363   0.693   1.943 -0.3088 -0.2698 -0.6364
 6589TIP3    H143962   4.325   0.745   2.014 -1.4890 -1.2056 -0.5511
 6589TIP3    H243963   4.457   0.694   1.960 -0.3920  1.0091 -0.0892
 6590TIP3   OH243964   6.838   0.400   2.821 -0.2420 -1.0039 -0.4360
 6590TIP3    H143965   6.780   0.471   2.794 -0.1559 -1.6261 -2.4247
 6590TIP3    H243966   6.900   0.391   2.748  1.3844 -1.3967  0.9371
 6591TIP3   OH243967   6.305   4.641   3.025 -0.0890 -0.0890  0.1125
 6591TIP3    H143968   6.211   4.659   3.021 -0.3478 -1.4694 -0.3028
 6591TIP3    H243969   6.323   4.626   3.118 -0.0752  1.1418  0.3234
 6592TIP3   OH243970   0.679   3.610   3.053 -0.1435 -0.5621  0.2942
 6592TIP3    H143971   0.606   3.669   3.074 -1.0731 -0.6336 -2.3947
 6592TIP3    H243972   0.733   3.660   2.992  0.5094 -1.5490  0.0519
 6593TIP3   OH243973   1.852   2.501   2.788  0.1373 -0.0072 -0.1399
 6593TIP3    H143974   1.878   2.588   2.757 -1.6393  0.1798 -1.2518
 6593TIP3    H243975   1.862   2.444   2.712 -2.2518  0.0275 -0.5628
 6594TIP3   OH243976   4.940   4.254   1.878 -0.0609 -0.3395 -0.1447
 6594TIP3    H143977   4.890   4.314   1.933  1.9641  1.3727 -0.0188
 6594TIP3    H243978   4.900   4.263   1.791 -2.3122 -1.9344  0.6235
 6595TIP3   OH243979   6.616   0.265   1.877  0.8309 -0.1584  0.0557
 6595TIP3    H143980   6.665   0.319   1.938  2.6553 -1.7909  0.1399
 6595TIP3    H243981   6.647   0.292   1.790  0.3411  0.2226 -0.0013
 6596TIP3   OH243982   1.074   7.169   2.066  0.7742  0.1197  0.0604
 6596TIP3    H143983   1.041   7.258   2.076  1.0014  0.5342 -2.3599
 6596TIP3    H243984   1.128   7.172   1.987 -0.6146 -2.5326 -1.1279
 6597TIP3   OH243985   7.355   0.281   1.459 -0.7931  0.3401  0.3801
 6597TIP3    H143986   7.450   0.286   1.449 -0.6365  1.4081  1.9361
 6597TIP3    H243987   7.326   0.221   1.391  0.7134  1.9291 -1.7847
 6598TIP3   OH243988   2.119   5.709   2.129  0.0319 -0.3102  0.0208
 6598TIP3    H143989   2.075   5.649   2.189  0.8828 -1.2078 -0.2195
 6598TIP3    H243990   2.092   5.680   2.042 -1.1816  0.9739 -0.0563
 6599TIP3   OH243991   0.848   0.476   2.948 -0.2299 -0.2869  0.2824
 6599TIP3    H143992   0.837   0.510   2.859 -0.1754  1.6608  0.9716
 6599TIP3    H243993   0.760   0.449   2.974 -0.3874 -0.1164 -0.0702
 6600TIP3   OH243994   4.125   3.314   0.693 -0.6033  0.0269  0.1583
 6600TIP3    H143995   4.175   3.345   0.769  1.5723  0.7728 -1.4746
 6600TIP3    H243996   4.161   3.227   0.675 -0.9593 -0.0601 -0.1572
 6601TIP3   OH243997   5.749   3.522   1.157  0.0770  0.6862 -0.4937
 6601TIP3    H143998   5.734   3.578   1.081  1.2601  1.5689 -0.0841
 6601TIP3    H243999   5.829   3.475   1.137 -0.0553  0.3027 -0.1398
 6602TIP3   OH244000   3.041   2.940   1.039 -0.5463  0.2987 -0.7167
 6602TIP3    H144001   3.035   3.016   0.981 -1.0322  1.1407  0.3950
 6602TIP3    H244002   3.134   2.916   1.038 -0.5430  0.2734 -1.8299
 6603TIP3   OH244003   6.884   3.125   3.056  0.1739 -0.1126  0.2381
 6603TIP3    H144004   6.953   3.174   3.011  1.0813 -1.2449  0.3621
 6603TIP3    H244005   6.918   3.109   3.144 -0.1223 -0.9092  0.2165
 6604TIP3   OH244006   3.694   6.217   2.825  0.2120 -0.1048 -0.7661
 6604TIP3    H144007   3.756   6.287   2.845 -0.4919  1.4729 -3.6583
 6604TIP3    H244008   3.608   6.255   2.842 -0.1202 -1.1664  0.0491
 6605TIP3   OH244009   2.923   3.797   2.481 -0.4547 -0.3485  0.3787
 6605TIP3    H144010   2.939   3.887   2.509 -0.9561  0.3291 -1.3719
 6605TIP3    H244011   2.858   3.805   2.411 -0.1587 -2.0249 -0.1349
 6606TIP3   OH244012   4.736   0.798   2.971  0.4146  0.0248  0.2148
 6606TIP3    H144013   4.692   0.883   2.971  0.0784 -0.1487 -0.3177
 6606TIP3    H244014   4.712   0.757   2.888  0.8804 -0.4372  0.2958
 6607TIP3   OH244015   1.378   4.809   1.608 -0.4219 -0.5109  0.2308
 6607TIP3    H144016   1.297   4.857   1.621 -0.1804 -0.3281  1.1397
 6607TIP3    H244017   1.393   4.765   1.692  0.2955 -0.7156 -0.0001
 6608TIP3   OH244018   3.383   6.262   2.197 -0.0527 -0.2321  0.0790
 6608TIP3    H144019   3.408   6.355   2.197  0.8857 -0.4338  1.9413
 6608TIP3    H244020   3.466   6.215   2.208 -0.5403 -1.2901 -0.6545
 6609TIP3   OH244021   6.307   0.044   2.945 -0.6551  0.5052  0.3889
 6609TIP3    H144022   6.325   0.026   3.038 -0.9973 -0.9849  0.1862
 6609TIP3    H244023   6.378   0.101   2.918 -1.0954  1.7940  1.8158
 6610TIP3   OH244024   6.266   1.257   9.276 -0.4559 -0.0955 -0.1933
 6610TIP3    H144025   6.286   1.165   9.294  0.2042 -0.0818 -0.8191
 6610TIP3    H244026   6.183   1.272   9.321 -1.5943 -1.5253 -1.6582
 6611TIP3   OH244027   7.046   3.512   1.258  0.0888 -0.2053  0.0765
 6611TIP3    H144028   7.069   3.601   1.229 -1.6422  0.3612  0.3283
 6611TIP3    H244029   7.130   3.467   1.264  0.9935  1.3330 -0.3089
 6612TIP3   OH244030   0.104   0.961   0.691 -0.2774  0.2503  0.0073
 6612TIP3    H144031   0.120   0.945   0.785  1.1943 -1.7696 -0.5141
 6612TIP3    H244032   0.141   1.048   0.675 -0.3095  0.5122  1.2405
 6613TIP3   OH244033   6.548   3.365   2.407  0.5384  0.0787  0.0193
 6613TIP3    H144034   6.573   3.450   2.444  0.2452 -0.2479  0.9964
 6613TIP3    H244035   6.512   3.317   2.481  2.0556 -1.4537 -0.1879
 6614TIP3   OH244036   1.014   3.094   2.949 -0.1284  0.5668 -0.3053
 6614TIP3    H144037   0.990   3.092   3.042 -0.6007 -1.0868 -0.4205
 6614TIP3    H244038   0.929   3.093   2.903  0.1087  0.7110 -0.7514
 6615TIP3   OH244039   2.880   0.816   2.116  0.2019 -0.2141 -0.3194
 6615TIP3    H144040   2.947   0.778   2.058  1.0090 -1.4049  1.3045
 6615TIP3    H244041   2.804   0.760   2.105  0.4970 -0.6983  0.0763
 6616TIP3   OH244042   7.290   1.046   1.982  0.4002 -0.2002 -0.1823
 6616TIP3    H144043   7.243   1.072   2.061  0.8531  0.8385 -0.2418
 6616TIP3    H244044   7.359   1.112   1.972 -0.5009  0.5184 -2.1966
 6617TIP3   OH244045   2.964   2.636   2.718 -0.5213 -0.2137 -0.2537
 6617TIP3    H144046   3.002   2.628   2.631 -1.3325 -0.9507 -0.5503
 6617TIP3    H244047   2.898   2.567   2.722 -0.4375 -0.2423  0.9782
 6618TIP3   OH244048   6.853   5.920   2.090 -0.3672  0.4166 -0.4477
 6618TIP3    H144049   6.769   5.887   2.056 -1.3800  0.6273  1.6860
 6618TIP3    H244050   6.919   5.875   2.037 -1.8074 -0.2342 -1.7899
 6619TIP3   OH244051   5.441   3.717   2.272  0.3921 -0.6336  0.6820
 6619TIP3    H144052   5.445   3.631   2.313  3.7634 -0.3814  1.1319
 6619TIP3    H244053   5.468   3.702   2.182  0.4563 -0.1208  0.6131
 6620TIP3   OH244054   2.663   0.744   2.842 -0.1527 -0.0995  0.6216
 6620TIP3    H144055   2.710   0.827   2.852 -0.0417 -0.1703  0.6987
 6620TIP3    H244056   2.581   0.757   2.890 -0.6969  0.3979 -0.4151
 6621TIP3   OH244057   1.080   4.680   1.431  0.7775 -0.4347  0.5220
 6621TIP3    H144058   1.147   4.665   1.497  1.2604  0.2095  0.1866
 6621TIP3    H244059   1.028   4.752   1.467  1.8186  0.7939 -0.3592
 6622TIP3   OH244060   0.699   6.757   1.700  0.4936  0.6658 -0.1017
 6622TIP3    H144061   0.714   6.845   1.735  0.8033  0.5448  0.0795
 6622TIP3    H244062   0.780   6.735   1.654  0.3366  0.5613 -0.3271
 6623TIP3   OH244063   2.909   4.020   0.705  0.0465 -0.1268 -0.1647
 6623TIP3    H144064   2.826   3.972   0.712 -0.3935  0.6174 -0.1385
 6623TIP3    H244065   2.885   4.104   0.667  0.8627 -0.0644 -0.5554
 6624TIP3   OH244066   1.734   6.318   2.228  0.5359  0.0136  0.2832
 6624TIP3    H144067   1.659   6.373   2.208  0.0747 -1.2540 -1.7599
 6624TIP3    H244068   1.810   6.369   2.201  0.2946  0.5540  0.6077
 6625TIP3   OH244069   4.852   0.331   1.640 -0.7071 -0.1347 -0.1245
 6625TIP3    H144070   4.932   0.289   1.609  0.2193  1.0827  0.5681
 6625TIP3    H244071   4.838   0.294   1.727  0.4514  1.3686  0.7437
 6626TIP3   OH244072   1.238   2.910   0.536  0.6028 -0.2034  0.0993
 6626TIP3    H144073   1.253   2.987   0.482  0.3891 -0.5182 -0.4191
 6626TIP3    H244074   1.308   2.912   0.602 -0.3859  1.3472  1.1570
 6627TIP3   OH244075   2.554   4.642   1.246  0.1964 -0.3111 -0.1811
 6627TIP3    H144076   2.615   4.643   1.320 -0.4613  0.8749  0.3565
 6627TIP3    H244077   2.485   4.581   1.272  0.1717 -0.1992  0.0141
 6628TIP3   OH244078   1.690   5.195   2.877 -0.3067  0.1157 -0.3319
 6628TIP3    H144079   1.779   5.206   2.841 -0.5227 -0.9266 -1.2572
 6628TIP3    H244080   1.641   5.270   2.844  0.2218  0.6996  0.1833
 6629TIP3   OH244081   1.973   1.275   1.070 -0.5164  0.3437  0.4192
 6629TIP3    H144082   1.963   1.369   1.056 -1.8632 -0.0493 -1.6622
 6629TIP3    H244083   1.885   1.240   1.056  0.2933 -1.3964 -0.5416
 6630TIP3   OH244084   3.986   0.624   2.418 -0.2178 -0.3668  0.2654
 6630TIP3    H144085   4.036   0.671   2.352  0.0898 -0.4442  0.4420
 6630TIP3    H244086   3.904   0.674   2.426 -0.1059 -0.1534  0.0854
 6631TIP3   OH244087   6.316   7.297   2.238  0.4656  0.1208 -0.3529
 6631TIP3    H144088   6.350   7.261   2.320  0.3478  1.4189  0.2956
 6631TIP3    H244089   6.234   7.340   2.263 -0.5338 -1.0337 -1.5013
 6632TIP3   OH244090   0.354   3.944   1.090  0.7932 -0.0783 -0.0025
 6632TIP3    H144091   0.416   3.983   1.030 -0.0041  0.3804 -0.5493
 6632TIP3    H244092   0.302   4.018   1.123 -0.9428 -0.6571 -1.2825
 6633TIP3   OH244093   3.255   0.704   2.316 -0.6251 -0.3677  0.2770
 6633TIP3    H144094   3.168   0.733   2.340 -0.6276 -0.0182 -0.1391
 6633TIP3    H244095   3.266   0.621   2.362 -0.9701 -0.1589  0.7456
 6634TIP3   OH244096   3.245   2.317   0.643  0.2569 -0.2553 -0.5095
 6634TIP3    H144097   3.310   2.303   0.574  0.8670 -1.2601  0.2281
 6634TIP3    H244098   3.297   2.330   0.722 -0.4260 -0.5280 -0.0031
 6635TIP3   OH244099   7.315   2.843   2.167 -0.2097  0.0833  0.0285
 6635TIP3    H144100   7.291   2.914   2.226  0.2454  0.7581 -0.5735
 6635TIP3    H244101   7.399   2.811   2.201  0.4430  0.9877 -0.6704
 6636TIP3   OH244102   3.472   3.698   1.245  0.1432 -0.0529 -0.8367
 6636TIP3    H144103   3.478   3.639   1.170  0.7103  0.4279 -1.1744
 6636TIP3    H244104   3.524   3.655   1.313  1.6793  0.6933 -1.5099
 6637TIP3   OH244105   4.006   0.081   2.492 -0.3257  0.0288 -0.6062
 6637TIP3    H144106   3.974   0.064   2.580  2.5268 -1.4538  0.2558
 6637TIP3    H244107   4.021   0.176   2.489  2.2006 -0.1700  1.6149
 6638TIP3   OH244108   3.880   6.506   2.215 -0.3161 -0.1729  0.1928
 6638TIP3    H144109   3.813   6.561   2.255  0.7253  1.4076 -0.1378
 6638TIP3    H244110   3.874   6.526   2.121  0.1654 -0.5308  0.0822
 6639TIP3   OH244111   0.099   6.309   2.261  0.3408 -0.2022  0.1694
 6639TIP3    H144112   0.138   6.330   2.176 -0.3183 -0.0488 -0.1020
 6639TIP3    H244113   0.066   6.392   2.294 -1.2203 -0.5590 -0.3725
 6640TIP3   OH244114   1.942   2.341   0.697  0.2693  0.1592 -0.1575
 6640TIP3    H144115   1.873   2.353   0.762  1.3117  0.5500  0.9088
 6640TIP3    H244116   1.994   2.421   0.702  0.6995 -0.0488 -1.0746
 6641TIP3   OH244117   1.476   5.620   0.646  0.0590 -0.4685  0.1225
 6641TIP3    H144118   1.564   5.608   0.611 -0.1290  1.5051 -1.1920
 6641TIP3    H244119   1.489   5.656   0.734  0.5366 -1.4882  0.4834
 6642TIP3   OH244120   5.038   3.829   1.891 -0.3790 -0.7135 -0.5022
 6642TIP3    H144121   5.098   3.755   1.900  1.2822  0.5980 -0.2999
 6642TIP3    H244122   4.995   3.835   1.976  0.5249 -0.5878 -0.0422
 6643TIP3   OH244123   4.334   2.709   2.942 -0.1175  0.0382  0.4954
 6643TIP3    H144124   4.279   2.786   2.957 -0.3950 -0.0536 -0.0238
 6643TIP3    H244125   4.377   2.693   3.026 -1.0232 -0.0019  0.9623
 6644TIP3   OH244126   7.345   7.042   0.560  0.2707  0.3322 -0.4244
 6644TIP3    H144127   7.409   7.073   0.496  0.5543  1.7580  0.5047
 6644TIP3    H244128   7.398   7.002   0.629  0.1386  1.1855  0.1734
 6645TIP3   OH244129   3.451   4.677   3.061  0.3087  0.2692 -0.3822
 6645TIP3    H144130   3.494   4.740   3.003  1.0293  0.1570  0.0266
 6645TIP3    H244131   3.486   4.696   3.148 -0.6881  0.3683  0.0113
 6646TIP3   OH244132   4.962   0.779   0.906  0.5750 -0.3765 -0.1247
 6646TIP3    H144133   4.905   0.840   0.953 -0.4659 -1.6605  0.3439
 6646TIP3    H244134   4.912   0.756   0.827  0.8951 -0.7159 -0.2296
 6647TIP3   OH244135   0.951   4.337   0.962 -0.5541 -0.5864  0.1136
 6647TIP3    H144136   0.881   4.392   0.927 -1.0235 -0.7661  0.7434
 6647TIP3    H244137   0.905   4.264   1.004 -0.0296 -0.3390  1.1708
 6648TIP3   OH244138   5.470   4.774   2.114 -0.3325 -0.1435 -0.1269
 6648TIP3    H144139   5.421   4.800   2.192 -2.2764 -2.5118 -0.4441
 6648TIP3    H244140   5.411   4.714   2.068  1.8431 -0.9846 -1.9808
 6649TIP3   OH244141   5.417   1.906   1.297 -0.0335  0.4558 -0.2808
 6649TIP3    H144142   5.463   1.832   1.335 -0.7821  0.9700  1.7542
 6649TIP3    H244143   5.472   1.934   1.224  0.6205 -1.6155 -0.6291
 6650TIP3   OH244144   5.319   5.234   0.856  0.1292  0.1811  0.5557
 6650TIP3    H144145   5.256   5.276   0.914 -1.6316  0.3751 -1.3652
 6650TIP3    H244146   5.302   5.272   0.770 -0.9553 -3.6377 -1.1344
 6651TIP3   OH244147   7.644   4.659   0.625  0.9237  0.2794  0.1670
 6651TIP3    H144148   7.593   4.738   0.637 -0.2326 -0.5334  0.7862
 6651TIP3    H244149   7.596   4.608   0.560  0.3973 -0.8982  1.4233
 6652TIP3   OH244150   2.735   0.121   2.161 -0.1988 -0.5142 -0.0940
 6652TIP3    H144151   2.691   0.132   2.245 -1.9671 -0.2221 -0.9916
 6652TIP3    H244152   2.811   0.066   2.180  0.7667  1.4171  2.0577
 6653TIP3   OH244153   5.946   4.437   2.502 -0.2110 -0.4275 -0.4743
 6653TIP3    H144154   5.934   4.410   2.411  0.2270 -2.2614 -0.0136
 6653TIP3    H244155   5.968   4.530   2.496  3.3790 -1.2317 -2.5334
 6654TIP3   OH244156   5.086   1.364   1.692  0.2850  0.1606  0.6751
 6654TIP3    H144157   5.108   1.303   1.622  0.6034  0.3188  0.6361
 6654TIP3    H244158   5.119   1.449   1.663 -0.6922  0.4822  0.4574
 6655TIP3   OH244159   2.125   2.043   1.579 -0.1635 -0.0944 -0.7099
 6655TIP3    H144160   2.035   2.052   1.547  0.1247  1.8061 -1.1007
 6655TIP3    H244161   2.179   2.079   1.509  0.9584 -1.6013 -0.6518
 6656TIP3   OH244162   0.436   4.333   0.866  0.6023  0.2401  0.0452
 6656TIP3    H144163   0.505   4.380   0.914  2.4863 -0.1483 -2.1354
 6656TIP3    H244164   0.387   4.402   0.821  1.8422  0.3325 -1.2176
 6657TIP3   OH244165   3.230   5.515   0.685 -0.3387  0.0441  0.1024
 6657TIP3    H144166   3.265   5.568   0.757  0.7095 -1.9138  1.0865
 6657TIP3    H244167   3.168   5.455   0.727 -0.5332 -0.4049 -0.7995
 6658TIP3   OH244168   6.245   6.759   2.118  0.5614  0.2664 -0.7521
 6658TIP3    H144169   6.227   6.845   2.156 -1.1323 -0.3817 -0.0095
 6658TIP3    H244170   6.195   6.757   2.037 -0.4412 -0.4783 -0.1287
 6659TIP3   OH244171   2.102   7.029   1.260  0.3803 -0.9745 -0.3869
 6659TIP3    H144172   2.023   7.026   1.206 -0.6017  0.0624  0.9570
 6659TIP3    H244173   2.089   6.961   1.326 -0.1529  0.2518  0.8138
 6660TIP3   OH244174   2.607   6.837   0.682  0.2855 -0.7872 -0.1663
 6660TIP3    H144175   2.679   6.873   0.734  1.4169 -1.8517 -0.9312
 6660TIP3    H244176   2.554   6.913   0.659  1.5449  0.1398 -0.1467
 6661TIP3   OH244177   3.590   3.852   0.529 -0.7016 -0.2498  0.1728
 6661TIP3    H144178   3.575   3.945   0.515 -0.8783 -0.0565  1.5678
 6661TIP3    H244179   3.649   3.848   0.604  0.1244 -1.2432 -0.4952
 6662TIP3   OH244180   2.514   0.606   0.907 -0.1008  0.0879 -0.2302
 6662TIP3    H144181   2.444   0.662   0.873  0.1182  0.1296 -0.6173
 6662TIP3    H244182   2.510   0.528   0.853  1.5862  0.9961 -1.7605
 6663TIP3   OH244183   3.749   2.783   1.680 -0.6358  0.1736 -0.1111
 6663TIP3    H144184   3.677   2.781   1.616  0.8405  1.6278 -1.9276
 6663TIP3    H244185   3.769   2.691   1.695 -1.2622 -0.2291 -1.5041
 6664TIP3   OH244186   1.142   4.955   1.694 -0.4193  0.4836  0.2316
 6664TIP3    H144187   1.097   4.941   1.611 -0.8299 -1.6107  0.7661
 6664TIP3    H244188   1.075   4.946   1.761  0.2274  0.4439  0.8963
 6665TIP3   OH244189   6.740   0.771   0.593  0.7153 -0.2158 -0.1288
 6665TIP3    H144190   6.745   0.854   0.640 -0.4216 -0.5836  0.6804
 6665TIP3    H244191   6.686   0.790   0.516 -0.1585 -0.3629  0.4388
 6666TIP3   OH244192   4.734   5.421   3.131  0.3464  0.3840 -0.5741
 6666TIP3    H144193   4.760   5.512   3.149  0.8889  0.4004 -1.3351
 6666TIP3    H244194   4.781   5.400   3.050 -0.2389 -0.3831 -0.7175
 6667TIP3   OH244195   0.086   0.577   2.902 -0.2913 -0.0849 -0.6161
 6667TIP3    H144196   0.102   0.621   2.986  0.5854 -0.6158 -0.4973
 6667TIP3    H244197   0.170   0.539   2.878 -1.0050 -1.6836 -0.7216
 6668TIP3   OH244198   2.636   5.876   3.075  0.4840  0.0706  0.0222
 6668TIP3    H144199   2.615   5.967   3.095  4.4105  0.7876  1.8305
 6668TIP3    H244200   2.662   5.877   2.983  0.1696  0.6746 -0.0661
 6669TIP3   OH244201   3.909   5.027   2.028 -0.1926  0.1712  0.3538
 6669TIP3    H144202   3.997   5.009   1.996  0.8797  2.6527  1.6622
 6669TIP3    H244203   3.852   5.008   1.953  1.4301 -1.2977 -0.5734
 6670TIP3   OH244204   7.606   3.636   2.458  0.0814  0.2858  0.0568
 6670TIP3    H144205   7.522   3.623   2.501  0.5623  0.7266  1.1840
 6670TIP3    H244206   7.586   3.639   2.364 -1.0531 -0.2957  0.2671
 6671TIP3   OH244207   1.607   4.646   1.186 -0.1390  0.3723 -0.0131
 6671TIP3    H144208   1.560   4.717   1.229 -0.1170 -0.1571  0.9294
 6671TIP3    H244209   1.669   4.689   1.128 -1.7106  1.0823 -1.2161
 6672TIP3   OH244210   5.963   3.366   0.700 -0.2792  0.0599 -0.4522
 6672TIP3    H144211   5.892   3.316   0.739  0.3855  0.5922  1.5178
 6672TIP3    H244212   5.936   3.379   0.609 -1.4889 -1.9410 -0.4288
 6673TIP3   OH244213   4.187   6.239   1.409 -0.4027 -0.4779 -0.0491
 6673TIP3    H144214   4.227   6.177   1.469 -0.4493  2.0504  2.8395
 6673TIP3    H244215   4.260   6.292   1.377 -0.7164  0.0918  0.1677
 6674TIP3   OH244216   3.799   3.295   2.465 -0.0581 -0.5051 -0.1005
 6674TIP3    H144217   3.715   3.315   2.422 -0.6608 -3.0766 -0.2521
 6674TIP3    H244218   3.793   3.339   2.550 -1.1165  0.2027 -0.5210
 6675TIP3   OH244219   7.472   7.023   2.205 -0.2594 -0.2149  0.3862
 6675TIP3    H144220   7.503   7.105   2.166  1.2499 -1.5011 -1.3726
 6675TIP3    H244221   7.381   7.015   2.176 -0.7026  1.1989  1.2980
 6676TIP3   OH244222   1.056   2.981   1.759 -0.3808 -0.0573  0.2041
 6676TIP3    H144223   1.102   2.897   1.765 -3.7984 -2.3327 -1.8051
 6676TIP3    H244224   1.091   3.022   1.680 -0.0082 -0.4770  0.1472
 6677TIP3   OH244225   5.864   1.304   2.700 -0.3513  0.6217  0.0890
 6677TIP3    H144226   5.894   1.261   2.780 -0.3378 -1.5040 -0.9954
 6677TIP3    H244227   5.769   1.308   2.710 -0.3288  0.6292  0.3222
 6678TIP3   OH244228   1.249   7.442   1.623 -0.3514  0.0872 -0.2562
 6678TIP3    H144229   1.235   7.527   1.663  0.8617  0.0637  0.2868
 6678TIP3    H244230   1.340   7.445   1.592 -1.5165  0.5415 -4.1628
 6679TIP3   OH244231   2.700   5.555   2.071  0.1948  0.2221 -0.3782
 6679TIP3    H144232   2.789   5.586   2.086  0.5134  0.4624 -2.3968
 6679TIP3    H244233   2.653   5.631   2.037 -0.3266 -0.2902 -0.8489
 6680TIP3   OH244234   3.425   7.579   1.797  0.3888  0.1768 -0.0844
 6680TIP3    H144235   3.387   7.633   1.727 -2.0760 -0.5135  0.6483
 6680TIP3    H244236   3.518   7.576   1.776 -0.0608  1.1339 -2.5602
 6681TIP3   OH244237   7.293   4.675   1.165 -0.0259  0.0056 -0.3957
 6681TIP3    H144238   7.341   4.634   1.093  2.5567  0.5340  0.9367
 6681TIP3    H244239   7.310   4.619   1.240  0.1020  1.2444  0.5322
 6682TIP3   OH244240   0.621   4.281   1.290 -0.1237 -0.4544  0.2218
 6682TIP3    H144241   0.608   4.187   1.297 -0.7943 -0.3509  0.5103
 6682TIP3    H244242   0.553   4.318   1.347  0.3276  0.1902  0.3457
 6683TIP3   OH244243   1.151   3.337   1.787  0.3612  0.3544 -0.0210
 6683TIP3    H144244   1.115   3.347   1.699 -0.1993  1.7513  0.3422
 6683TIP3    H244245   1.096   3.392   1.843  0.0702 -1.3008  1.4081
 6684TIP3   OH244246   2.988   7.235   1.462  0.0211 -0.8095 -0.6904
 6684TIP3    H144247   2.913   7.276   1.503  1.0408 -0.0410  0.4828
 6684TIP3    H244248   2.984   7.263   1.370 -1.1370 -0.8316 -0.6580
 6685TIP3   OH244249   2.996   1.582   2.349 -0.1818 -0.0470 -0.1240
 6685TIP3    H144250   3.079   1.630   2.346  0.6653 -1.2637  1.7718
 6685TIP3    H244251   3.011   1.506   2.293  0.7871 -1.3164  1.7401
 6686TIP3   OH244252   3.240   1.972   2.587 -0.2098 -1.0299  0.3390
 6686TIP3    H144253   3.246   1.917   2.665 -2.4009 -0.1386  1.2381
 6686TIP3    H244254   3.315   2.031   2.593 -0.9779 -0.1524  2.5216
 6687TIP3   OH244255   4.016   2.162   3.270 -0.0812  0.4006  0.1444
 6687TIP3    H144256   4.091   2.102   3.270  0.9760  1.6489 -1.2841
 6687TIP3    H244257   4.033   2.222   3.342 -0.5420 -0.2552  0.8209
 6688TIP3   OH244258   4.581   6.884   1.257 -0.1010 -0.1776 -0.2310
 6688TIP3    H144259   4.644   6.912   1.324  1.0876 -2.0155 -0.5055
 6688TIP3    H244260   4.602   6.792   1.243 -1.5749 -0.3037 -1.7952
 6689TIP3   OH244261   2.034   3.562   3.541 -0.7713 -0.1469  0.3316
 6689TIP3    H144262   2.000   3.522   3.622  1.7966 -1.2258  0.9853
 6689TIP3    H244263   2.104   3.502   3.513 -0.6520  0.9584 -1.9241
 6690TIP3   OH244264   6.557   2.538   2.568 -0.2968 -0.8705 -0.1938
 6690TIP3    H144265   6.562   2.558   2.661  0.7008  1.8561 -0.7505
 6690TIP3    H244266   6.643   2.500   2.547 -0.1892 -0.6304 -0.1851
 6691TIP3   OH244267   5.823   5.813   2.304  0.1813 -0.2045  0.2032
 6691TIP3    H144268   5.813   5.764   2.222  1.9328 -0.7718  0.2958
 6691TIP3    H244269   5.786   5.899   2.284 -2.3239 -1.2664 -0.1714
 6692TIP3   OH244270   3.669   7.005   1.236  0.4193 -0.3431  0.4192
 6692TIP3    H144271   3.697   7.060   1.309  0.0989  1.9594 -1.0910
 6692TIP3    H244272   3.750   6.963   1.206  0.6256 -0.9614  1.7938
 6693TIP3   OH244273   5.045   6.982   1.348 -0.0395  0.0561 -0.1241
 6693TIP3    H144274   4.970   7.036   1.323  0.9792  1.5519 -0.0812
 6693TIP3    H244275   5.061   6.927   1.271 -0.2768  0.7724 -0.6971
 6694TIP3   OH244276   4.851   7.153   0.926 -0.5792  0.8234 -0.3095
 6694TIP3    H144277   4.903   7.075   0.910  0.9941  1.7525  0.1037
 6694TIP3    H244278   4.781   7.149   0.860  0.5512  0.0304 -1.5088
 6695TIP3   OH244279   2.710   3.899   1.694  0.0511 -0.1793  0.1491
 6695TIP3    H144280   2.709   3.808   1.722  0.1158 -0.5302 -0.9240
 6695TIP3    H244281   2.742   3.896   1.604 -0.7718  0.8101 -0.1977
 6696TIP3   OH244282   4.597   4.424   0.689  0.2792  0.5295  0.1962
 6696TIP3    H144283   4.536   4.375   0.633  0.8310  0.5002 -0.3913
 6696TIP3    H244284   4.617   4.363   0.761 -2.5660  1.5191  2.0129
 6697TIP3   OH244285   5.846   0.548   1.594 -0.4069 -0.1060 -0.1971
 6697TIP3    H144286   5.854   0.604   1.517 -1.4772  0.8022  0.3264
 6697TIP3    H244287   5.903   0.589   1.659  0.1014 -0.5874 -0.3292
 6698TIP3   OH244288   0.078   6.699   2.695  0.0245  0.0923  0.5634
 6698TIP3    H144289   0.165   6.678   2.729  1.2938  2.2454 -1.1174
 6698TIP3    H244290   0.041   6.614   2.670  1.8914 -0.8083  0.7310
 6699TIP3   OH244291   5.642   3.024   2.880 -0.2397 -0.4250 -0.2882
 6699TIP3    H144292   5.561   3.066   2.851  0.8773  2.0947  0.0545
 6699TIP3    H244293   5.639   2.937   2.840 -2.1570  0.3193 -1.9243
 6700TIP3   OH244294   6.491   2.765   2.016  1.0647  0.4324  0.3164
 6700TIP3    H144295   6.417   2.756   1.956  1.5912  1.3441 -0.4933
 6700TIP3    H244296   6.568   2.745   1.962  1.5192  0.9289  0.7716
 6701TIP3   OH244297   5.610   0.823   1.790  0.2807 -0.0024  0.1968
 6701TIP3    H144298   5.657   0.905   1.779 -0.8967  0.3736 -3.1818
 6701TIP3    H244299   5.677   0.755   1.776  1.1194  0.2832  2.3731
 6702TIP3   OH244300   5.761   3.370   1.610 -0.0685  0.2700 -0.3490
 6702TIP3    H144301   5.792   3.383   1.521 -3.0367  0.4188 -1.4547
 6702TIP3    H244302   5.838   3.389   1.665  1.4902  1.4775 -2.7804
 6703TIP3   OH244303   4.907   1.724   1.737 -0.2537 -0.5080  0.7290
 6703TIP3    H144304   4.982   1.718   1.678 -0.1105 -0.8272  0.9416
 6703TIP3    H244305   4.862   1.805   1.711 -1.7044 -1.9443 -1.5694
 6704TIP3   OH244306   4.374   3.488   2.865 -0.4769 -0.3239 -0.2869
 6704TIP3    H144307   4.306   3.549   2.896 -0.5915 -0.8068  0.4450
 6704TIP3    H244308   4.448   3.503   2.924 -0.5506 -0.9698 -0.0237
 6705TIP3   OH244309   4.358   6.425   1.273  0.1712 -0.4242  0.4489
 6705TIP3    H144310   4.303   6.375   1.213 -1.8789  1.5906  0.5605
 6705TIP3    H244311   4.387   6.501   1.222 -0.5102  0.6207  1.5589
 6706TIP3   OH244312   4.415   2.867   1.268  0.1733 -0.1563 -0.3353
 6706TIP3    H144313   4.364   2.943   1.239 -2.8783 -2.1928 -0.7440
 6706TIP3    H244314   4.485   2.859   1.203 -1.5147  0.3154 -2.3071
 6707TIP3   OH244315   6.781   5.269   2.878 -0.6580  0.1818  0.3394
 6707TIP3    H144316   6.775   5.182   2.839 -0.9567  0.3319  0.0426
 6707TIP3    H244317   6.690   5.296   2.891 -0.5903  0.8498 -0.4812
 6708TIP3   OH244318   1.663   2.720   1.940 -0.2048 -0.4273 -0.3794
 6708TIP3    H144319   1.613   2.643   1.967  0.6095 -1.4282 -1.5736
 6708TIP3    H244320   1.620   2.749   1.860  0.9080 -1.1470 -1.2786
 6709TIP3   OH244321   7.392   1.351   3.476 -0.5986  0.4420  0.3601
 6709TIP3    H144322   7.408   1.263   3.510 -0.1605  0.8000  1.0984
 6709TIP3    H244323   7.463   1.404   3.512  0.9907  0.5135 -2.5299
 6710TIP3   OH244324   6.594   2.063   2.013 -0.1392 -0.2100 -0.3424
 6710TIP3    H144325   6.624   2.152   2.030  2.1717 -1.0534  0.3649
 6710TIP3    H244326   6.505   2.060   2.049 -0.0594  1.6169  0.1075
 6711TIP3   OH244327   6.947   0.451   0.834 -0.4859  0.7576 -0.1307
 6711TIP3    H144328   7.014   0.487   0.891 -2.3846  0.4931  2.4597
 6711TIP3    H244329   6.996   0.403   0.767  1.8905  1.5178  0.9530
 6712TIP3   OH244330   7.268   4.691   1.591  0.2833 -0.3105 -0.5641
 6712TIP3    H144331   7.282   4.776   1.634  0.6970 -1.1648  1.0550
 6712TIP3    H244332   7.198   4.650   1.642  0.0319 -0.9191 -1.3783
 6713TIP3   OH244333   5.591   0.622   0.543  0.1999  0.2833 -0.5978
 6713TIP3    H144334   5.680   0.632   0.577  0.3936  1.4060 -1.3793
 6713TIP3    H244335   5.602   0.580   0.458 -0.1047 -0.5098 -0.2514
 6714TIP3   OH244336   4.384   5.043   0.776  0.5096  0.5391 -0.3845
 6714TIP3    H144337   4.387   5.034   0.871  2.0158  2.6388 -0.1604
 6714TIP3    H244338   4.323   5.114   0.760 -0.2338 -0.2284 -1.0596
 6715TIP3   OH244339   1.024   6.922   1.922  0.0874  0.6534 -0.3871
 6715TIP3    H144340   1.034   7.013   1.948  0.0688  0.5209  0.1002
 6715TIP3    H244341   0.983   6.926   1.835 -4.0571  1.1178  1.3343
 6716TIP3   OH244342   2.322   6.534   1.433 -0.3028 -0.0110  0.7957
 6716TIP3    H144343   2.313   6.489   1.348  0.1724 -0.0794  0.7795
 6716TIP3    H244344   2.233   6.538   1.467 -1.0238  2.8230 -1.1252
 6717TIP3   OH244345   3.849   1.042   1.728  0.5268  0.6421 -0.2584
 6717TIP3    H144346   3.903   1.090   1.792 -2.7226  2.0472  1.7316
 6717TIP3    H244347   3.800   0.979   1.781  0.4949 -0.8623 -2.0098
 6718TIP3   OH244348   6.613   3.899   2.025 -0.7152  0.0985  0.2672
 6718TIP3    H144349   6.681   3.964   2.044  0.8473 -0.7508 -2.0309
 6718TIP3    H244350   6.661   3.819   2.008 -2.5490 -1.4702  1.9542
 6719TIP3   OH244351   5.194   4.608   0.642 -0.3971  0.6043 -0.4091
 6719TIP3    H144352   5.127   4.561   0.691  1.0371  0.5842  1.6174
 6719TIP3    H244353   5.161   4.697   0.636 -0.3650  0.7402  1.1126
 6720TIP3   OH244354   5.141   1.452   2.891 -0.4218 -0.2628 -0.3302
 6720TIP3    H144355   5.229   1.464   2.855 -0.2882  1.2808  0.4363
 6720TIP3    H244356   5.138   1.361   2.919  0.9436 -0.3173 -0.3348
 6721TIP3   OH244357   7.450   4.380   1.865 -0.5725 -0.4119  0.0411
 6721TIP3    H144358   7.380   4.437   1.896 -0.5969 -1.2482  1.6448
 6721TIP3    H244359   7.529   4.432   1.874 -0.8069  0.0066 -0.3028
 6722TIP3   OH244360   7.633   4.387   3.080 -0.1200  0.0700  0.0931
 6722TIP3    H144361   7.656   4.342   3.161  0.5420  1.5979  0.8080
 6722TIP3    H244362   7.596   4.471   3.109  2.5742  1.8267 -1.1189
 6723TIP3   OH244363   2.581   3.384   0.719  0.4033  0.3725  0.7047
 6723TIP3    H144364   2.551   3.294   0.713 -0.2546  0.6519 -0.2640
 6723TIP3    H244365   2.552   3.413   0.806  1.2465 -0.5555  1.3186
 6724TIP3   OH244366   0.364   1.075   1.117  0.2401 -0.0707 -0.2761
 6724TIP3    H144367   0.423   1.037   1.052  0.9306 -0.0953  0.3372
 6724TIP3    H244368   0.420   1.090   1.193 -0.6820 -0.6749  0.5476
 6725TIP3   OH244369   2.005   5.646   1.028 -0.3760  0.2617 -0.7468
 6725TIP3    H144370   2.062   5.693   0.967 -1.0488  1.1417 -0.7242
 6725TIP3    H244371   2.064   5.613   1.096  0.1412  0.9042 -0.8733
 6726TIP3   OH244372   6.940   1.878   2.326 -0.1809  0.0769 -0.2882
 6726TIP3    H144373   6.968   1.807   2.384 -2.0036  0.3010  0.9456
 6726TIP3    H244374   6.961   1.847   2.238  0.3378 -1.3850  0.3171
 6727TIP3   OH244375   2.491   4.984   1.557  0.7386 -0.1031  0.0193
 6727TIP3    H144376   2.514   4.977   1.649  0.0505  0.3527  0.2307
 6727TIP3    H244377   2.562   4.938   1.511  1.2200 -0.1079  0.7505
 6728TIP3   OH244378   6.525   3.776   1.543 -0.5743 -0.1975  0.1507
 6728TIP3    H144379   6.476   3.790   1.624 -2.5721 -1.5411 -0.7642
 6728TIP3    H244380   6.576   3.697   1.559 -0.3124  0.0040  0.3466
 6729TIP3   OH244381   2.429   2.061   0.562 -0.1886  0.4775  0.2538
 6729TIP3    H144382   2.345   2.078   0.605 -0.0471  0.9173  0.3659
 6729TIP3    H244383   2.408   2.004   0.489 -0.4300 -0.3142  0.9312
 6730TIP3   OH244384   5.401   5.567   1.518 -0.0478 -0.4437 -0.1521
 6730TIP3    H144385   5.410   5.561   1.613 -1.2498 -0.2402 -0.0122
 6730TIP3    H244386   5.311   5.594   1.504  0.7032  1.6930 -1.2814
 6731TIP3   OH244387   5.573   6.355   1.236  0.0492  0.6647  0.3767
 6731TIP3    H144388   5.527   6.273   1.218 -0.3726  1.1662 -1.0439
 6731TIP3    H244389   5.571   6.364   1.331 -0.2669 -0.7569  0.5258
 6732TIP3   OH244390   2.037   3.418   2.436 -0.6775  0.1615 -0.1922
 6732TIP3    H144391   2.088   3.351   2.392  0.2538  0.5859  0.2065
 6732TIP3    H244392   2.065   3.500   2.395 -1.9273  0.3104 -0.7949
 6733TIP3   OH244393   5.926   7.072   2.729 -0.4753 -0.2642 -0.4395
 6733TIP3    H144394   5.909   7.055   2.822 -1.7313 -0.1158 -0.6221
 6733TIP3    H244395   5.868   7.013   2.682  0.6851 -0.8629 -1.1586
 6734TIP3   OH244396   4.431   7.301   2.812  0.1025  0.4375 -0.4555
 6734TIP3    H144397   4.423   7.322   2.905 -0.7771  0.8426 -0.6171
 6734TIP3    H244398   4.479   7.218   2.811 -1.5502 -0.5693  0.4568
 6735TIP3   OH244399   2.898   6.038   2.976 -0.0759  0.0150  0.4896
 6735TIP3    H144400   2.868   6.032   3.066  0.5466 -1.0674  0.6432
 6735TIP3    H244401   2.901   6.132   2.957 -0.9320  0.2254  1.3335
 6736TIP3   OH244402   6.529   6.211   3.096  0.6368  0.0813  0.1414
 6736TIP3    H144403   6.524   6.302   3.124  1.5252 -0.0352  0.7229
 6736TIP3    H244404   6.618   6.184   3.117  0.2561 -1.0561  0.3808
 6737TIP3   OH244405   2.601   2.686   2.480 -0.0921 -0.4562 -0.8632
 6737TIP3    H144406   2.588   2.596   2.450  0.1361 -1.1735  1.0305
 6737TIP3    H244407   2.516   2.711   2.516  0.1361 -0.3062 -0.4276
 6738TIP3   OH244408   1.251   2.925   2.533  0.0683  0.0583 -0.1485
 6738TIP3    H144409   1.193   2.853   2.559 -0.8243  0.1592 -1.7040
 6738TIP3    H244410   1.240   2.931   2.438  2.1349  0.5514 -0.4076
 6739TIP3   OH244411   4.247   1.497   0.824 -0.0958  0.2559 -0.0006
 6739TIP3    H144412   4.212   1.585   0.841 -0.9090 -0.2565  1.0676
 6739TIP3    H244413   4.309   1.483   0.897 -1.3898 -0.7908  0.9334
 6740TIP3   OH244414   2.209   0.333   2.535  0.4020  0.3711 -0.7830
 6740TIP3    H144415   2.281   0.316   2.595  1.0212  0.6680 -1.4217
 6740TIP3    H244416   2.142   0.268   2.557  0.8331  0.1473 -0.1325
 6741TIP3   OH244417   1.134   4.406   1.417 -0.1413  0.8083  0.0820
 6741TIP3    H144418   1.136   4.501   1.408  0.0902  0.7159 -1.0378
 6741TIP3    H244419   1.051   4.379   1.377 -0.7319  0.6130  1.3920
 6742TIP3   OH244420   3.428   3.530   0.766 -0.4430  0.3692  0.3956
 6742TIP3    H144421   3.478   3.535   0.684 -0.8706 -1.5242 -0.0272
 6742TIP3    H244422   3.426   3.437   0.787 -0.9984  0.7474  2.1741
 6743TIP3   OH244423   3.642   5.467   1.040  0.6957 -0.1170 -0.1431
 6743TIP3    H144424   3.704   5.504   0.977  0.5832 -0.1507 -0.2735
 6743TIP3    H244425   3.662   5.512   1.122 -0.5672  1.4839 -0.6667
 6744TIP3   OH244426   1.054   4.023   1.746  0.1021  0.7174  0.5871
 6744TIP3    H144427   0.999   4.088   1.703  0.9580 -0.3392 -2.2989
 6744TIP3    H244428   1.127   4.073   1.783  0.1950  1.5320 -0.6673
 6745TIP3   OH244429   5.604   4.899   0.559 -0.2107 -0.3122  0.5827
 6745TIP3    H144430   5.592   4.990   0.584  0.3491 -0.1237  0.1955
 6745TIP3    H244431   5.690   4.876   0.594 -0.5404 -0.8375  1.0754
 6746TIP3   OH244432   3.130   6.813   1.354 -0.4035  0.6549 -0.0056
 6746TIP3    H144433   3.172   6.881   1.407  1.3246 -1.2303  1.1923
 6746TIP3    H244434   3.202   6.771   1.308 -1.5433  0.1918 -1.4121
 6747TIP3   OH244435   4.971   5.776   2.503 -0.2922  0.3759  0.1198
 6747TIP3    H144436   5.016   5.856   2.475 -0.2183  0.9853  1.8562
 6747TIP3    H244437   4.971   5.781   2.598  0.2984 -2.0451  0.3001
 6748TIP3   OH244438   5.471   1.508   0.777 -0.1889 -0.6664 -0.2842
 6748TIP3    H144439   5.403   1.475   0.836 -1.7320 -0.4196 -1.8558
 6748TIP3    H244440   5.423   1.560   0.712  1.4966 -0.5586 -1.4999
 6749TIP3   OH244441   3.626   6.753   0.784  0.0421 -0.0140  0.8858
 6749TIP3    H144442   3.545   6.732   0.737  0.0308 -0.3230  1.0356
 6749TIP3    H244443   3.599   6.758   0.876 -0.1234  1.5371  0.7835
 6750TIP3   OH244444   5.189   3.085   1.878 -0.5250 -0.1098  0.1060
 6750TIP3    H144445   5.163   3.016   1.939  1.1245 -1.6512 -0.8329
 6750TIP3    H244446   5.114   3.095   1.819 -0.8150 -1.0612  0.2942
 6751TIP3   OH244447   6.290   1.158   1.542 -0.2089 -0.8975 -0.4838
 6751TIP3    H144448   6.264   1.081   1.493 -1.0025 -1.5436  0.9004
 6751TIP3    H244449   6.214   1.180   1.596  0.0851  0.7131 -0.6603
 6752TIP3   OH244450   2.506   2.434   1.960 -0.4757 -0.3414 -0.0571
 6752TIP3    H144451   2.416   2.405   1.946 -0.5489  0.4231 -1.2937
 6752TIP3    H244452   2.504   2.529   1.946  0.5733 -0.3508 -0.3901
 6753TIP3   OH244453   4.100   6.370   1.859 -0.4255  0.0192  0.3171
 6753TIP3    H144454   4.080   6.305   1.792 -0.8626  0.8062 -0.3281
 6753TIP3    H244455   4.049   6.341   1.935  0.1890 -0.9613  0.3803
 6754TIP3   OH244456   2.572   2.257   2.941  0.0224 -0.5985  0.1934
 6754TIP3    H144457   2.556   2.241   3.034 -1.0861 -0.1769  0.0890
 6754TIP3    H244458   2.631   2.186   2.915 -1.1159 -1.8156  0.8064
 6755TIP3   OH244459   0.114   4.711   3.784 -0.5821 -0.3430 -0.0039
 6755TIP3    H144460   0.134   4.646   3.717 -0.0429  0.5086 -0.6881
 6755TIP3    H244461   0.019   4.711   3.791 -0.5872 -1.2515  0.0670
 6756TIP3   OH244462   5.335   6.382   3.023 -0.1012 -0.2068 -0.1436
 6756TIP3    H144463   5.412   6.329   3.043 -0.8440 -0.4996  2.2884
 6756TIP3    H244464   5.366   6.472   3.028 -0.2087 -0.2458  2.7347
 6757TIP3   OH244465   4.566   4.634   2.059  0.1992  0.0775  0.2086
 6757TIP3    H144466   4.642   4.690   2.042  2.0131 -1.6777  2.0576
 6757TIP3    H244467   4.513   4.685   2.121  0.5343  0.7509 -0.0406
 6758TIP3   OH244468   6.012   6.605   1.014 -0.3021 -0.0026 -0.0397
 6758TIP3    H144469   5.975   6.691   0.994  0.2060  0.1183 -0.4894
 6758TIP3    H244470   5.937   6.552   1.042 -0.4050  0.9709  1.5897
 6759TIP3   OH244471   7.032   5.010   2.838  0.3973  0.1359 -0.3946
 6759TIP3    H144472   6.984   5.044   2.762  1.2461  0.4481 -0.7980
 6759TIP3    H244473   6.976   4.940   2.871  0.5877 -0.8779 -2.0726
 6760TIP3   OH244474   3.667   4.074   1.664  0.3624 -0.2844 -0.2827
 6760TIP3    H144475   3.640   4.114   1.747 -0.8567  0.8974 -1.2118
 6760TIP3    H244476   3.687   4.148   1.607  0.9797 -1.0791 -1.1168
 6761TIP3   OH244477   3.341   3.799   0.756  0.9007 -0.1690 -0.5826
 6761TIP3    H144478   3.364   3.706   0.753 -1.4918 -0.8363 -0.2416
 6761TIP3    H244479   3.261   3.806   0.704  0.5070  1.5216  0.1749
 6762TIP3   OH244480   4.331   2.512   2.448 -0.1767  0.6703  0.5593
 6762TIP3    H144481   4.397   2.446   2.429 -1.8363 -1.3622  1.4997
 6762TIP3    H244482   4.319   2.508   2.543 -1.6568  0.9626  0.4152
 6763TIP3   OH244483   0.182   4.552   3.529 -0.7383  0.0376 -0.4191
 6763TIP3    H144484   0.109   4.518   3.478 -1.4679 -0.8390  1.1150
 6763TIP3    H244485   0.238   4.476   3.545 -0.0566  0.4810 -0.6764
 6764TIP3   OH244486   6.565   0.893   0.412  0.1661 -0.0053  0.3919
 6764TIP3    H144487   6.580   0.914   0.319  1.6765 -0.6759  0.4613
 6764TIP3    H244488   6.508   0.964   0.443  0.5380  0.8436 -0.7754
 6765TIP3   OH244489   4.634   4.866   2.684 -0.3395 -0.2163  0.1099
 6765TIP3    H144490   4.555   4.814   2.674  0.5638 -1.6102 -0.0271
 6765TIP3    H244491   4.607   4.955   2.660 -1.4753 -0.9558 -1.5770
 6766TIP3   OH244492   3.162   7.170   1.068  0.2627 -0.2246 -1.1382
 6766TIP3    H144493   3.119   7.100   1.116  0.9224 -0.7513 -1.3053
 6766TIP3    H244494   3.228   7.204   1.128 -1.9730  2.2882  0.0934
 6767TIP3   OH244495   7.194   1.330   0.612 -0.3083  0.0172 -0.3380
 6767TIP3    H144496   7.239   1.405   0.575 -1.5763  0.7102 -0.5550
 6767TIP3    H244497   7.254   1.256   0.600  1.6065  1.2280  1.1947
 6768TIP3   OH244498   1.956   4.521   1.291 -0.3062 -0.0429  0.1221
 6768TIP3    H144499   2.034   4.499   1.341  0.2109 -0.2639 -0.7596
 6768TIP3    H244500   1.941   4.444   1.235 -1.9846 -0.6227  1.2600
 6769TIP3   OH244501   2.467   3.215   2.738  0.0606  0.0809 -1.0408
 6769TIP3    H144502   2.555   3.250   2.753 -0.4506  0.4138  1.5750
 6769TIP3    H244503   2.482   3.128   2.702  1.5212 -0.4142  0.6450
 6770TIP3   OH244504   2.926   7.578   2.451  0.2565 -0.0272 -0.5232
 6770TIP3    H144505   2.910   7.518   2.524 -1.3626  0.9064 -0.0462
 6770TIP3    H244506   3.004   7.627   2.477 -0.2113  0.1937  0.5468
 6771TIP3   OH244507   4.633   1.756   1.892  0.3485 -0.1176  0.2909
 6771TIP3    H144508   4.585   1.695   1.835 -0.0584  0.4320  0.0363
 6771TIP3    H244509   4.700   1.702   1.933 -0.0637 -0.7630  0.1415
 6772TIP3   OH244510   7.473   2.057   2.753 -0.0771  0.2072 -1.1838
 6772TIP3    H144511   7.444   1.967   2.739  0.6732 -0.5025  1.2457
 6772TIP3    H244512   7.401   2.098   2.801  1.0902 -0.3289  1.1705
 6773TIP3   OH244513   2.023   5.516   2.706  0.4918 -0.3175  0.3165
 6773TIP3    H144514   1.980   5.446   2.755 -0.3827 -0.0643 -0.0748
 6773TIP3    H244515   2.077   5.561   2.771  0.0414 -0.5377  0.8539
 6774TIP3   OH244516   5.052   1.839   0.923  0.1098  0.0546  0.3234
 6774TIP3    H144517   5.054   1.744   0.929 -3.0174 -0.0596  1.3911
 6774TIP3    H244518   5.042   1.869   1.013  0.3564  1.3581 -0.0612
 6775TIP3   OH244519   2.131   4.148   2.461 -0.1959 -0.0427  0.0762
 6775TIP3    H144520   2.211   4.099   2.444  0.4146  2.1480 -4.9859
 6775TIP3    H244521   2.160   4.233   2.492 -0.7686 -0.0221  0.5830
 6776TIP3   OH244522   2.115   1.907   3.470  0.0278  0.3959  0.4147
 6776TIP3    H144523   2.122   1.824   3.423  0.4133  0.0485  1.0691
 6776TIP3    H244524   2.102   1.972   3.401 -1.8891 -0.3710 -0.0213
 6777TIP3   OH244525   2.094   3.842   1.172 -0.5263  0.1301 -0.1810
 6777TIP3    H144526   2.114   3.751   1.147 -2.5683 -0.5430  0.4840
 6777TIP3    H244527   2.020   3.867   1.117 -0.8980  0.8977  0.6384
 6778TIP3   OH244528   0.628   5.346   0.917 -0.2293  0.1283 -0.4317
 6778TIP3    H144529   0.703   5.405   0.918 -1.0807  1.3427  2.3695
 6778TIP3    H244530   0.619   5.320   0.826  2.3022  1.5830 -1.1970
 6779TIP3   OH244531   3.224   3.875   1.868 -0.1203 -0.1228 -0.0364
 6779TIP3    H144532   3.274   3.919   1.799  2.3666  0.9437  2.2865
 6779TIP3    H244533   3.157   3.939   1.893  0.5951  0.5291  0.2531
 6780TIP3   OH244534   2.113   7.573   2.209 -0.2059 -0.7320 -0.1741
 6780TIP3    H144535   2.108   7.585   2.115  0.3274 -2.6591 -0.5024
 6780TIP3    H244536   2.105   7.661   2.246  2.0210  0.3775 -2.0965
 6781TIP3   OH244537   7.411   0.888   0.818 -0.0773  0.2962 -0.1048
 6781TIP3    H144538   7.372   0.921   0.899 -0.5014  0.5239 -0.3986
 6781TIP3    H244539   7.357   0.812   0.795  1.3622 -1.1277  0.9894
 6782TIP3   OH244540   7.251   0.889   1.766 -0.3457  0.0700 -0.0901
 6782TIP3    H144541   7.327   0.899   1.708  0.9795 -0.6229  1.4222
 6782TIP3    H244542   7.269   0.949   1.839 -2.1016  1.1395 -0.4855
 6783TIP3   OH244543   2.129   0.428   0.948 -0.5626 -0.3586 -0.0943
 6783TIP3    H144544   2.145   0.508   0.999 -1.6635  0.0271 -0.3365
 6783TIP3    H244545   2.153   0.357   1.008 -1.0114  0.1106  0.6662
 6784TIP3   OH244546   7.217   1.082   2.245 -0.1596  0.1391 -0.0559
 6784TIP3    H144547   7.221   1.156   2.307  0.6492  0.6597 -0.7025
 6784TIP3    H244548   7.277   1.018   2.283  0.8395  0.7193 -0.5998
 6785TIP3   OH244549   0.159   2.737   2.078  0.1069 -0.0565 -0.3429
 6785TIP3    H144550   0.239   2.778   2.111  1.0644 -2.5171  0.7000
 6785TIP3    H244551   0.121   2.695   2.155 -1.0202 -0.7042 -1.2297
 6786TIP3   OH244552   4.628   3.904   1.046 -0.2582 -0.4028 -0.8915
 6786TIP3    H144553   4.715   3.944   1.040  0.3619 -1.7810 -1.3789
 6786TIP3    H244554   4.645   3.810   1.048 -1.7506 -0.6931 -0.9977
 6787TIP3   OH244555   2.341   4.738   1.958 -0.2754  0.2558  0.1454
 6787TIP3    H144556   2.261   4.689   1.976  0.3791 -0.6082  0.7576
 6787TIP3    H244557   2.337   4.756   1.864 -0.0989 -1.7761 -0.2938
 6788TIP3   OH244558   5.053   1.139   3.535  0.5978  0.5981  0.3882
 6788TIP3    H144559   5.079   1.069   3.475 -0.3439  1.5117 -1.1474
 6788TIP3    H244560   5.133   1.188   3.551  1.2401 -0.7065  1.3707
 6789TIP3   OH244561   6.985   0.987   1.326  0.5581 -0.0560 -0.4513
 6789TIP3    H144562   7.041   0.983   1.248 -0.6517 -1.2454 -1.3052
 6789TIP3    H244563   7.046   0.991   1.399  1.7680 -1.0208 -1.3562
 6790TIP3   OH244564   4.440   3.661   1.199  0.2190  0.2119  0.8313
 6790TIP3    H144565   4.395   3.746   1.195  0.5092  0.3202 -0.5599
 6790TIP3    H244566   4.458   3.639   1.108  2.6189 -0.0343  1.3097
 6791TIP3   OH244567   7.212   4.676   2.564 -0.3053 -0.3592 -0.7515
 6791TIP3    H144568   7.261   4.733   2.622  0.8926 -1.3871 -0.7136
 6791TIP3    H244569   7.161   4.620   2.623 -0.3834 -0.2787 -0.7430
 6792TIP3   OH244570   3.503   1.190   1.432  0.2060  0.3064 -0.8128
 6792TIP3    H144571   3.582   1.237   1.409 -0.6529  1.5169 -1.3978
 6792TIP3    H244572   3.449   1.255   1.477 -0.7286 -0.3011 -1.0304
 6793TIP3   OH244573   0.183   3.894   2.927 -0.6445 -0.2253 -0.2840
 6793TIP3    H144574   0.230   3.888   2.843 -1.1955 -0.7778 -0.5608
 6793TIP3    H244575   0.235   3.955   2.979 -1.0012  1.1585 -1.4990
 6794TIP3   OH244576   4.662   5.055   0.816  0.1484  0.1649  1.0572
 6794TIP3    H144577   4.569   5.048   0.797  0.6770  1.0471 -2.6584
 6794TIP3    H244578   4.699   4.972   0.785  0.7674  0.4066  1.1318
 6795TIP3   OH244579   6.829   5.584   2.214  0.0612  0.3670  0.1595
 6795TIP3    H144580   6.758   5.535   2.171  2.9721 -3.1598 -1.2279
 6795TIP3    H244581   6.847   5.534   2.293  1.4086  0.7847  0.1268
 6796TIP3   OH244582   2.033   4.901   1.519 -0.3825  0.1008  0.1523
 6796TIP3    H144583   1.965   4.833   1.516 -1.1950  0.8813  0.2651
 6796TIP3    H244584   2.005   4.959   1.590 -0.2645  1.1228 -0.6137
 6797TIP3   OH244585   6.994   5.336   2.707  0.1102  0.0870 -0.0192
 6797TIP3    H144586   6.921   5.373   2.757  0.3623  0.3072  0.1852
 6797TIP3    H244587   6.961   5.251   2.678  0.2632 -0.4270  1.2597
 6798TIP3   OH244588   7.364   1.811   2.727  0.3544  0.0692  0.1908
 6798TIP3    H144589   7.283   1.845   2.764  0.9057  2.5006 -0.6527
 6798TIP3    H244590   7.340   1.783   2.638  0.8002  3.0614 -0.9784
 6799TIP3   OH244591   1.655   3.846   1.963  0.3130  0.3388  0.6297
 6799TIP3    H144592   1.606   3.903   1.904  1.0349  0.0571 -0.2797
 6799TIP3    H244593   1.709   3.906   2.015  1.5534  0.4989 -0.7662
 6800TIP3   OH244594   7.449   6.503   1.216 -0.1263  0.2036 -0.3904
 6800TIP3    H144595   7.361   6.529   1.188 -0.4869 -1.5508 -1.0028
 6800TIP3    H244596   7.507   6.542   1.151 -0.2900  2.2944  0.6112
 6801TIP3   OH244597   6.178   6.720   1.861 -0.1477 -0.5316 -0.4321
 6801TIP3    H144598   6.251   6.778   1.840 -2.1185  1.7249 -1.5752
 6801TIP3    H244599   6.218   6.634   1.873  2.7603  0.7408 -0.1269
 6802TIP3   OH244600   0.693   6.486   0.852  0.1036  0.5761 -0.4663
 6802TIP3    H144601   0.781   6.461   0.821 -0.5993 -0.1338 -2.0214
 6802TIP3    H244602   0.672   6.565   0.803 -0.5712  0.0983 -0.9585
 6803TIP3   OH244603   4.300   0.572   2.461  0.0785  0.0926 -0.4281
 6803TIP3    H144604   4.318   0.666   2.457  1.1389 -0.1031 -0.4828
 6803TIP3    H244605   4.249   0.561   2.541 -0.3650  0.7569 -0.6071
 6804TIP3   OH244606   3.840   7.666   1.399  0.2009  0.2268  0.3541
 6804TIP3    H144607   3.825   7.735   1.335 -0.5412 -0.8585 -0.6855
 6804TIP3    H244608   3.778   7.684   1.469 -1.1642 -0.3014 -0.6877
 6805TIP3   OH244609   5.733   1.427   0.784 -0.0759 -0.5068 -0.5812
 6805TIP3    H144610   5.644   1.463   0.787  0.4634  0.8053  0.3133
 6805TIP3    H244611   5.767   1.453   0.699 -0.0479  0.2618 -0.3417
 6806TIP3   OH244612   4.452   1.811   1.631 -0.1407 -0.0824 -0.0444
 6806TIP3    H144613   4.531   1.846   1.672  0.3797 -2.2522  0.9401
 6806TIP3    H244614   4.485   1.753   1.561 -0.6637 -2.6767  1.7117
 6807TIP3   OH244615   1.155   0.616   1.230  0.5656  0.3316  0.1118
 6807TIP3    H144616   1.125   0.698   1.269  0.4248  0.1841  0.3206
 6807TIP3    H244617   1.075   0.565   1.217  0.3636  1.1793 -2.3076
 6808TIP3   OH244618   0.229   1.301   1.104 -0.2204 -0.0620 -0.1402
 6808TIP3    H144619   0.263   1.212   1.110  0.7736  0.2622 -0.6857
 6808TIP3    H244620   0.240   1.325   1.012  0.4905  0.9725  0.1890
 6809TIP3   OH244621   3.813   2.511   1.967  0.3391 -0.6158 -0.1594
 6809TIP3    H144622   3.823   2.549   2.054  0.6968  2.0158 -1.2636
 6809TIP3    H244623   3.892   2.537   1.920 -0.0858 -1.5399 -1.4482
 6810TIP3   OH244624   3.961   1.593   1.893 -0.0939  0.3862 -0.0405
 6810TIP3    H144625   4.020   1.546   1.952  0.0271 -0.6609 -0.9667
 6810TIP3    H244626   3.873   1.571   1.923 -0.0682  1.7773  1.2079
 6811TIP3   OH244627   0.605   4.950   1.009 -0.3253 -0.4489  0.3124
 6811TIP3    H144628   0.683   4.997   0.979 -1.4467  0.6219 -1.0950
 6811TIP3    H244629   0.637   4.865   1.037  1.1978 -0.5092 -1.4362
 6812TIP3   OH244630   2.392   2.655   1.723 -0.0228 -0.4986 -0.7919
 6812TIP3    H144631   2.391   2.697   1.809  1.6351  0.8351 -1.3551
 6812TIP3    H244632   2.456   2.706   1.673 -2.2724 -0.0460 -3.4354
 6813TIP3   OH244633   2.540   6.488   2.430 -0.0398  0.2028  0.0937
 6813TIP3    H144634   2.527   6.576   2.393  0.6359  0.5336  0.6262
 6813TIP3    H244635   2.628   6.491   2.467 -0.1715 -0.5793  0.4687
 6814TIP3   OH244636   1.119   4.002   3.348 -0.0064 -0.0343 -0.4292
 6814TIP3    H144637   1.146   4.071   3.408 -1.6334 -0.5751  1.0033
 6814TIP3    H244638   1.161   4.025   3.265  2.3062  0.7374  0.8821
 6815TIP3   OH244639   3.106   1.787   3.306 -0.1475  0.6385 -0.7307
 6815TIP3    H144640   3.148   1.794   3.220  0.8266  1.1485 -0.2209
 6815TIP3    H244641   3.119   1.873   3.346  0.2879  0.0915  0.3242
 6816TIP3   OH244642   6.967   5.849   2.605  0.9528  0.1296  0.3199
 6816TIP3    H144643   6.908   5.775   2.619 -1.0398  1.7312  0.7971
 6816TIP3    H244644   7.044   5.828   2.658  0.1196 -1.2251  1.0692
 6817TIP3   OH244645   0.545   3.735   0.819  0.3525  0.6573  0.3206
 6817TIP3    H144646   0.592   3.653   0.802 -1.8732 -0.5185 -0.5717
 6817TIP3    H244647   0.603   3.784   0.876  1.7808 -1.5530  0.9106
 6818TIP3   OH244648   5.000   4.768   2.046 -0.5445 -0.1929 -0.0979
 6818TIP3    H144649   5.025   4.857   2.072 -0.2993 -0.2046 -0.2864
 6818TIP3    H244650   4.910   4.776   2.015 -0.5156 -0.0052 -0.1351
 6819TIP3   OH244651   0.379   6.585   0.680 -0.3812 -0.1832 -0.7563
 6819TIP3    H144652   0.451   6.638   0.712  0.2562 -0.9955 -0.7951
 6819TIP3    H244653   0.394   6.579   0.585  0.9170 -2.3113 -0.4986
 6820TIP3   OH244654   0.859   1.603   2.325 -0.0442  0.6784 -0.3161
 6820TIP3    H144655   0.907   1.684   2.345 -1.2855  1.3608 -0.0443
 6820TIP3    H244656   0.877   1.588   2.232 -0.2191  1.5517 -0.5025
 6821TIP3   OH244657   5.876   0.091   1.266 -0.3545 -0.5254 -0.0968
 6821TIP3    H144658   5.795   0.087   1.216 -1.2211 -2.8463  1.2877
 6821TIP3    H244659   5.872   0.175   1.312 -1.4240 -0.0950 -0.9382
 6822TIP3   OH244660   5.266   6.991   1.824  0.1375  0.4611  0.2684
 6822TIP3    H144661   5.320   6.950   1.757 -0.1385 -0.6768  0.7196
 6822TIP3    H244662   5.194   7.033   1.776 -0.4455 -0.9471 -0.1179
 6823TIP3   OH244663   0.588   1.167   3.015 -0.5644  0.2967 -0.3288
 6823TIP3    H144664   0.536   1.171   3.095 -1.3866 -0.7383 -0.7963
 6823TIP3    H244665   0.602   1.259   2.991  1.1736  0.6971  1.8974
 6824TIP3   OH244666   3.024   0.828   8.518  0.1287  0.4298 -0.0318
 6824TIP3    H144667   2.978   0.816   8.435 -1.2725  0.9758  0.6311
 6824TIP3    H244668   3.054   0.919   8.516 -2.2743  1.3200  1.1419
 6825TIP3   OH244669   5.975   1.332   0.504  0.6390 -0.6453 -0.2597
 6825TIP3    H144670   5.910   1.398   0.478  0.1650 -1.9357 -2.6196
 6825TIP3    H244671   6.031   1.378   0.567 -1.8078  0.8657  0.9666
 6826TIP3   OH244672   0.668   4.113   3.570  0.1350  0.0773  0.0413
 6826TIP3    H144673   0.757   4.083   3.555  0.1981  0.5714 -0.5998
 6826TIP3    H244674   0.635   4.055   3.639  0.9056 -0.1832  0.2027
 6827TIP3   OH244675   6.544   4.851   1.472 -0.1043  0.2044  0.3440
 6827TIP3    H144676   6.475   4.845   1.538 -0.9802  2.0967 -0.3190
 6827TIP3    H244677   6.529   4.935   1.429  0.7951 -0.6703 -1.8734
 6828TIP3   OH244678   5.990   2.078   3.049  0.7382 -0.3265  0.1767
 6828TIP3    H144679   6.020   1.990   3.070  0.4149 -0.1016  1.7514
 6828TIP3    H244680   6.069   2.127   3.030  1.0749 -0.5555  0.9575
 6829TIP3   OH244681   5.767   6.005   1.604  0.5441  0.2693  0.1564
 6829TIP3    H144682   5.733   6.059   1.532 -1.3772 -0.5598  0.3902
 6829TIP3    H244683   5.780   5.919   1.564  0.6607  0.1252  0.5059
 6830TIP3   OH244684   6.288   4.409   2.424 -0.0568 -0.1568  0.0637
 6830TIP3    H144685   6.229   4.342   2.459 -0.8307  0.1400 -0.6410
 6830TIP3    H244686   6.369   4.397   2.473 -0.5675 -0.8375  0.7737
 6831TIP3   OH244687   5.468   1.241   1.434 -0.0574  0.2670  0.3098
 6831TIP3    H144688   5.510   1.279   1.510  0.2788  0.9665 -0.2199
 6831TIP3    H244689   5.520   1.163   1.414 -0.3299 -0.0866  0.9753
 6832TIP3   OH244690   5.818   5.129   0.951 -0.4425  0.2551  0.3051
 6832TIP3    H144691   5.902   5.149   0.992 -1.2136 -0.1162  2.1988
 6832TIP3    H244692   5.765   5.208   0.965 -1.1437 -0.3580  1.2708
 6833TIP3   OH244693   0.573   6.360   1.803 -0.4634  0.2767  0.0500
 6833TIP3    H144694   0.665   6.352   1.780 -0.2157  0.7239  0.8237
 6833TIP3    H244695   0.542   6.270   1.812 -0.1668  0.1230 -0.4361
 6834TIP3   OH244696   0.340   0.517   2.874 -0.2795  0.1334 -0.0639
 6834TIP3    H144697   0.338   0.539   2.967  0.8184  0.0617 -0.0112
 6834TIP3    H244698   0.426   0.546   2.844 -0.2815 -0.6365 -0.8579
 6835TIP3   OH244699   2.905   5.031   3.070  0.9823 -0.3312  0.9337
 6835TIP3    H144700   2.947   4.945   3.073  0.6454 -0.6134 -0.8588
 6835TIP3    H244701   2.815   5.012   3.043  0.8481  0.5563  0.7270
 6836TIP3   OH244702   5.289   3.078   0.805  0.1522  0.3980 -0.0132
 6836TIP3    H144703   5.375   3.037   0.803  0.4983  1.0672  0.7921
 6836TIP3    H244704   5.281   3.114   0.893 -1.1185 -0.0004  0.0537
 6837TIP3   OH244705   2.175   4.130   1.194 -0.2388 -0.5245  0.7011
 6837TIP3    H144706   2.193   4.045   1.153  1.5393 -0.0853  0.4656
 6837TIP3    H244707   2.193   4.117   1.287 -1.6718 -0.8296  0.9572
 6838TIP3   OH244708   1.846   7.608   2.812 -0.1814 -0.1388 -0.5823
 6838TIP3    H144709   1.925   7.587   2.762  1.2054 -1.1241  1.8270
 6838TIP3    H244710   1.844   7.704   2.815  2.8013  0.0325  1.7913
 6839TIP3   OH244711   0.351   1.238   3.162  0.0820  0.1126  0.3659
 6839TIP3    H144712   0.342   1.333   3.162  2.5620  0.4466 -1.0617
 6839TIP3    H244713   0.345   1.213   3.254 -0.0522  1.7221  0.8310
 6840TIP3   OH244714   4.738   0.368   2.873  0.0932  0.2396  0.2029
 6840TIP3    H144715   4.799   0.401   2.939  0.2138 -0.4234  0.4294
 6840TIP3    H244716   4.654   0.364   2.918  0.3847 -1.2338  0.6551
 6841TIP3   OH244717   4.980   1.963   3.219  0.0900 -0.6132  0.7589
 6841TIP3    H144718   4.922   1.935   3.148 -0.8287 -0.4999  1.4474
 6841TIP3    H244719   4.949   1.915   3.296 -0.3653  0.9254  1.5677
 6842TIP3   OH244720   0.524   0.868   1.889  0.1984  0.3905 -0.0470
 6842TIP3    H144721   0.439   0.838   1.922 -0.1060 -0.3198 -1.4041
 6842TIP3    H244722   0.558   0.924   1.958 -1.0768  0.1505  0.8087
 6843TIP3   OH244723   3.506   0.793   2.845  0.5987 -0.2573 -0.1152
 6843TIP3    H144724   3.532   0.732   2.776  0.3861  0.0557 -0.4776
 6843TIP3    H244725   3.427   0.835   2.811 -1.0605 -1.9813  1.4349
 6844TIP3   OH244726   1.664   2.081   2.396 -0.9203 -0.3276 -0.2511
 6844TIP3    H144727   1.697   2.013   2.337 -1.1271 -1.0182  0.4122
 6844TIP3    H244728   1.695   2.054   2.482 -1.3951  0.1808  0.0817
 6845TIP3   OH244729   5.020   6.056   1.488 -0.5384  0.0650  0.0378
 6845TIP3    H144730   4.925   6.062   1.484 -0.6235 -0.1576  1.3389
 6845TIP3    H244731   5.044   6.106   1.566  0.0837 -2.7635  1.7943
 6846TIP3   OH244732   6.845   0.588   1.642 -0.4209  0.0077  0.1439
 6846TIP3    H144733   6.923   0.633   1.674  0.6904 -1.6902 -0.0761
 6846TIP3    H244734   6.829   0.627   1.556  0.4897  0.0460 -0.0214
 6847TIP3   OH244735   7.504   3.626   3.551 -0.1703 -0.3259  0.4359
 6847TIP3    H144736   7.542   3.539   3.535  3.4506  1.1600 -0.1293
 6847TIP3    H244737   7.479   3.625   3.643  0.6243 -1.7109  0.6749
 6848TIP3   OH244738   2.877   0.884   0.934 -0.2302 -0.1319 -0.2782
 6848TIP3    H144739   2.846   0.948   0.997  0.6936 -1.3956  1.5247
 6848TIP3    H244740   2.816   0.811   0.942 -0.9498  0.2149 -1.9286
 6849TIP3   OH244741   4.371   5.858   2.174  0.0183  0.0354  0.3433
 6849TIP3    H144742   4.316   5.864   2.251 -2.0774 -1.0640 -0.9852
 6849TIP3    H244743   4.338   5.927   2.116 -0.1428 -0.7923 -0.5677
 6850TIP3   OH244744   0.359   2.363   0.847 -0.1867 -0.4528  0.3633
 6850TIP3    H144745   0.280   2.312   0.866 -2.4310  3.1410  1.6156
 6850TIP3    H244746   0.355   2.379   0.753 -0.4992 -0.9639  0.2865
 6851TIP3   OH244747   4.061   4.190   2.463  0.2100 -0.2507  0.0529
 6851TIP3    H144748   4.155   4.171   2.469  0.0666 -0.8748  0.4044
 6851TIP3    H244749   4.028   4.127   2.399  0.0066 -0.1190  0.0287
 6852TIP3   OH244750   4.682   0.913   3.256 -0.1881  0.2094 -0.5641
 6852TIP3    H144751   4.606   0.965   3.229  0.4952 -0.2076 -3.6502
 6852TIP3    H244752   4.753   0.977   3.262  0.2666 -0.0659 -2.6202
 6853TIP3   OH244753   1.355   4.677   1.860 -0.2093 -0.1261  0.5218
 6853TIP3    H144754   1.347   4.585   1.888  0.4270 -0.2259  0.3882
 6853TIP3    H244755   1.381   4.724   1.939  0.6210 -0.2511  0.3276
 6854TIP3   OH244756   0.943   5.780   2.063  0.2642 -0.3612  0.4140
 6854TIP3    H144757   0.963   5.853   2.005 -1.8394 -0.3173 -0.3686
 6854TIP3    H244758   0.943   5.817   2.151 -1.9497  0.9342 -0.0584
 6855TIP3   OH244759   2.867   5.704   0.694  0.1020  0.5083  0.2075
 6855TIP3    H144760   2.808   5.632   0.670  1.2521 -0.0858 -0.9837
 6855TIP3    H244761   2.814   5.783   0.686 -1.3519 -0.2192  2.0979
 6856TIP3   OH244762   3.016   0.688   1.132 -0.6995  0.4479 -0.3428
 6856TIP3    H144763   2.984   0.774   1.161  0.2797  1.3870 -1.8814
 6856TIP3    H244764   2.952   0.658   1.069 -0.2722  0.7712 -0.9382
 6857TIP3   OH244765   1.052   3.178   0.939  0.2338  0.9735 -1.2166
 6857TIP3    H144766   1.070   3.142   0.852  1.9390 -1.4357 -0.0045
 6857TIP3    H244767   1.029   3.101   0.992 -0.9417  2.3958  0.4319
 6858TIP3   OH244768   1.777   5.908   1.439  0.6387 -0.6637 -0.0780
 6858TIP3    H144769   1.821   5.827   1.413  0.5402 -0.2630 -1.5397
 6858TIP3    H244770   1.764   5.956   1.358 -0.0678  0.4518  0.6673
 6859TIP3   OH244771   2.279   4.216   0.713  0.6045  0.1027 -0.6164
 6859TIP3    H144772   2.216   4.145   0.700  2.3779 -1.4760 -0.9337
 6859TIP3    H244773   2.277   4.233   0.807  0.0243 -0.2138 -0.5683
 6860TIP3   OH244774   2.977   3.790   1.578  0.2786  0.1776 -0.1695
 6860TIP3    H144775   2.943   3.756   1.660 -0.3391  0.1734 -0.4180
 6860TIP3    H244776   2.927   3.745   1.510  0.5161  0.4575 -0.5390
 6861TIP3   OH244777   5.791   6.561   2.830 -0.1293  0.0370  0.0588
 6861TIP3    H144778   5.751   6.535   2.914  1.2373  0.0904  0.7589
 6861TIP3    H244779   5.826   6.479   2.795  1.1697  0.3204  0.6068
 6862TIP3   OH244780   5.558   1.468   1.861  0.2616 -0.1471 -0.1616
 6862TIP3    H144781   5.610   1.490   1.783  0.3819  0.9105  0.1929
 6862TIP3    H244782   5.483   1.419   1.828  2.1066 -2.9398 -0.5794
 6863TIP3   OH244783   2.220   2.698   1.314  0.3206 -0.0554  0.0555
 6863TIP3    H144784   2.145   2.702   1.373  0.4805  2.6913  0.1872
 6863TIP3    H244785   2.249   2.607   1.319 -1.8499 -0.7522  1.4140
 6864TIP3   OH244786   3.228   2.559   1.318 -0.2624  0.5297  0.1924
 6864TIP3    H144787   3.175   2.604   1.384 -0.1047 -0.9884  1.3923
 6864TIP3    H244788   3.168   2.543   1.246 -0.8372  0.8512  0.5891
 6865TIP3   OH244789   5.383   2.168   1.386  0.3940 -0.4282 -0.0196
 6865TIP3    H144790   5.327   2.135   1.316  2.6265 -1.8460 -1.2884
 6865TIP3    H244791   5.419   2.089   1.427 -0.1741  0.3962  2.1819
 6866TIP3   OH244792   0.685   4.116   2.226  0.0210  0.4636  0.6377
 6866TIP3    H144793   0.653   4.085   2.310  0.0750  0.2030  0.5616
 6866TIP3    H244794   0.620   4.087   2.162  0.9019 -0.9622  0.3443
 6867TIP3   OH244795   1.608   1.303   1.567 -0.3723 -0.0754  0.1226
 6867TIP3    H144796   1.534   1.282   1.510 -0.7645 -1.5156  1.1061
 6867TIP3    H244797   1.671   1.348   1.510 -1.1416 -0.6305 -1.1984
 6868TIP3   OH244798   7.101   4.762   1.857  0.1051 -0.0157  0.2863
 6868TIP3    H144799   7.024   4.733   1.808  1.0570  0.5329 -1.6209
 6868TIP3    H244800   7.079   4.849   1.888  0.0692  0.2918 -0.5724
 6869TIP3   OH244801   4.168   2.551   2.744 -0.0779  0.0825  0.0111
 6869TIP3    H144802   4.225   2.555   2.820  0.2596 -0.3281 -0.2142
 6869TIP3    H244803   4.081   2.535   2.780  0.2240 -1.0782  0.2707
 6870TIP3   OH244804   6.363   3.259   1.746 -0.5304  0.1972 -0.2201
 6870TIP3    H144805   6.415   3.190   1.706 -1.2656  0.1955 -1.2355
 6870TIP3    H244806   6.274   3.245   1.711 -1.4528 -0.3815  2.1639
 6871TIP3   OH244807   5.536   2.979   0.842 -0.0234 -0.6621  0.5832
 6871TIP3    H144808   5.575   2.914   0.783  1.7909 -0.0195  1.0182
 6871TIP3    H244809   5.540   2.939   0.928  1.9712  0.3206  1.0042
 6872TIP3   OH244810   0.201   7.493   1.383 -0.2663 -0.3923  0.4136
 6872TIP3    H144811   0.203   7.553   1.458 -0.2540 -0.5949  0.5743
 6872TIP3    H244812   0.251   7.539   1.315 -2.1471  0.8245 -0.2429
 6873TIP3   OH244813   1.439   5.231   2.257 -0.1748 -0.3827  0.3135
 6873TIP3    H144814   1.359   5.197   2.297 -0.0624 -0.3853  0.5328
 6873TIP3    H244815   1.427   5.326   2.257 -0.5308 -0.4209 -0.3867
 6874TIP3   OH244816   6.125   0.862   2.029  0.1664 -0.1631  0.4552
 6874TIP3    H144817   6.168   0.889   2.110  1.0398 -2.3703  0.8193
 6874TIP3    H244818   6.180   0.899   1.959  0.0991  0.7448  0.8712
 6875TIP3   OH244819   6.687   3.046   0.584  0.9353 -0.1498  0.9861
 6875TIP3    H144820   6.596   3.023   0.569  0.9533  0.5048 -0.2211
 6875TIP3    H244821   6.736   2.967   0.559  0.8255  0.2320 -0.5280
 6876TIP3   OH244822   3.680   0.969   2.670 -0.3545 -0.1886  0.1378
 6876TIP3    H144823   3.692   0.905   2.741  1.4760 -0.1050 -0.0291
 6876TIP3    H244824   3.744   0.942   2.604 -1.1242  0.5126 -0.9094
 6877TIP3   OH244825   6.786   0.814   1.851 -0.5089 -0.1073 -0.2063
 6877TIP3    H144826   6.870   0.783   1.819  1.2490  3.1402  0.8116
 6877TIP3    H244827   6.762   0.752   1.920  2.5320  0.3701  1.4389
 6878TIP3   OH244828   0.122   1.517   1.615 -0.0318  0.1151 -0.0597
 6878TIP3    H144829   0.092   1.426   1.613 -0.6457  0.2399  1.6303
 6878TIP3    H244830   0.127   1.543   1.523  3.5929 -2.6689 -0.8952
 6879TIP3   OH244831   0.952   0.577   2.118  0.2492  0.1400  0.2635
 6879TIP3    H144832   0.972   0.554   2.209  2.2561  1.0660  0.0973
 6879TIP3    H244833   0.861   0.607   2.121 -0.1458 -1.0578  1.7082
 6880TIP3   OH244834   3.437   4.964   2.499 -0.0525 -0.1487 -0.2093
 6880TIP3    H144835   3.440   5.029   2.569  0.4708 -0.4475  0.0515
 6880TIP3    H244836   3.410   4.883   2.542 -0.3743 -0.1824 -0.4725
 6881TIP3   OH244837   5.019   5.473   2.481 -1.0971 -0.0139  0.3772
 6881TIP3    H144838   4.936   5.448   2.522 -0.8579 -0.0569  0.8356
 6881TIP3    H244839   5.007   5.564   2.454 -0.2546  1.0281  3.2084
 6882TIP3   OH244840   2.662   3.064   2.422 -0.3801 -0.0455  0.3342
 6882TIP3    H144841   2.597   3.009   2.379  1.1876 -1.4721 -0.3154
 6882TIP3    H244842   2.727   3.081   2.354  0.3679  0.6086  1.2011
 6883TIP3   OH244843   1.490   2.972   2.127 -0.4257 -0.4123  0.3050
 6883TIP3    H144844   1.525   3.058   2.104  1.2458 -0.8531  1.0958
 6883TIP3    H244845   1.396   2.987   2.136 -0.0479  1.5968  1.5803
 6884TIP3   OH244846   4.168   3.726   0.929  0.6478 -0.0965  0.1200
 6884TIP3    H144847   4.253   3.682   0.936  0.4165 -0.5023  0.3830
 6884TIP3    H244848   4.190   3.815   0.901  1.0527 -0.7141 -1.6649
 6885TIP3   OH244849   0.071   7.088   1.902  0.4830  0.0531  0.5838
 6885TIP3    H144850  -0.015   7.083   1.943  1.1898 -0.2605  2.0680
 6885TIP3    H244851   0.117   7.010   1.933  1.4409  0.4158  0.0998
 6886TIP3   OH244852   6.999   7.379   1.796  0.6273  0.6862  0.1285
 6886TIP3    H144853   6.982   7.346   1.884 -0.6081  1.1277  0.0716
 6886TIP3    H244854   7.037   7.466   1.809  0.0906  0.9099  0.2326
 6887TIP3   OH244855   2.179   1.724   0.626  0.5556 -0.1733 -0.1876
 6887TIP3    H144856   2.200   1.794   0.688  0.7171 -0.0858 -0.3396
 6887TIP3    H244857   2.225   1.749   0.545  1.5427 -1.0235  0.0911
 6888TIP3   OH244858   1.398   1.164   1.732 -0.3991  0.4351  0.4789
 6888TIP3    H144859   1.492   1.182   1.745  0.2705 -1.7592 -0.8136
 6888TIP3    H244860   1.366   1.239   1.681  0.5196  1.4096  1.2743
 6889TIP3   OH244861   6.063   3.525   2.152 -0.2895  0.1772  0.2974
 6889TIP3    H144862   6.021   3.488   2.074  1.6608  0.6298 -1.0462
 6889TIP3    H244863   6.088   3.449   2.204  1.9016 -0.4119 -1.4752
 6890TIP3   OH244864   7.121   7.566   1.400  0.1501  0.3312  0.5470
 6890TIP3    H144865   7.215   7.561   1.417 -0.0150 -1.5958  1.0948
 6890TIP3    H244866   7.081   7.557   1.486 -0.5556 -1.9699  0.0476
 6891TIP3   OH244867   0.043   4.642   1.411  0.3102 -0.1264  0.6092
 6891TIP3    H144868   0.055   4.619   1.319 -0.4001  0.6497  0.3122
 6891TIP3    H244869  -0.023   4.712   1.411  0.6052  0.1814  1.6726
 6892TIP3   OH244870   2.736   2.942   3.252  0.5654  0.0635  0.1130
 6892TIP3    H144871   2.749   3.036   3.239 -1.6452  0.2276 -1.6603
 6892TIP3    H244872   2.644   2.935   3.279  0.3096 -1.6341 -1.0608
 6893TIP3   OH244873   0.315   5.435   1.317 -0.7135 -0.0525 -0.5317
 6893TIP3    H144874   0.229   5.421   1.358 -0.9196 -2.3344 -1.6036
 6893TIP3    H244875   0.299   5.502   1.251 -1.3622  0.5069  0.1762
 6894TIP3   OH244876   3.400   1.221   1.898 -0.2911  0.2668  0.2983
 6894TIP3    H144877   3.488   1.258   1.902 -0.9041  2.0151 -1.1278
 6894TIP3    H244878   3.360   1.245   1.982 -0.0660  1.2619  0.1312
 6895TIP3   OH244879   2.357   6.630   1.937 -0.1671  0.7642  0.0108
 6895TIP3    H144880   2.447   6.598   1.937 -0.2412  0.4222 -2.0865
 6895TIP3    H244881   2.312   6.574   2.001  0.0995 -2.2533 -2.2490
 6896TIP3   OH244882   6.940   3.324   1.971  0.1616 -0.4789  0.0560
 6896TIP3    H144883   6.969   3.399   2.022 -0.8513 -0.5691  0.7986
 6896TIP3    H244884   7.009   3.311   1.906  1.3477 -0.1914  1.2197
 6897TIP3   OH244885   3.341   7.517   2.146 -0.3044  0.0833 -0.3148
 6897TIP3    H144886   3.436   7.521   2.149 -0.2532 -1.1562  0.2074
 6897TIP3    H244887   3.322   7.432   2.105 -1.1882  0.5926 -0.9924
 6898TIP3   OH244888   5.589   7.039   0.509 -0.3636 -0.0069 -0.3752
 6898TIP3    H144889   5.635   7.058   0.591 -0.2653  0.3466 -0.5088
 6898TIP3    H244890   5.534   7.116   0.495  0.0580  0.1970 -0.9429
 6899TIP3   OH244891   4.730   2.623   1.387  0.0788  0.4493  0.3889
 6899TIP3    H144892   4.705   2.641   1.296  2.4283  0.2817 -0.3523
 6899TIP3    H244893   4.756   2.531   1.387 -2.3945 -0.3409  1.8966
 6900TIP3   OH244894   3.208   4.664   0.721  0.1444 -0.4304 -0.4789
 6900TIP3    H144895   3.300   4.689   0.710  0.4799 -0.2465  2.0870
 6900TIP3    H244896   3.208   4.568   0.712  0.9454 -0.6267  1.2430
 6901TIP3   OH244897   1.491   0.366   1.838 -0.4034  0.1452 -0.2103
 6901TIP3    H144898   1.466   0.458   1.828 -1.8692 -0.1045  0.7705
 6901TIP3    H244899   1.461   0.325   1.757 -0.0532  0.4740 -0.5080
 6902TIP3   OH244900   3.462   1.470   1.019 -0.6919  0.1221  0.2854
 6902TIP3    H144901   3.368   1.462   1.000 -0.3111 -1.9832 -1.0072
 6902TIP3    H244902   3.495   1.380   1.017  1.0122  0.5845  2.8088
 6903TIP3   OH244903   1.798   5.422   1.525  0.0769 -0.6937  0.4159
 6903TIP3    H144904   1.861   5.362   1.563 -0.1148  0.4841  2.7993
 6903TIP3    H244905   1.827   5.509   1.554 -0.4446  0.2751 -1.7207
 6904TIP3   OH244906   6.982   2.878   1.440  0.0380  0.0762 -0.1190
 6904TIP3    H144907   7.035   2.898   1.363  1.1613 -0.1702  0.5759
 6904TIP3    H244908   7.029   2.919   1.513 -1.1615  0.5580  0.4100
 6905TIP3   OH244909   2.439   0.586   0.495  0.7964  0.3985 -0.3429
 6905TIP3    H144910   2.347   0.609   0.485  1.1467  2.1835  0.1356
 6905TIP3    H244911   2.477   0.599   0.409  0.6131 -0.2798 -0.5264
 6906TIP3   OH244912   5.894   4.848   1.895  0.1950  0.4661  0.3992
 6906TIP3    H144913   5.870   4.934   1.931 -0.4570  0.1907  0.6378
 6906TIP3    H244914   5.844   4.841   1.814 -0.5397 -0.0956  0.8801
 6907TIP3   OH244915   1.345   1.544   1.885  0.4196  0.4373  0.0141
 6907TIP3    H144916   1.367   1.619   1.941  2.2321  1.3243 -1.7904
 6907TIP3    H244917   1.382   1.565   1.800 -0.6002 -1.7379 -1.0550
 6908TIP3   OH244918   4.445   1.655   3.356  0.5006 -0.3412  0.6266
 6908TIP3    H144919   4.533   1.662   3.393  1.4791 -0.9907 -1.4410
 6908TIP3    H244920   4.450   1.583   3.293 -0.8999  0.9944 -1.1395
 6909TIP3   OH244921   3.069   4.367   0.952 -0.7209 -0.5523 -0.6223
 6909TIP3    H144922   3.066   4.328   1.039  0.5636 -0.4781 -0.5220
 6909TIP3    H244923   2.985   4.413   0.943 -0.7730 -0.3610  0.6605
 6910TIP3   OH244924   0.480   4.149   0.566 -0.1005  0.3506 -0.2732
 6910TIP3    H144925   0.487   4.083   0.636 -1.8201 -1.2853 -1.5238
 6910TIP3    H244926   0.386   4.170   0.563 -0.4622 -1.1466 -3.3002
 6911TIP3   OH244927   7.305   4.596   1.986 -0.1826  0.1753  0.3792
 6911TIP3    H144928   7.389   4.639   2.003 -0.0164  0.2126 -0.5235
 6911TIP3    H244929   7.243   4.669   1.975  0.1004  0.1998 -1.1577
 6912TIP3   OH244930   3.018   0.030   1.049  0.2883 -0.0469  0.1050
 6912TIP3    H144931   3.055   0.118   1.055 -0.0315  0.0856  0.1314
 6912TIP3    H244932   3.094  -0.028   1.051  0.5261  0.2459 -0.3371
 6913TIP3   OH244933   7.441   3.282   2.505  1.0393  0.4589 -0.2535
 6913TIP3    H144934   7.533   3.302   2.521  1.3801  0.1264 -1.6188
 6913TIP3    H244935   7.426   3.312   2.415  0.0709 -0.3421 -0.3732
 6914TIP3   OH244936   1.812   1.618   2.819  0.2209 -0.0146 -0.1936
 6914TIP3    H144937   1.906   1.631   2.803 -0.0461  0.1781 -1.8525
 6914TIP3    H244938   1.775   1.706   2.820 -0.1225 -0.1367 -0.9969
 6915TIP3   OH244939   6.025   6.828   2.522  0.8416 -0.0978 -0.2882
 6915TIP3    H144940   6.013   6.869   2.607  1.1460  0.4695 -0.5186
 6915TIP3    H244941   5.944   6.778   2.509  1.7687 -2.2198  1.4285
 6916TIP3   OH244942   5.809   7.153   1.798  0.4989 -0.2351  0.3819
 6916TIP3    H144943   5.821   7.059   1.789  0.3015 -0.1519 -0.9754
 6916TIP3    H244944   5.885   7.191   1.753  0.6854  0.2600  1.0964
 6917TIP3   OH244945   2.791   1.363   2.103  0.6145  0.0291 -0.6529
 6917TIP3    H144946   2.791   1.279   2.057  1.1242  1.0200 -2.5379
 6917TIP3    H244947   2.870   1.407   2.072  0.3437  1.2416  0.2952
 6918TIP3   OH244948   1.364   1.786   1.996 -0.0015  0.2218 -0.2818
 6918TIP3    H144949   1.368   1.878   1.968 -2.0303  0.9027  1.3381
 6918TIP3    H244950   1.385   1.789   2.090  1.5537 -1.2466 -0.5303
 6919TIP3   OH244951   4.692   6.044   0.574 -0.1767  0.3136  0.4556
 6919TIP3    H144952   4.685   5.982   0.647 -1.0430  0.1413  0.2417
 6919TIP3    H244953   4.773   6.020   0.530  0.1653  0.1806  1.1468
 6920TIP3   OH244954   5.421   3.306   1.647 -0.5016 -0.6222 -0.7075
 6920TIP3    H144955   5.346   3.325   1.591  0.0287 -0.3977 -1.3470
 6920TIP3    H244956   5.451   3.391   1.678 -0.2820 -0.6835 -0.7501
 6921TIP3   OH244957   2.481   6.326   1.207 -0.9424 -0.1819  0.1844
 6921TIP3    H144958   2.491   6.404   1.152 -2.5495  0.1838  0.3580
 6921TIP3    H244959   2.389   6.303   1.199 -1.0286 -0.6401  2.0240
 6922TIP3   OH244960   2.204   0.409   1.333 -0.0435 -0.1736 -0.5328
 6922TIP3    H144961   2.243   0.346   1.272  0.7000 -2.7022  2.2962
 6922TIP3    H244962   2.132   0.447   1.284 -0.4035 -3.1020 -2.5821
 6923TIP3   OH244963   2.967   5.733   1.624  0.2177 -0.4547  0.1045
 6923TIP3    H144964   2.974   5.763   1.533  1.4679  1.3362  0.7463
 6923TIP3    H244965   3.042   5.772   1.668 -2.0160  1.3575  2.5988
 6924TIP3   OH244966   2.883   3.185   2.632 -0.3446  0.5998 -0.4430
 6924TIP3    H144967   2.817   3.195   2.701  0.8425  0.2094  0.8098
 6924TIP3    H244968   2.877   3.093   2.607 -1.4161  0.9501 -1.5788
 6925TIP3   OH244969   1.256   1.931   0.797 -0.2926 -0.0492  0.0591
 6925TIP3    H144970   1.305   2.012   0.809 -1.1612  0.5121 -0.0684
 6925TIP3    H244971   1.302   1.885   0.726  1.4475 -0.6888  1.5117
 6926TIP3   OH244972   1.316   3.217   3.486 -0.0652  0.1681 -0.7611
 6926TIP3    H144973   1.307   3.256   3.398  0.4084  0.3158 -0.7482
 6926TIP3    H244974   1.332   3.292   3.543 -0.0344  0.0379 -0.6006
 6927TIP3   OH244975   5.473   5.903   2.303 -0.9119 -0.2384  0.0353
 6927TIP3    H144976   5.510   5.964   2.366 -1.6130  0.3727 -0.1259
 6927TIP3    H244977   5.380   5.924   2.302 -0.9323 -0.3305 -1.0979
 6928TIP3   OH244978   5.585   0.642   1.326  0.5224  0.1480  0.2038
 6928TIP3    H144979   5.540   0.660   1.243 -0.6713  0.3769  0.8742
 6928TIP3    H244980   5.669   0.605   1.300 -0.3023 -0.9034 -1.0969
 6929TIP3   OH244981   5.497   4.445   1.302  0.2071  0.0960 -0.2839
 6929TIP3    H144982   5.445   4.517   1.265  0.4304  0.0140 -0.7579
 6929TIP3    H244983   5.479   4.370   1.245  1.5655  0.3024 -1.0293
 6930TIP3   OH244984   2.947   5.321   1.261  0.2246  0.0812  0.5008
 6930TIP3    H144985   2.997   5.312   1.180  0.1490 -0.7939  0.5392
 6930TIP3    H244986   2.860   5.347   1.232 -0.1520 -1.4329  0.1833
 6931TIP3   OH244987   3.387   3.424   1.565  0.2697 -0.1299  0.2725
 6931TIP3    H144988   3.294   3.448   1.555  0.5671  0.2308 -2.2011
 6931TIP3    H244989   3.433   3.507   1.564  0.7746 -0.3925 -1.1816
 6932TIP3   OH244990   1.733   0.565   2.258 -0.5434  0.1975  0.6781
 6932TIP3    H144991   1.706   0.532   2.173  0.1622  2.0131 -0.2859
 6932TIP3    H244992   1.805   0.508   2.285  0.0705  0.3648 -0.5431
 6933TIP3   OH244993   2.603   1.985   1.244 -0.0200  0.0284  0.2070
 6933TIP3    H144994   2.544   2.005   1.316  2.3833  0.7636  2.0966
 6933TIP3    H244995   2.607   2.066   1.193 -0.2191  0.1521  0.3878
 6934TIP3   OH244996   7.293   6.561   3.004 -0.4935 -0.3208 -0.1300
 6934TIP3    H144997   7.318   6.499   3.073 -0.9395 -1.3939 -0.8989
 6934TIP3    H244998   7.374   6.574   2.954  0.0904  1.2522  1.1581
 6935TIP3   OH244999   5.125   6.637   1.549  0.0296 -0.2902  0.5319
 6935TIP3    H145000   5.168   6.589   1.620  2.3269 -0.7646 -1.0547
 6935TIP3    H245001   5.155   6.592   1.469 -1.9057  0.6355 -0.7907
 6936TIP3   OH245002   2.696   5.390   1.508  0.4928  0.2185  0.2105
 6936TIP3    H145003   2.784   5.360   1.485  1.1192  0.7844  1.7262
 6936TIP3    H245004   2.672   5.450   1.438  3.0690  3.2965  1.7322
 6937TIP3   OH245005   4.431   2.468   1.206 -0.6823 -0.3756 -0.0767
 6937TIP3    H145006   4.473   2.521   1.138  1.2910 -2.1455 -0.3577
 6937TIP3    H245007   4.346   2.445   1.169 -0.9299  1.2094 -0.5982
 6938TIP3   OH245008   6.929   4.619   0.901 -0.0069  0.0262  0.0689
 6938TIP3    H145009   6.887   4.655   0.823 -0.4164 -1.0619 -0.2315
 6938TIP3    H245010   6.860   4.568   0.943  0.4198  0.0073  0.7592
 6939TIP3   OH245011   1.104   6.955   2.250  0.3654 -0.7207  0.1186
 6939TIP3    H145012   1.010   6.938   2.251  0.4706 -1.3178  0.1776
 6939TIP3    H245013   1.115   7.022   2.183 -0.2872  0.5514  1.2385
 6940TIP3   OH245014   3.586   5.935   0.780  0.0624 -0.1862  0.1892
 6940TIP3    H145015   3.620   5.861   0.729  0.7104  0.1261  0.1586
 6940TIP3    H245016   3.512   5.968   0.728  0.3093 -0.2760 -0.2281
 6941TIP3   OH245017   6.153   4.991   1.104 -0.1987  0.0620 -0.0026
 6941TIP3    H145018   6.243   4.986   1.137 -0.0206  0.4684 -0.4183
 6941TIP3    H245019   6.146   5.078   1.065 -0.4653 -0.3329 -0.8514
 6942TIP3   OH245020   0.869   2.556   2.485  0.0643 -0.1567 -0.0073
 6942TIP3    H145021   0.839   2.526   2.399 -0.8801 -3.2696  1.2694
 6942TIP3    H245022   0.932   2.490   2.513  0.7167  1.0402  1.5416
 6943TIP3   OH245023   7.142   7.662   0.449  0.1378 -0.1745 -0.6952
 6943TIP3    H145024   7.131   7.742   0.399  1.6578  0.7034  0.3013
 6943TIP3    H245025   7.101   7.680   0.534  1.4495 -0.0297 -0.0762
 6944TIP3   OH245026   7.616   5.283   1.593 -0.3251  0.2016  0.5721
 6944TIP3    H145027   7.572   5.272   1.508 -0.8158 -1.1157  0.9780
 6944TIP3    H245028   7.546   5.309   1.653  0.3498  3.2822  0.2118
 6945TIP3   OH245029   6.850   2.376   2.788  0.0788  0.0607  0.2441
 6945TIP3    H145030   6.810   2.313   2.848  0.2426  0.3144  0.6241
 6945TIP3    H245031   6.818   2.351   2.701 -0.2689 -0.2238  0.4548
 6946TIP3   OH245032   5.171   0.940   0.874  0.1006 -0.0229  0.3861
 6946TIP3    H145033   5.101   0.886   0.910  0.1915 -0.6608 -0.3615
 6946TIP3    H245034   5.228   0.878   0.828  1.5569  0.3728  1.5622
 6947TIP3   OH245035   5.108   4.058   1.777  0.4304  0.5367  0.6745
 6947TIP3    H145036   5.084   3.973   1.813  0.2521  0.0363 -0.5709
 6947TIP3    H245037   5.055   4.121   1.827  0.0694 -0.1414  1.1557
 6948TIP3   OH245038   5.690   6.055   1.347 -0.3481  0.3490 -0.4950
 6948TIP3    H145039   5.763   6.099   1.305 -1.7749 -0.0195 -3.6670
 6948TIP3    H245040   5.707   5.962   1.334  0.1577  0.0952  1.6562
 6949TIP3   OH245041   2.795   3.654   1.774 -0.3606 -0.0797  0.2223
 6949TIP3    H145042   2.736   3.656   1.849 -1.9696  1.7188 -0.9875
 6949TIP3    H245043   2.799   3.562   1.749  0.2820 -0.7397  2.5006
 6950TIP3   OH245044   1.767   5.239   2.570  0.6122 -0.0556  0.1184
 6950TIP3    H145045   1.829   5.252   2.642  1.6828 -1.8444 -0.4369
 6950TIP3    H245046   1.715   5.163   2.597  0.7301 -0.4683 -0.7976
 6951TIP3   OH245047   3.389   3.273   0.812  0.1625 -0.0759  0.5441
 6951TIP3    H145048   3.436   3.190   0.823 -2.2359 -1.5997  0.1132
 6951TIP3    H245049   3.351   3.267   0.724  1.1749  2.2143 -0.1290
 6952TIP3   OH245050   3.948   1.202   0.566  0.0781 -0.1465  0.1724
 6952TIP3    H145051   3.905   1.283   0.594 -0.9959 -1.2617  1.9227
 6952TIP3    H245052   4.039   1.214   0.590  0.2688  1.1568 -1.0616
 6953TIP3   OH245053   3.851   1.157   2.827  0.4537  0.5279 -0.0407
 6953TIP3    H145054   3.861   1.232   2.768 -0.6071  1.5421  1.0186
 6953TIP3    H245055   3.811   1.089   2.773 -0.1855  1.3227 -0.5904
 6954TIP3   OH245056   2.596   7.010   0.975  0.2683 -0.2499  0.4030
 6954TIP3    H145057   2.554   7.029   0.891  0.8515 -0.9820 -0.0707
 6954TIP3    H245058   2.545   6.937   1.011  0.1212 -0.0467  0.6072
 6955TIP3   OH245059   1.373   0.624   0.566 -0.0693  0.6974 -0.5108
 6955TIP3    H145060   1.295   0.640   0.619  1.2252  0.1291  1.7205
 6955TIP3    H245061   1.369   0.531   0.544  0.8838  0.1587  1.3374
 6956TIP3   OH245062   5.452   6.504   3.336  0.4944  0.1667  1.3566
 6956TIP3    H145063   5.485   6.419   3.309  0.5588  0.9952 -1.4804
 6956TIP3    H245064   5.359   6.503   3.311  0.9179  1.5210 -0.4768
 6957TIP3   OH245065   6.697   4.546   2.882  0.1179 -0.1065 -0.0739
 6957TIP3    H145066   6.707   4.542   2.977 -2.4031  0.1831  0.2637
 6957TIP3    H245067   6.644   4.624   2.866 -2.3400 -1.9089 -1.3917
 6958TIP3   OH245068   1.720   3.062   0.677 -0.0348  0.4763 -0.5178
 6958TIP3    H145069   1.698   3.099   0.591 -0.4037 -0.2638 -0.7494
 6958TIP3    H245070   1.721   3.138   0.736 -1.6925  0.7670 -0.8032
 6959TIP3   OH245071   6.384   5.235   0.841 -0.3105 -0.0943 -0.3252
 6959TIP3    H145072   6.309   5.221   0.900 -0.8583 -1.6063 -1.3074
 6959TIP3    H245073   6.406   5.147   0.810  0.3564  0.5887 -1.8819
 6960TIP3   OH245074   7.042   3.609   2.715  0.0022 -0.1074 -0.2151
 6960TIP3    H145075   7.050   3.605   2.810  1.3948  2.0421 -0.1845
 6960TIP3    H245076   6.949   3.593   2.699 -1.0489  3.0618  1.8376
 6961TIP3   OH245077   2.495   6.756   2.286  0.1701  0.0567 -0.4630
 6961TIP3    H145078   2.432   6.806   2.337 -0.4382  1.0945 -2.1631
 6961TIP3    H245079   2.574   6.811   2.284  0.2206 -0.0181 -0.5598
 6962TIP3   OH245080   1.463   2.789   1.722  0.0052  0.2781  0.5792
 6962TIP3    H145081   1.370   2.772   1.704  0.0161 -0.4526  1.1184
 6962TIP3    H245082   1.467   2.882   1.743 -0.5537  0.3857  0.2342
 6963TIP3   OH245083   2.614   1.334   1.593 -0.6007  0.3964 -0.1043
 6963TIP3    H145084   2.619   1.302   1.683 -0.3749  0.8961  0.0625
 6963TIP3    H245085   2.678   1.405   1.589  1.9520 -1.8273 -1.5884
 6964TIP3   OH245086   2.604   4.518   0.450 -0.6100 -0.2932  0.7218
 6964TIP3    H145087   2.684   4.562   0.480 -2.4386  3.0735  1.0558
 6964TIP3    H245088   2.602   4.437   0.501  2.5327 -0.5559  0.6831
 6965TIP3   OH245089   0.848   5.076   1.882  0.0144  0.0080  0.5395
 6965TIP3    H145090   0.757   5.049   1.870  0.5053 -1.9715  0.9429
 6965TIP3    H245091   0.848   5.169   1.862 -1.8157 -0.2505 -0.9226
 6966TIP3   OH245092   6.511   0.013   3.450 -0.0226  0.0037  0.4163
 6966TIP3    H145093   6.553   0.094   3.421 -0.7699 -0.7025 -3.1410
 6966TIP3    H245094   6.423   0.016   3.413 -0.7581 -1.6163  1.8588
 6967TIP3   OH245095   3.416   6.545   1.764  0.0049 -0.3891  0.4140
 6967TIP3    H145096   3.414   6.641   1.759 -1.9773 -0.4493 -2.2086
 6967TIP3    H245097   3.498   6.520   1.723  0.9477  0.1429  1.8904
 6968TIP3   OH245098   4.266   5.898   1.794  0.1786  0.2223  0.2409
 6968TIP3    H145099   4.271   5.954   1.872 -2.1795  1.7730 -0.6244
 6968TIP3    H245100   4.173   5.891   1.775  0.5416 -2.0803 -1.1368
 6969TIP3   OH245101   5.360   3.736   1.247 -0.1193  0.5536  0.1631
 6969TIP3    H145102   5.352   3.823   1.207 -1.2031 -0.1894 -1.3642
 6969TIP3    H245103   5.272   3.716   1.279  0.4460  0.5777  1.8199
 6970TIP3   OH245104   1.368   0.875   2.679  0.3613  0.4974 -0.2113
 6970TIP3    H145105   1.294   0.829   2.640  1.0080 -0.2611 -0.5710
 6970TIP3    H245106   1.407   0.924   2.607  0.9232 -0.0671 -0.3031
 6971TIP3   OH245107   4.451   4.752   1.297 -0.4451 -0.0443  0.3841
 6971TIP3    H145108   4.502   4.833   1.293 -0.7027  0.0864 -0.7916
 6971TIP3    H245109   4.510   4.688   1.337  1.5534 -0.4732 -2.8809
 6972TIP3   OH245110   1.043   3.708   1.470 -0.1782 -0.6339 -0.9809
 6972TIP3    H145111   1.045   3.804   1.470 -0.3074 -0.4011  3.9431
 6972TIP3    H245112   0.968   3.686   1.413  0.0078  2.0704 -2.4501
 6973TIP3   OH245113   0.143   4.970   0.802  0.5428  0.0462 -0.3741
 6973TIP3    H145114   0.132   5.051   0.853  1.0442 -0.5138  0.6630
 6973TIP3    H245115   0.055   4.931   0.799  0.2285  0.7944 -1.1866
 6974TIP3   OH245116   0.930   4.813   1.895 -0.5056  0.0699  0.2679
 6974TIP3    H145117   0.971   4.795   1.980  3.4113 -1.4152 -1.7202
 6974TIP3    H245118   0.901   4.904   1.902  1.8902  0.7934  2.4671
 6975TIP3   OH245119   5.838   4.785   1.634 -0.0270  0.1087 -0.1755
 6975TIP3    H145120   5.819   4.871   1.595 -0.8223 -0.2058 -0.4970
 6975TIP3    H245121   5.778   4.725   1.590  0.0564 -0.5021  0.5354
 6976TIP3   OH245122   4.450   1.908   2.016  0.1106 -0.0169 -0.5089
 6976TIP3    H145123   4.492   1.847   1.956 -0.5204 -0.3485 -0.6124
 6976TIP3    H245124   4.364   1.872   2.032 -0.2989  0.8752 -0.6203
 6977TIP3   OH245125   2.376   3.882   1.897  0.0061 -0.1122 -0.4565
 6977TIP3    H145126   2.360   3.852   1.987 -0.7444  0.3512 -0.4278
 6977TIP3    H245127   2.292   3.869   1.852  0.6913 -1.4072 -1.4111
 6978TIP3   OH245128   6.595   2.099   1.738  0.2325 -0.1383 -0.0350
 6978TIP3    H145129   6.583   2.025   1.678 -2.2756 -0.1860  0.4296
 6978TIP3    H245130   6.578   2.063   1.825 -0.2886  0.8217  0.2697
 6979TIP3   OH245131   5.447   5.055   2.072  0.1042  0.9464  0.4108
 6979TIP3    H145132   5.373   5.078   2.128  0.5880  0.7674  1.1420
 6979TIP3    H245133   5.445   4.960   2.067  0.8799  0.8583  1.3059
 6980TIP3   OH245134   2.640   3.033   2.944  0.5246  0.1536 -0.1188
 6980TIP3    H145135   2.682   2.969   2.886 -0.4778  1.0128 -1.8548
 6980TIP3    H245136   2.687   3.115   2.928  0.1513  0.4369  0.2067
 6981TIP3   OH245137   6.800   5.325   1.823 -0.0109  0.1420 -0.3592
 6981TIP3    H145138   6.830   5.392   1.762 -1.5877  0.2915 -1.0019
 6981TIP3    H245139   6.721   5.289   1.784  0.3751 -1.6004  0.3374
 6982TIP3   OH245140   1.987   0.607   1.885  0.0956  0.8114 -0.1090
 6982TIP3    H145141   1.950   0.680   1.935 -0.2345  0.6126 -0.0578
 6982TIP3    H245142   1.919   0.540   1.888 -0.2202  1.0475 -1.4281
 6983TIP3   OH245143   7.172   7.520   0.874  0.0386  0.0310  0.3581
 6983TIP3    H145144   7.245   7.522   0.935 -0.0298  1.9854  0.4208
 6983TIP3    H245145   7.180   7.436   0.830  0.3132 -1.2959  2.7514
 6984TIP3   OH245146   4.157   3.437   0.997 -0.3614 -0.3053 -0.3989
 6984TIP3    H145147   4.180   3.412   1.086 -1.4049 -2.1347 -0.5909
 6984TIP3    H245148   4.123   3.526   1.005  1.9788  0.6009  0.5817
 6985TIP3   OH245149   4.862   6.606   1.535 -0.1230  0.3712 -0.2547
 6985TIP3    H145150   4.859   6.615   1.440 -0.4775 -2.9000 -0.6507
 6985TIP3    H245151   4.955   6.614   1.556  0.2453 -0.9812 -1.2001
 6986TIP3   OH245152   4.213   5.548   1.451  0.2354  0.5684  0.0168
 6986TIP3    H145153   4.144   5.538   1.517  1.0503  1.6604  1.0833
 6986TIP3    H245154   4.282   5.488   1.479 -0.1532 -0.3158 -0.8904
 6987TIP3   OH245155   3.543   6.381   1.294  0.1438 -0.0726 -0.1224
 6987TIP3    H145156   3.586   6.372   1.209  0.4712  0.7703 -0.0494
 6987TIP3    H245157   3.515   6.472   1.297 -1.6709 -0.5939 -0.1671
 6988TIP3   OH245158   2.322   7.563   1.337  0.3078  0.2452  0.5954
 6988TIP3    H145159   2.345   7.565   1.429  0.8114  0.5094  0.4666
 6988TIP3    H245160   2.297   7.472   1.320 -0.5711  0.3598  1.1736
 6989TIP3   OH245161   6.798   2.379   2.514 -0.6625  0.0698 -0.1854
 6989TIP3    H145162   6.831   2.294   2.487 -2.4840 -0.7134 -0.0941
 6989TIP3    H245163   6.854   2.442   2.469  2.4438 -1.0618  1.7751
 6990TIP3   OH245164   2.050   3.843   3.391 -0.2275  0.7402 -0.6138
 6990TIP3    H145165   2.124   3.903   3.403 -0.6660  1.4765 -1.4234
 6990TIP3    H245166   1.993   3.861   3.465  0.4758  0.0468  0.1071
 6991TIP3   OH245167   7.279   6.486   1.911  0.1604 -0.0176  0.1890
 6991TIP3    H145168   7.331   6.432   1.971  1.2987  0.0833 -0.6690
 6991TIP3    H245169   7.289   6.575   1.944 -0.8247 -0.1815  0.9702
 6992TIP3   OH245170   6.349   0.713   1.504  0.0659  0.1714  0.5327
 6992TIP3    H145171   6.363   0.714   1.598  1.8508  0.5416  0.2831
 6992TIP3    H245172   6.436   0.713   1.466 -0.6213  0.1076 -1.1345
 6993TIP3   OH245173   0.918   4.087   2.075  0.4360  0.6025 -0.1870
 6993TIP3    H145174   0.847   4.106   2.135  0.3703  1.1399 -0.4300
 6993TIP3    H245175   0.876   4.048   1.999  0.5703 -0.5824  0.3119
 6994TIP3   OH245176   1.766   4.135   3.105 -0.3098  0.1672 -0.5079
 6994TIP3    H145177   1.704   4.062   3.103 -0.3239  0.1907 -1.4042
 6994TIP3    H245178   1.850   4.096   3.080  0.5085 -0.2592  2.5783
 6995TIP3   OH245179   5.685   1.251   1.610 -0.3227  0.2757 -0.0573
 6995TIP3    H145180   5.773   1.247   1.574 -0.6413 -0.0880 -0.8046
 6995TIP3    H245181   5.691   1.204   1.693  0.7442  2.3214  1.1277
 6996TIP3   OH245182   6.236   0.947   2.314 -0.4261  0.1839 -1.0450
 6996TIP3    H145183   6.231   1.008   2.388 -0.4701 -0.3969 -0.5674
 6996TIP3    H245184   6.329   0.940   2.295 -0.3697 -0.1476 -0.6451
 6997TIP3   OH245185   0.998   3.380   3.976  0.0166 -0.5131 -0.1519
 6997TIP3    H145186   1.017   3.464   3.933  0.1521 -0.9974 -1.0652
 6997TIP3    H245187   1.082   3.335   3.979 -0.1039 -0.7215  0.0977
 6998TIP3   OH245188   7.005   0.891   1.006  0.1126  0.6463 -0.2225
 6998TIP3    H145189   7.054   0.924   0.930 -1.0817  0.6839 -0.9884
 6998TIP3    H245190   7.074   0.867   1.069  1.3100 -1.8889 -2.2864
 6999TIP3   OH245191   1.759   0.731   2.489  0.4377  0.1841  0.7692
 6999TIP3    H145192   1.765   0.674   2.565  0.1825  0.3251  0.8940
 6999TIP3    H245193   1.724   0.675   2.420 -1.4924  0.6244  1.3493
 7000TIP3   OH245194   2.320   4.608   1.072  0.2043 -0.6340  0.2370
 7000TIP3    H145195   2.376   4.623   1.148 -0.1967  0.2682  0.3744
 7000TIP3    H245196   2.247   4.670   1.083  0.5035  0.0353 -1.2351
 7001TIP3   OH245197   2.186   1.765   1.800 -0.0180  0.1046 -0.5585
 7001TIP3    H145198   2.230   1.754   1.716  0.1956  0.0778 -0.4463
 7001TIP3    H245199   2.257   1.785   1.861 -0.2243  0.6066 -0.4747
 7002TIP3   OH245200   0.308   3.593   2.453 -0.3991  0.4937 -0.7312
 7002TIP3    H145201   0.257   3.515   2.430  0.1004 -0.2279  0.4986
 7002TIP3    H245202   0.310   3.645   2.372 -1.2470 -0.4765 -1.4086
 7003TIP3   OH245203   7.227   2.317   1.710 -0.1236 -0.0615  0.1919
 7003TIP3    H145204   7.289   2.386   1.732  0.6363 -0.8718  0.6416
 7003TIP3    H245205   7.273   2.236   1.730 -0.4896 -0.7618 -1.6017
 7004TIP3   OH245206   7.586   3.473   1.249  0.1319 -0.4568 -0.2250
 7004TIP3    H145207   7.598   3.432   1.335 -1.3260  3.5564  2.1771
 7004TIP3    H245208   7.667   3.521   1.233 -0.7951  1.5794  0.7519
 7005TIP3   OH245209   6.894   5.105   1.631 -0.0621  0.2210  0.0427
 7005TIP3    H145210   6.859   5.115   1.720  0.1684  1.6072 -0.0009
 7005TIP3    H245211   6.836   5.042   1.589 -0.3978 -0.1694  1.0499
 7006TIP3   OH245212   0.094   7.030   1.310 -0.7624  0.1523 -0.3558
 7006TIP3    H145213   0.053   6.962   1.256  0.5447 -1.2730  0.3561
 7006TIP3    H245214   0.076   7.002   1.400 -1.6174  1.6775 -0.0295
 7007TIP3   OH245215   2.246   3.728   1.614 -0.3941  0.0193 -0.1273
 7007TIP3    H145216   2.204   3.723   1.699  0.4653 -1.0551  0.2589
 7007TIP3    H245217   2.236   3.641   1.577  0.6151  0.0201 -0.4380
 7008TIP3   OH245218   0.538   3.228   1.839 -0.0905 -0.0852  0.2742
 7008TIP3    H145219   0.484   3.290   1.888  0.4405  0.4720  0.1670
 7008TIP3    H245220   0.616   3.278   1.815  0.0719 -0.6196 -0.3429
 7009TIP3   OH245221   6.063   7.587   2.096  0.2126 -0.0638  0.1814
 7009TIP3    H145222   6.028   7.595   2.008  0.0854  0.5523  0.2870
 7009TIP3    H245223   6.156   7.611   2.088  0.0552  0.6236  0.3220
 7010TIP3   OH245224   3.157   5.735   1.095  0.6322  0.0996  0.6322
 7010TIP3    H145225   3.228   5.673   1.112  2.2183  1.7165  0.2199
 7010TIP3    H245226   3.102   5.692   1.030  1.7974 -0.7937  0.2060
 7011TIP3   OH245227   1.012   0.928   1.994  0.6650  0.1910  0.4314
 7011TIP3    H145228   0.963   0.922   1.912  1.1693  0.4773  0.1052
 7011TIP3    H245229   1.078   0.994   1.977  0.5141  0.5464  1.2098
 7012TIP3   OH245230   2.730   0.024   1.168 -0.1075 -0.6365  0.3289
 7012TIP3    H145231   2.814   0.022   1.121 -1.0582 -1.0458 -1.4477
 7012TIP3    H245232   2.742   0.091   1.235  1.4466 -0.2784 -0.2510
 7013TIP3   OH245233   4.832   1.822   0.534  0.7011 -0.0913 -0.5330
 7013TIP3    H145234   4.904   1.885   0.542  0.6952 -0.0107 -1.0863
 7013TIP3    H245235   4.842   1.786   0.446 -1.5895  1.9879 -1.7821
 7014TIP3   OH245236   4.695   5.817   0.749  0.1627 -0.0419  0.3829
 7014TIP3    H145237   4.785   5.784   0.749  0.0218 -0.6186 -1.6017
 7014TIP3    H245238   4.651   5.766   0.817  1.1457 -0.3256  0.8285
 7015TIP3   OH245239   1.412   3.311   1.704  0.0345  0.8291  0.2071
 7015TIP3    H145240   1.329   3.300   1.750  0.6257  0.2412  1.1901
 7015TIP3    H245241   1.433   3.404   1.713 -0.9210  1.1566 -0.8035
 7016TIP3   OH245242   1.835   5.555   1.840 -0.2496 -0.3110 -0.2737
 7016TIP3    H145243   1.913   5.547   1.895 -0.3652 -1.1807 -0.2183
 7016TIP3    H245244   1.792   5.470   1.847 -0.4443 -0.3272 -1.4450
 7017TIP3   OH245245   1.975   2.122   2.371  0.1035 -0.0895 -0.0880
 7017TIP3    H145246   2.032   2.051   2.401 -1.2461 -0.8064  0.9160
 7017TIP3    H245247   1.983   2.120   2.275 -1.3585 -2.9777 -0.2856
 7018TIP3   OH245248   7.653   5.401   3.112  0.3229 -0.1219 -0.2052
 7018TIP3    H145249   7.726   5.357   3.155  0.2756  1.3095  1.4773
 7018TIP3    H245250   7.692   5.476   3.069 -0.0421  0.1774 -0.0193
 7019TIP3   OH245251   6.895   1.156   2.121  0.0662  0.8604 -0.0684
 7019TIP3    H145252   6.935   1.070   2.133 -0.0974  0.8083  0.1187
 7019TIP3    H245253   6.811   1.138   2.080 -0.4696  0.8265  0.9898
 7020TIP3   OH245254   2.019   3.735   0.758  0.0507 -0.0728  0.2538
 7020TIP3    H145255   2.082   3.739   0.830  2.6314 -2.1515 -1.6840
 7020TIP3    H245256   1.993   3.643   0.755  0.7418 -0.2445 -1.9645
 7021TIP3   OH245257   3.521   3.944   0.924 -0.7597 -0.3400 -0.4330
 7021TIP3    H145258   3.499   3.952   1.016 -1.1222  1.6959 -0.6382
 7021TIP3    H245259   3.467   3.871   0.892 -0.3026 -1.3403  1.0247
 7022TIP3   OH245260   4.442   4.232   1.129  0.0706  0.2481 -0.1012
 7022TIP3    H145261   4.535   4.217   1.142 -0.1169 -0.7894  0.1247
 7022TIP3    H245262   4.435   4.325   1.108  1.2888  0.0772 -1.4039
 7023TIP3   OH245263   7.309   0.096   1.691  0.4857  0.6330  0.1243
 7023TIP3    H145264   7.307   0.168   1.628 -0.5197  1.2621  0.8442
 7023TIP3    H245265   7.339   0.021   1.640  0.1444  1.2264 -0.9981
 7024TIP3   OH245266   6.290   3.320   2.126 -0.3142  0.6833  0.5453
 7024TIP3    H145267   6.208   3.280   2.097 -0.4577  1.7298 -0.5857
 7024TIP3    H245268   6.273   3.349   2.215 -1.1503  0.8208  0.3457
 7025TIP3   OH245269   2.354   6.932   2.498  0.3474 -0.3703 -0.2584
 7025TIP3    H145270   2.319   7.010   2.455  1.2030 -0.2511 -0.7538
 7025TIP3    H245271   2.278   6.875   2.510  0.1862 -0.7879 -2.7251
 7026TIP3   OH245272   3.382   2.642   2.577 -0.0690  0.7648  0.0727
 7026TIP3    H145273   3.326   2.696   2.522 -0.2228  0.1455 -0.3905
 7026TIP3    H245274   3.324   2.574   2.612  0.2297  0.5749  0.2092
 7027TIP3   OH245275   4.611   1.974   1.357 -0.4907 -0.3815 -0.0185
 7027TIP3    H145276   4.674   1.996   1.426 -1.6679 -0.0675  0.9903
 7027TIP3    H245277   4.569   2.057   1.336 -1.9616 -0.9090  0.7543
 7028TIP3   OH245278   1.166   1.450   2.387  0.6738 -0.5497 -0.3829
 7028TIP3    H145279   1.166   1.359   2.416  0.0188 -0.4494 -0.0587
 7028TIP3    H245280   1.110   1.495   2.450  1.0199  0.0838 -0.5212
 7029TIP3   OH245281   4.327   7.344   1.333 -0.0643  0.4336  0.5874
 7029TIP3    H145282   4.317   7.426   1.381 -1.7622  0.5811  0.0410
 7029TIP3    H245283   4.239   7.322   1.305  0.6702 -0.4075 -1.2209
 7030TIP3   OH245284   7.384   2.506   1.833 -0.0337  0.3371 -0.4651
 7030TIP3    H145285   7.363   2.595   1.862  2.9847  0.9798  0.0407
 7030TIP3    H245286   7.373   2.453   1.912  0.9810  0.8169  0.0290
 7031TIP3   OH245287   4.227   1.087   2.337  0.3840 -0.0572 -1.0816
 7031TIP3    H145288   4.142   1.112   2.374 -0.5637 -2.7123 -1.2247
 7031TIP3    H245289   4.269   1.170   2.315 -0.7417  1.5111  2.0324
 7032TIP3   OH245290   0.046   2.424   2.061  0.2325  0.3441 -0.0072
 7032TIP3    H145291   0.074   2.377   2.139 -1.7840  0.0488  0.5792
 7032TIP3    H245292   0.113   2.404   1.995  1.4838 -0.1198  1.3626
 7033TIP3   OH245293   6.136   2.860   1.034  0.0547 -0.0719 -0.5614
 7033TIP3    H145294   6.052   2.843   1.076  0.3484 -0.2166 -0.0243
 7033TIP3    H245295   6.114   2.908   0.954 -0.4618  0.9346  0.1628
 7034TIP3   OH245296   5.988   2.104   1.796  0.0717 -0.5632  0.0297
 7034TIP3    H145297   6.030   2.160   1.730  3.0169 -2.3576  0.1854
 7034TIP3    H245298   5.941   2.038   1.745 -1.1825  0.4601 -0.1746
 7035TIP3   OH245299   5.336   1.082   2.727  0.6225  0.1194 -0.0959
 7035TIP3    H145300   5.420   1.086   2.680  0.7691  0.6795  0.2076
 7035TIP3    H245301   5.357   1.035   2.808  1.3208  2.6771  1.3244
 7036TIP3   OH245302   1.522   7.434   1.548  0.0524 -0.5291  0.6344
 7036TIP3    H145303   1.565   7.373   1.608 -1.6518 -2.2083  0.2388
 7036TIP3    H245304   1.535   7.520   1.588  0.6190 -1.3851  2.3924
 7037TIP3   OH245305   5.297   0.439   1.866 -0.2110  0.6784  0.0832
 7037TIP3    H145306   5.341   0.523   1.851 -0.2766  0.5935 -0.6621
 7037TIP3    H245307   5.205   0.461   1.875 -0.4496  0.5743 -1.6662
 7038TIP3   OH245308   1.612   7.062   7.305  0.2923  0.2422  0.6035
 7038TIP3    H145309   1.660   7.067   7.223  2.2893  0.8957  1.7340
 7038TIP3    H245310   1.585   6.971   7.312  1.3475 -0.1471 -0.1189
 7039TIP3   OH245311   3.669   7.414   2.445  0.4849 -0.0631 -0.6752
 7039TIP3    H145312   3.707   7.467   2.515  0.5048 -0.1840 -0.5943
 7039TIP3    H245313   3.653   7.329   2.485 -0.0103  0.0308 -0.6654
 7040TIP3   OH245314   1.440   4.046   0.837 -0.4376  0.5621 -0.4667
 7040TIP3    H145315   1.347   4.027   0.844 -0.4026  0.2884 -0.7494
 7040TIP3    H245316   1.444   4.138   0.811 -0.6097  0.8864  0.6005
 7041TIP3   OH245317   5.034   6.277   0.999 -0.0808 -0.0874  0.0652
 7041TIP3    H145318   5.025   6.365   1.036 -1.0437  1.1649 -2.8212
 7041TIP3    H245319   4.946   6.241   1.003 -0.6498  0.8188 -2.4866
 7042TIP3   OH245320   1.438   2.968   0.722  0.1552  0.1596 -0.3120
 7042TIP3    H145321   1.488   3.017   0.657 -0.6498 -0.0828 -1.1206
 7042TIP3    H245322   1.502   2.949   0.791  1.8011 -2.0812 -2.3258
 7043TIP3   OH245323   2.969   2.845   0.662  0.6478  0.0073 -0.6880
 7043TIP3    H145324   2.889   2.888   0.632  0.9263 -0.6600 -2.5286
 7043TIP3    H245325   2.941   2.756   0.684  0.8722 -0.2323 -1.3532
 7044TIP3   OH245326   0.582   1.990   1.342 -0.8646 -0.0510  0.6245
 7044TIP3    H145327   0.632   2.071   1.353 -1.0570 -0.2486  3.4387
 7044TIP3    H245328   0.561   1.962   1.430 -0.2270 -3.5932 -0.1970
 7045TIP3   OH245329   0.283   5.157   2.492  0.2704 -0.0651 -0.1994
 7045TIP3    H145330   0.358   5.121   2.445  0.2167  1.7956 -1.8219
 7045TIP3    H245331   0.317   5.233   2.538 -0.3790  0.0975  0.0227
 7046TIP3   OH245332   2.934   2.821   1.858  0.1397  0.3505  0.1903
 7046TIP3    H145333   2.855   2.787   1.899 -0.5661  0.0793 -1.3061
 7046TIP3    H245334   2.995   2.833   1.930 -1.1506  0.2704  1.3522
 7047TIP3   OH245335   6.232   7.553   1.626 -0.2938  0.4285 -0.0971
 7047TIP3    H145336   6.296   7.624   1.627 -0.8819  0.9651  0.8167
 7047TIP3    H245337   6.283   7.476   1.602  0.7699  0.7866  0.9193
 7048TIP3   OH245338   2.557   5.791   2.017 -0.4876  0.1037 -0.3463
 7048TIP3    H145339   2.603   5.816   1.938  0.5804  0.0700  0.2467
 7048TIP3    H245340   2.611   5.825   2.089 -1.9267  1.0230  0.3766
 7049TIP3   OH245341   0.957   2.304   2.932 -0.1393 -0.2174  0.0909
 7049TIP3    H145342   0.896   2.344   2.870 -0.5189  0.6137  0.9914
 7049TIP3    H245343   0.914   2.222   2.958  0.2437 -0.8217 -1.0889
 7050TIP3   OH245344   2.478   1.054   1.637 -0.0076 -0.4865 -0.3850
 7050TIP3    H145345   2.419   0.988   1.602 -0.9131  0.9993 -1.7661
 7050TIP3    H245346   2.450   1.136   1.598  0.6917  0.8705  1.7358
 7051TIP3   OH245347   0.626   2.337   0.832  0.4335  0.3728  0.3549
 7051TIP3    H145348   0.646   2.363   0.922  0.5069 -1.2794  0.8451
 7051TIP3    H245349   0.531   2.333   0.829  0.4110  0.9510  0.1937
 7052TIP3   OH245350   2.687   1.362   0.833  0.2998  0.1526 -0.1079
 7052TIP3    H145351   2.621   1.296   0.810 -0.5122  1.2276 -0.9549
 7052TIP3    H245352   2.769   1.313   0.836 -0.6196 -1.4099  1.9140
 7053TIP3   OH245353   1.399   5.908   1.081 -0.0292 -0.1583 -0.1687
 7053TIP3    H145354   1.430   5.855   1.154  2.4459 -1.1466 -1.7863
 7053TIP3    H245355   1.431   5.996   1.100 -1.0477  0.0140  0.8109
 7054TIP3   OH245356   2.962   6.310   1.737 -0.0680 -0.0446 -0.1138
 7054TIP3    H145357   2.942   6.217   1.724 -1.4977  0.3094 -0.5689
 7054TIP3    H245358   2.892   6.356   1.692 -0.3751  1.2636  1.5853
 7055TIP3   OH245359   2.812   3.419   1.622  0.0806  0.5798  0.8482
 7055TIP3    H145360   2.868   3.464   1.559  1.0444 -1.4899  0.1343
 7055TIP3    H245361   2.813   3.327   1.594 -3.0822  0.3129  1.2767
 7056TIP3   OH245362   5.131   4.924   3.296  0.0054  0.4446  0.8645
 7056TIP3    H145363   5.205   4.956   3.348  0.7172  0.4807 -0.1361
 7056TIP3    H245364   5.119   4.991   3.229  1.2201 -1.0727 -0.9902
 7057TIP3   OH245365   0.673   2.657   2.731 -0.4988  0.6628  0.5134
 7057TIP3    H145366   0.725   2.720   2.680 -2.4414  1.1111 -1.0472
 7057TIP3    H245367   0.641   2.707   2.806 -1.5151  1.4304 -0.3902
 7058TIP3   OH245368   1.500   0.993   2.459 -0.2905  0.8849 -0.1045
 7058TIP3    H145369   1.586   0.955   2.474 -0.0280  0.1363 -2.9063
 7058TIP3    H245370   1.513   1.055   2.388 -2.3678 -0.9120 -2.2204
 7059TIP3   OH245371   1.570   2.878   0.953 -0.6784 -0.0437 -0.0258
 7059TIP3    H145372   1.498   2.815   0.959  0.1276 -1.2566 -2.1275
 7059TIP3    H245373   1.639   2.840   1.007 -0.3476 -0.7991 -0.9468
 7060TIP3   OH245374   3.893   5.772   1.548  0.2841 -0.0848  0.0072
 7060TIP3    H145375   3.896   5.677   1.537 -0.7607 -0.2523  0.9894
 7060TIP3    H245376   3.801   5.795   1.535  0.5917  0.8605 -0.6260
 7061TIP3   OH245377   6.087   6.410   2.903 -0.0707 -0.2132 -1.0911
 7061TIP3    H145378   6.027   6.375   2.969 -2.0106  1.9609 -1.5869
 7061TIP3    H245379   6.165   6.435   2.954  0.0271 -2.0469 -0.2584
 7062TIP3   OH245380   5.544   7.155   1.059  0.7187 -0.1296  0.2828
 7062TIP3    H145381   5.589   7.091   1.004 -0.3441 -1.0732  0.4761
 7062TIP3    H245382   5.595   7.159   1.140  0.9088 -0.5813  0.1834
 7063TIP3   OH245383   5.496   5.824   0.789 -0.4796 -0.1067  0.0339
 7063TIP3    H145384   5.566   5.879   0.754 -0.8377 -0.3559 -1.1356
 7063TIP3    H245385   5.534   5.736   0.789  0.0312  0.0777  1.7313
 7064TIP3   OH245386   7.050   4.873   2.474  0.2241  0.4079 -0.0300
 7064TIP3    H145387   7.129   4.831   2.508  0.2861 -1.9163 -2.7234
 7064TIP3    H245388   6.983   4.805   2.478 -1.3770  1.9403  0.9451
 7065TIP3   OH245389   5.122   7.634   0.780  0.4505  0.1664  0.1385
 7065TIP3    H145390   5.102   7.687   0.857  2.5432 -1.1653  1.7187
 7065TIP3    H245391   5.061   7.560   0.785 -0.4612  0.8577 -0.4071
 7066TIP3   OH245392   4.004   4.310   1.613 -0.1444  0.0938 -0.1188
 7066TIP3    H145393   4.014   4.317   1.517 -0.7966 -0.5287 -0.2330
 7066TIP3    H245394   3.950   4.385   1.637  0.6561  0.6880 -0.1318
 7067TIP3   OH245395   2.880   0.369   0.997 -0.0405  1.1118  0.0829
 7067TIP3    H145396   2.832   0.350   1.078  0.9966  2.2268  1.0095
 7067TIP3    H245397   2.969   0.339   1.014  0.0177  0.6647 -0.9509
 7068TIP3   OH245398   7.174   3.999   1.430  0.2161  0.0271  0.1865
 7068TIP3    H145399   7.082   3.980   1.450  0.4228 -0.5432  0.6096
 7068TIP3    H245400   7.176   4.011   1.335 -0.2803 -0.0150  0.1684
 7069TIP3   OH245401   2.653   5.205   0.727  0.0626 -0.0827 -0.2606
 7069TIP3    H145402   2.685   5.118   0.750  1.8117  0.9674  1.6533
 7069TIP3    H245403   2.558   5.199   0.738  0.2634 -1.4196  1.2296
 7070TIP3   OH245404   0.017   1.836   0.959  0.2129 -0.0508 -0.4051
 7070TIP3    H145405   0.055   1.921   0.983 -0.2892 -0.0491  0.4268
 7070TIP3    H245406   0.048   1.776   1.027  1.0501 -0.6887 -1.3062
 7071TIP3   OH245407   0.363   6.078   2.540  0.2856  0.5896  0.0301
 7071TIP3    H145408   0.269   6.093   2.531  0.3362  0.7287 -0.2653
 7071TIP3    H245409   0.402   6.123   2.465  0.6180  0.8618  0.3626
 7072TIP3   OH245410   4.657   3.963   1.385  0.2919  0.3410  0.0726
 7072TIP3    H145411   4.581   3.969   1.327  1.3831  3.7819 -1.2751
 7072TIP3    H245412   4.718   3.906   1.337 -0.7045 -1.0189  0.3516
 7073TIP3   OH245413   2.480   0.872   3.021  0.3574  0.5351 -0.3878
 7073TIP3    H145414   2.415   0.907   2.961  1.2098 -0.4603 -1.9771
 7073TIP3    H245415   2.511   0.948   3.070 -1.2801  1.1703 -0.2730
 7074TIP3   OH245416   5.039   1.620   1.336  0.1773 -0.3491  0.0397
 7074TIP3    H145417   5.076   1.657   1.416  0.6211 -2.0999  0.6933
 7074TIP3    H245418   4.944   1.628   1.348  0.2522  0.3507  0.2499
 7075TIP3   OH245419   7.256   5.126   1.334  1.4071  0.4672 -0.2041
 7075TIP3    H145420   7.293   5.038   1.335  1.4105  0.4696  0.2177
 7075TIP3    H245421   7.161   5.113   1.332  1.3768  0.4388  0.8747
 7076TIP3   OH245422   3.976   5.385   2.045  0.4568 -0.5875  0.6668
 7076TIP3    H145423   4.037   5.318   2.014  1.5431 -0.1836  1.8336
 7076TIP3    H245424   3.901   5.336   2.079  1.2610 -1.2309  1.5499
 7077TIP3   OH245425   3.435   0.417   2.748  0.3932  0.1789 -0.5870
 7077TIP3    H145426   3.512   0.366   2.773  0.5751 -1.1612 -3.4949
 7077TIP3    H245427   3.370   0.396   2.816  2.0674  0.2076  1.1094
 7078TIP3   OH245428   6.793   5.620   2.582  0.5128 -0.1291  0.6926
 7078TIP3    H145429   6.849   5.566   2.527 -0.0213 -0.3696  0.3832
 7078TIP3    H245430   6.723   5.561   2.611  1.2770 -0.2620  2.3818
 7079TIP3   OH245431   4.664   0.685   2.482  0.3071 -0.1567 -0.0391
 7079TIP3    H145432   4.710   0.680   2.565 -0.4078  0.3767  0.3929
 7079TIP3    H245433   4.732   0.668   2.416  0.8236 -0.8205  0.6539
 7080TIP3   OH245434   2.736   5.902   2.195  0.2550 -0.2605  0.2124
 7080TIP3    H145435   2.762   5.986   2.157  0.5517  0.0628  1.1068
 7080TIP3    H245436   2.808   5.879   2.253  0.8618 -1.8438 -1.0692
 7081TIP3   OH245437   3.784   1.561   2.342 -0.1976 -0.0592  0.0547
 7081TIP3    H145438   3.689   1.553   2.330 -0.6543  3.3671  0.4500
 7081TIP3    H245439   3.794   1.589   2.433  1.2508 -0.5744  0.0758
 7082TIP3   OH245440   2.572   3.459   2.415  0.1983  0.5654 -0.4641
 7082TIP3    H145441   2.486   3.451   2.456  0.0775  2.5637 -0.2294
 7082TIP3    H245442   2.562   3.419   2.329 -1.9638  3.4340 -1.7213
 7083TIP3   OH245443   7.181   2.538   2.511 -0.1466 -0.2170  0.2374
 7083TIP3    H145444   7.112   2.585   2.463  1.1157  0.7037 -0.7285
 7083TIP3    H245445   7.136   2.501   2.587 -1.8436 -0.1982 -0.7104
 7084TIP3   OH245446   0.843   6.129   2.093 -0.1171 -0.0616 -0.5491
 7084TIP3    H145447   0.874   6.073   2.164 -0.8831  1.1042  0.7297
 7084TIP3    H245448   0.885   6.214   2.109  1.5224 -0.3225 -2.8031
 7085TIP3   OH245449   5.346   6.484   0.929 -0.3283 -0.3819  0.2729
 7085TIP3    H145450   5.420   6.526   0.973 -0.0046 -0.1176 -0.4946
 7085TIP3    H245451   5.289   6.454   1.000  0.5320 -0.6222  0.8801
 7086TIP3   OH245452   4.606   1.047   2.977 -0.3875  0.1858  0.0986
 7086TIP3    H145453   4.684   1.102   2.975  0.3192 -0.7702  0.5730
 7086TIP3    H245454   4.536   1.106   3.003  0.2578  0.9691  0.0963
 7087TIP3   OH245455   5.161   5.645   1.388 -0.5181 -0.7441 -0.2800
 7087TIP3    H145456   5.133   5.617   1.301 -0.2364 -0.2143 -0.5424
 7087TIP3    H245457   5.139   5.738   1.392  1.1660 -0.3173 -0.4732
 7088TIP3   OH245458   6.855   7.162   0.740  0.3113 -0.3220  0.2833
 7088TIP3    H145459   6.857   7.084   0.797 -1.7303  0.2688  1.2774
 7088TIP3    H245460   6.778   7.149   0.685 -0.2452  1.1225  0.6818
 7089TIP3   OH245461   4.416   1.617   1.418 -0.1145  0.2141 -0.9793
 7089TIP3    H145462   4.455   1.541   1.375  0.4135  0.8602 -1.6860
 7089TIP3    H245463   4.391   1.675   1.345 -0.4195  0.7530 -0.4559
 7090TIP3   OH245464   6.314   1.719   0.671  0.5449  0.2751  0.0049
 7090TIP3    H145465   6.254   1.665   0.620 -1.8729  1.8289  1.0207
 7090TIP3    H245466   6.369   1.763   0.606 -0.0929 -0.4302 -1.0267
 7091TIP3   OH245467   4.841   3.120   0.560  0.4290 -0.0240 -0.2510
 7091TIP3    H145468   4.918   3.158   0.518  0.5269 -0.9090 -0.8830
 7091TIP3    H245469   4.834   3.167   0.644  1.5916  0.1256 -0.2285
 7092TIP3   OH245470   6.752   4.436   2.291  0.2167  0.5242  0.0937
 7092TIP3    H145471   6.718   4.348   2.275  0.7841 -0.2683  2.7175
 7092TIP3    H245472   6.819   4.423   2.358 -0.6402  3.1124  1.5694
 7093TIP3   OH245473   7.271   1.352   2.113  0.4382  0.0105  0.1615
 7093TIP3    H145474   7.178   1.331   2.115  1.1138 -3.8985  2.7230
 7093TIP3    H245475   7.294   1.369   2.204  2.2806  0.7758 -0.3948
 7094TIP3   OH245476   4.237   4.148   1.537 -0.2458  0.2443  0.0849
 7094TIP3    H145477   4.183   4.217   1.576  0.2097  0.4625  0.3433
 7094TIP3    H245478   4.270   4.099   1.613 -0.7110 -0.3705 -0.1036
 7095TIP3   OH245479   2.085   7.035   2.641 -0.3118  0.3617  0.9194
 7095TIP3    H145480   2.092   6.960   2.583 -0.8983  0.6240  0.5063
 7095TIP3    H245481   2.072   6.997   2.728 -1.6423 -0.0104  0.5700
 7096TIP3   OH245482   4.344   1.093   0.797 -0.5403 -0.4594 -0.4750
 7096TIP3    H145483   4.258   1.051   0.803 -0.3758 -0.7706 -0.2744
 7096TIP3    H245484   4.402   1.035   0.846 -0.3822  0.1754  0.1045
 7097TIP3   OH245485   7.168   2.604   2.066  0.3350  0.2980 -0.3537
 7097TIP3    H145486   7.242   2.543   2.065  0.1110 -0.0890  1.8671
 7097TIP3    H245487   7.209   2.691   2.070  0.6684  0.1061  0.4650
 7098TIP3   OH245488   1.132   1.149   2.509  0.0781 -0.2874  0.4697
 7098TIP3    H145489   1.228   1.154   2.502  0.2721 -1.8834  1.4197
 7098TIP3    H245490   1.116   1.061   2.544 -1.6873  0.3002  1.2238
 7099TIP3   OH245491   4.603   0.510   1.599  0.1704  0.0645 -0.1266
 7099TIP3    H145492   4.540   0.487   1.668  0.1274  0.3459 -0.0714
 7099TIP3    H245493   4.685   0.469   1.628  0.0913 -0.0321 -0.0361
 7100TIP3   OH245494   4.840   0.630   3.446  0.5403 -0.0961  0.5628
 7100TIP3    H145495   4.788   0.561   3.488 -2.1542  1.7764  0.6105
 7100TIP3    H245496   4.817   0.709   3.494  0.8656  1.3805 -1.5676
 7101TIP3   OH245497   2.758   0.622   1.016 -0.0406 -0.3675  0.3259
 7101TIP3    H145498   2.794   0.533   1.016 -0.5571 -0.6080 -1.0551
 7101TIP3    H245499   2.667   0.611   0.988  0.1167  0.6501 -0.6873
 7102TIP3   OH245500   1.738   0.714   1.754 -0.2678  0.4293 -0.2597
 7102TIP3    H145501   1.819   0.662   1.756 -1.6099 -1.9041 -1.5849
 7102TIP3    H245502   1.759   0.789   1.700  0.9366 -0.3451 -0.9190
 7103TIP3   OH245503   0.052   3.512   1.517 -0.2147 -0.2965  0.7331
 7103TIP3    H145504   0.036   3.604   1.497  1.2158 -0.6008 -2.5002
 7103TIP3    H245505   0.141   3.511   1.552  0.4013 -0.5218 -0.7473
 7104TIP3   OH245506   4.225   7.509   2.556 -0.4465  0.2194  0.6968
 7104TIP3    H145507   4.302   7.555   2.588 -0.3856  0.0461  0.8021
 7104TIP3    H245508   4.168   7.578   2.520 -0.2079  0.3388  0.5448
 7105TIP3   OH245509   5.614   3.842   1.753  0.1144  0.1088  0.3994
 7105TIP3    H145510   5.555   3.918   1.750  1.5026  1.1881 -1.1109
 7105TIP3    H245511   5.559   3.768   1.726 -0.8347  0.8741  0.1618
 7106TIP3   OH245512   5.234   0.698   1.359  0.1155 -0.3439  0.3174
 7106TIP3    H145513   5.301   0.658   1.414 -0.2016 -3.4149 -1.3469
 7106TIP3    H245514   5.282   0.734   1.284  0.1273 -0.0295  0.4714
 7107TIP3   OH245515   1.009   0.940   2.278 -0.1686 -0.5733 -0.3044
 7107TIP3    H145516   1.065   1.016   2.294 -0.2125 -0.6922  0.4809
 7107TIP3    H245517   1.005   0.932   2.183 -2.0524  1.8338 -0.5531
 7108TIP3   OH245518   4.948   6.280   2.638  0.3373 -0.4191 -0.5112
 7108TIP3    H145519   4.855   6.260   2.644  0.4815 -1.2233 -0.8307
 7108TIP3    H245520   4.977   6.290   2.729 -0.1819  0.4664 -0.4325
 7109TIP3   OH245521   0.611   5.073   2.065 -0.4469  0.0393  0.0414
 7109TIP3    H145522   0.582   5.160   2.038 -1.4220  0.2129  1.5159
 7109TIP3    H245523   0.652   5.086   2.151 -1.5467 -1.0575  0.7864
 7110TIP3   OH245524   4.449   3.699   1.527 -0.1994 -0.0094  0.0697
 7110TIP3    H145525   4.532   3.652   1.527  0.4747  1.1300 -0.4036
 7110TIP3    H245526   4.446   3.741   1.441 -0.4863  1.2762  0.6843
 7111TIP3   OH245527   1.024   1.588   3.140  0.3991  0.1818  0.0902
 7111TIP3    H145528   1.002   1.647   3.212  0.6821 -0.0169  0.3430
 7111TIP3    H245529   0.954   1.601   3.076  0.1633  0.3861  0.3860
 7112TIP3   OH245530   4.691   0.870   1.910  0.0963 -0.1954 -0.5607
 7112TIP3    H145531   4.694   0.785   1.954  0.9345 -0.5338 -1.2505
 7112TIP3    H245532   4.621   0.861   1.846  0.1371 -0.3407 -0.5859
 7113TIP3   OH245533   2.209   1.503   1.201 -0.3027  0.2046  0.0251
 7113TIP3    H145534   2.159   1.573   1.160 -1.3910 -0.5360  0.0399
 7113TIP3    H245535   2.269   1.548   1.260  0.5573  1.2226 -1.5670
 7114TIP3   OH245536   6.393   2.942   1.089 -0.4768 -0.0673  0.1869
 7114TIP3    H145537   6.299   2.950   1.077 -0.0710  3.0760 -2.0767
 7114TIP3    H245538   6.431   2.993   1.018  2.9549 -0.7285  1.3593
 7115TIP3   OH245539   5.433   1.116   0.654 -0.1659 -0.5417  0.1861
 7115TIP3    H145540   5.443   1.159   0.569  1.1625  0.8129  0.9752
 7115TIP3    H245541   5.433   1.023   0.634  1.6526 -0.3015 -1.2122
 7116TIP3   OH245542   5.430   0.924   2.934 -0.6848 -0.5917 -0.2738
 7116TIP3    H145543   5.395   0.871   3.005 -1.9063  2.0946  1.2740
 7116TIP3    H245544   5.521   0.942   2.959 -1.9693  3.2407  2.7653
 7117TIP3   OH245545   3.305   1.637   0.810  0.0732 -0.4120  0.2098
 7117TIP3    H145546   3.356   1.712   0.839 -0.9198  0.0059  0.9303
 7117TIP3    H245547   3.216   1.655   0.840 -0.6014 -0.9309 -1.3434
 7118TIP3   OH245548   1.925   3.465   0.724  0.5007 -0.1512 -0.1196
 7118TIP3    H145549   1.986   3.405   0.680 -0.6056 -0.6560 -1.0010
 7118TIP3    H245550   1.892   3.414   0.799  0.5163 -0.1778 -0.1309
 7119TIP3   OH245551   7.133   1.483   1.287 -0.0368 -0.7706 -0.0725
 7119TIP3    H145552   7.182   1.565   1.283 -0.1602 -0.7305 -1.9695
 7119TIP3    H245553   7.199   1.415   1.301  0.3524 -0.5362 -0.7252
 7120TIP3   OH245554   5.365   0.697   1.898  0.2152  0.1267 -0.3821
 7120TIP3    H145555   5.316   0.760   1.950  1.1246 -0.6872  1.5358
 7120TIP3    H245556   5.434   0.749   1.856 -1.9981  1.2422 -2.9230
 7121TIP3   OH245557   1.577   2.089   2.086  0.3964 -0.1135 -0.2219
 7121TIP3    H145558   1.527   2.152   2.138  0.4973 -0.1907 -0.0305
 7121TIP3    H245559   1.616   2.141   2.016 -0.9969 -0.2465 -1.1388
 7122TIP3   OH245560   4.215   2.803   1.699 -0.1284 -0.4379 -0.0911
 7122TIP3    H145561   4.132   2.848   1.717 -0.7648 -1.5124 -0.2152
 7122TIP3    H245562   4.216   2.730   1.761 -0.0054 -1.3109 -1.0879
 7123TIP3   OH245563   5.071   2.246   1.725 -0.3900  0.3517  0.3846
 7123TIP3    H145564   5.136   2.207   1.784 -1.1262  0.5915  1.3774
 7123TIP3    H245565   5.118   2.318   1.683  0.0925  0.2994  0.8133
 7124TIP3   OH245566   4.908   1.616   3.057  0.4095 -0.2250  0.5112
 7124TIP3    H145567   4.861   1.561   2.994 -2.6298 -0.0783  2.4238
 7124TIP3    H245568   4.874   1.704   3.041  1.9277  0.3538  0.3771
 7125TIP3   OH245569   7.424   3.231   2.769  0.3342  0.1930 -0.0936
 7125TIP3    H145570   7.473   3.149   2.764  0.6154  0.3516  0.0594
 7125TIP3    H245571   7.397   3.248   2.679 -0.3632 -0.4514 -0.0222
 7126TIP3   OH245572   1.155   7.538   0.691 -0.5883  0.6266 -0.2422
 7126TIP3    H145573   1.125   7.461   0.642 -0.7448  0.9773 -0.7082
 7126TIP3    H245574   1.121   7.525   0.780  0.8009 -0.6536  0.1327
 7127TIP3   OH245575   6.129   2.699   2.206  0.0117 -0.1525 -0.0927
 7127TIP3    H145576   6.060   2.687   2.141  0.2661 -1.4934 -0.1404
 7127TIP3    H245577   6.083   2.729   2.284 -0.2992  1.4687 -0.8412
 7128TIP3   OH245578   7.559   7.522   1.381  0.3985 -0.5335 -0.7494
 7128TIP3    H145579   7.613   7.565   1.314 -0.1651  0.6466 -0.4514
 7128TIP3    H245580   7.583   7.429   1.373  2.4253 -0.0793 -0.6743
 7129TIP3   OH245581   6.291   3.031   3.166  0.5328  0.5225  0.0507
 7129TIP3    H145582   6.379   3.064   3.147  0.7989  0.0480  0.4432
 7129TIP3    H245583   6.233   3.087   3.115  1.1536 -0.0181 -1.3131
 7130TIP3   OH245584   2.479   0.125   1.341 -0.0820 -0.1223  0.4584
 7130TIP3    H145585   2.407   0.063   1.355  1.8655 -2.8675 -0.7442
 7130TIP3    H245586   2.558   0.076   1.365  1.6257  1.7909 -0.9276
 7131TIP3   OH245587   1.703   3.961   2.350  0.0203 -0.2963 -0.4812
 7131TIP3    H145588   1.769   4.013   2.303 -0.1127 -0.9796 -1.4384
 7131TIP3    H245589   1.720   3.871   2.325 -0.4275 -0.6237  0.3426
 7132TIP3   OH245590   6.790   4.712   2.323 -0.0158 -0.7232 -0.6891
 7132TIP3    H145591   6.760   4.622   2.309 -0.1503 -0.8256  0.2425
 7132TIP3    H245592   6.745   4.741   2.402 -0.6432  0.4768 -1.4633
 7133TIP3   OH245593   0.579   4.346   2.583  0.4167 -0.1936  1.1471
 7133TIP3    H145594   0.489   4.314   2.575  0.5941 -0.5035  0.3720
 7133TIP3    H245595   0.573   4.416   2.649 -0.8594  1.5074 -0.6432
 7134TIP3   OH245596   3.077   0.055   1.429  0.0442  0.0433  0.2093
 7134TIP3    H145597   2.989   0.080   1.457  0.6405  1.2992  1.0442
 7134TIP3    H245598   3.065  -0.030   1.387 -1.4669 -0.0899  0.8371
 7135TIP3   OH245599   7.314   1.303   1.325 -0.1042  0.5182 -0.6291
 7135TIP3    H145600   7.344   1.272   1.410  0.4494  1.3625 -0.5135
 7135TIP3    H245601   7.379   1.271   1.263 -0.4061  0.0677 -0.7228
 7136TIP3   OH245602   0.751   2.776   1.050  0.1591 -0.2393  0.5322
 7136TIP3    H145603   0.765   2.692   1.094  0.2811 -1.2349 -1.3161
 7136TIP3    H245604   0.749   2.840   1.121  1.0175 -1.6787  1.9162
 7137TIP3   OH245605   6.415   2.296   1.639  0.0156  0.4887 -0.4533
 7137TIP3    H145606   6.473   2.237   1.687 -1.2877  1.0585  2.0074
 7137TIP3    H245607   6.439   2.383   1.670 -0.9198  0.8656 -0.7481
 7138TIP3   OH245608   4.084   4.076   2.901  0.0423 -0.9592 -0.0843
 7138TIP3    H145609   4.112   4.023   2.976  1.4369  1.2188  1.0273
 7138TIP3    H245610   4.000   4.113   2.927  0.6834  0.0604  0.5696
 7139TIP3   OH245611   4.606   4.259   2.609  0.2435  0.2895 -0.2583
 7139TIP3    H145612   4.547   4.307   2.668 -0.8129 -0.5043 -0.6570
 7139TIP3    H245613   4.586   4.292   2.522  0.7337  0.3574 -0.3510
 7140TIP3   OH245614   2.443   6.669   0.825  0.0524  0.4306  0.3102
 7140TIP3    H145615   2.361   6.716   0.841  0.2289  1.1513 -0.7681
 7140TIP3    H245616   2.497   6.732   0.777  1.1232 -0.1463  0.7339
 7141TIP3   OH245617   7.178   4.561   0.786  0.5762  0.1754 -0.0734
 7141TIP3    H145618   7.226   4.529   0.863  1.1258 -0.0554 -0.5089
 7141TIP3    H245619   7.089   4.574   0.818  0.7438 -0.1465  0.5456
 7142TIP3   OH245620   1.041   7.050   1.061  0.0716 -0.1638 -0.0729
 7142TIP3    H145621   1.126   7.009   1.075  1.5227  2.9030  1.2004
 7142TIP3    H245622   0.984   7.013   1.129  1.0426 -0.6343  0.4993
 7143TIP3   OH245623   5.928   7.166   0.837  0.6629 -0.3563 -0.0804
 7143TIP3    H145624   5.996   7.203   0.780  1.3688  0.0669  1.0013
 7143TIP3    H245625   5.916   7.077   0.804  0.9803 -0.0895 -0.9537
 7144TIP3   OH245626   6.434   7.507   2.726 -0.2979  0.6624 -0.0258
 7144TIP3    H145627   6.388   7.449   2.787 -1.1230 -0.8628 -1.9661
 7144TIP3    H245628   6.374   7.580   2.711 -0.3461  0.7335  0.5014
 7145TIP3   OH245629   1.237   4.203   3.465  0.6117 -0.0422  0.3567
 7145TIP3    H145630   1.206   4.271   3.524 -1.4089  0.7066 -1.4045
 7145TIP3    H245631   1.331   4.219   3.456  0.4522  1.5569  1.1600
 7146TIP3   OH245632   5.600   6.063   2.526  0.0023  0.3188  0.2860
 7146TIP3    H145633   5.669   6.064   2.460  1.3711  2.3325  1.6382
 7146TIP3    H245634   5.620   6.137   2.583 -2.2259 -0.1712  1.8437
 7147TIP3   OH245635   2.972   6.028   0.469 -0.2788  0.4593 -0.4649
 7147TIP3    H145636   2.923   6.027   0.551  0.4847  1.7328  0.0277
 7147TIP3    H245637   3.007   5.940   0.461 -0.9936  0.1043  0.1800
 7148TIP3   OH245638   7.308   0.574   2.483 -0.3392 -0.6773 -0.5170
 7148TIP3    H145639   7.301   0.642   2.550 -0.1144 -0.6079 -0.5624
 7148TIP3    H245640   7.401   0.570   2.463 -0.1304 -2.1225  0.6419
 7149TIP3   OH245641   1.813   6.095   1.134 -0.3147  0.4732  0.2769
 7149TIP3    H145642   1.810   6.136   1.047 -1.2784  2.2697  1.0984
 7149TIP3    H245643   1.726   6.111   1.171  0.1312 -0.1175  1.6485
 7150TIP3   OH245644   3.175   3.010   0.740  0.3632  0.2074  0.2077
 7150TIP3    H145645   3.253   2.963   0.769 -0.8148 -0.0475  3.3734
 7150TIP3    H245646   3.118   2.943   0.703 -0.1062 -0.4550  2.0156
 7151TIP3   OH245647   0.095   3.136   2.826  0.1695  0.2564  0.1613
 7151TIP3    H145648   0.186   3.156   2.805 -0.0925  0.4377 -0.8736
 7151TIP3    H245649   0.057   3.220   2.851  0.1302  0.2999 -0.0406
 7152TIP3   OH245650   1.696   1.825   1.789  0.1950  0.1178 -1.0116
 7152TIP3    H145651   1.774   1.787   1.830 -1.1520 -1.5005  0.1922
 7152TIP3    H245652   1.707   1.806   1.696  2.2195  1.8308 -1.2031
 7153TIP3   OH245653   5.768   1.823   2.185  0.5218  0.2019 -0.5025
 7153TIP3    H145654   5.740   1.770   2.260  0.3129  0.3275 -0.4908
 7153TIP3    H245655   5.858   1.795   2.168  1.8850  2.5870  1.9950
 7154TIP3   OH245656   5.167   6.346   0.764  0.5895 -0.1131  0.8297
 7154TIP3    H145657   5.144   6.304   0.847  1.1941  1.8604  2.0744
 7154TIP3    H245658   5.232   6.412   0.788  0.9254  0.3851 -1.2638
 7155TIP3   OH245659   3.557   4.513   1.320  0.0150 -0.1764  0.2187
 7155TIP3    H145660   3.512   4.429   1.333 -0.5991  0.1135  0.0194
 7155TIP3    H245661   3.559   4.524   1.225  1.9748 -0.9522  0.1315
 7156TIP3   OH245662   3.109   5.286   2.517  0.4626  0.2616 -0.4687
 7156TIP3    H145663   3.015   5.304   2.514  0.6446  1.1805 -0.9838
 7156TIP3    H245664   3.142   5.340   2.589  0.3931 -1.1315  0.6455
 7157TIP3   OH245665   2.443   2.731   1.989  0.5110  0.1876  0.5845
 7157TIP3    H145666   2.526   2.754   2.030 -0.0112  1.4068  0.9898
 7157TIP3    H245667   2.376   2.749   2.056  0.0038 -2.1279  0.7813
 7158TIP3   OH245668   0.896   1.276   0.952 -0.2079  0.8080 -0.2076
 7158TIP3    H145669   0.906   1.368   0.975  0.4954 -0.0187  3.2911
 7158TIP3    H245670   0.981   1.251   0.917 -0.9615  1.8074 -3.1164
 7159TIP3   OH245671   5.168   2.562   0.980 -0.2602 -0.2650 -0.2099
 7159TIP3    H145672   5.170   2.633   1.043  1.6184 -1.3168  0.9941
 7159TIP3    H245673   5.257   2.527   0.980 -0.6605 -1.4358 -2.1477
 7160TIP3   OH245674   3.297   5.165   3.003  0.4975 -0.4896  0.1049
 7160TIP3    H145675   3.289   5.225   2.928 -1.5416  0.7764  1.2369
 7160TIP3    H245676   3.374   5.112   2.983  0.8535  0.7544 -2.2056
 7161TIP3   OH245677   4.752   6.395   3.085  0.5246 -0.8449  0.3158
 7161TIP3    H145678   4.749   6.305   3.055 -1.0379 -0.9308  0.6644
 7161TIP3    H245679   4.749   6.447   3.005 -0.5674 -1.0930  0.1898
 7162TIP3   OH245680   4.407   3.658   2.368  0.2990 -0.0625 -0.2129
 7162TIP3    H145681   4.479   3.643   2.430 -0.8826  1.8846  1.7720
 7162TIP3    H245682   4.366   3.572   2.359  0.0792 -0.3274  2.3704
 7163TIP3   OH245683   6.855   6.922   0.889  0.1504 -0.8269 -0.9304
 7163TIP3    H145684   6.877   6.836   0.923 -0.7840 -0.8643 -0.3732
 7163TIP3    H245685   6.842   6.976   0.968  2.1304  0.2267 -1.2452
 7164TIP3   OH245686   2.046   1.825   2.622  0.0752  0.3143  0.3175
 7164TIP3    H145687   2.102   1.774   2.681 -1.6224 -0.8766  1.0089
 7164TIP3    H245688   2.102   1.845   2.547  1.2797 -1.2808  0.7162
 7165TIP3   OH245689   2.344   2.107   2.418 -0.0494  0.5012 -0.6926
 7165TIP3    H145690   2.349   2.173   2.349  3.1552  2.4544  1.1954
 7165TIP3    H245691   2.430   2.065   2.418 -0.1044  0.2463  1.7670
 7166TIP3   OH245692   6.802   2.883   2.854  0.2194  0.2124 -0.2844
 7166TIP3    H145693   6.827   2.908   2.943  0.1635 -0.1682 -0.1633
 7166TIP3    H245694   6.794   2.788   2.856 -0.1063  0.2268 -0.6129
 7167TIP3   OH245695   5.553   2.088   0.879  0.3608 -0.2034 -0.1432
 7167TIP3    H145696   5.565   2.183   0.879  3.4104 -0.4754 -0.4587
 7167TIP3    H245697   5.571   2.061   0.969  1.5976 -0.6288 -0.4978
 7168TIP3   OH245698   3.504   2.804   1.967 -0.0542 -0.5276 -0.4130
 7168TIP3    H145699   3.572   2.866   1.942 -1.3243  0.4146 -1.7415
 7168TIP3    H245700   3.430   2.824   1.909 -1.2121 -1.9945  0.4501
 7169TIP3   OH245701   4.029   3.840   1.239  0.1748 -0.1963  0.1430
 7169TIP3    H145702   4.000   3.765   1.186 -1.8256  1.6665 -1.5795
 7169TIP3    H245703   3.949   3.877   1.275  1.2517  0.3606  2.1179
 7170TIP3   OH245704   5.657   7.466   3.184  0.3782  0.1251 -0.1212
 7170TIP3    H145705   5.644   7.390   3.127 -0.4946 -1.2976  1.8220
 7170TIP3    H245706   5.650   7.430   3.273  1.9285  2.1597  0.9250
 7171TIP3   OH245707   0.900   5.123   2.708  0.1786 -0.1014  0.2462
 7171TIP3    H145708   0.955   5.200   2.691 -1.9651  1.0469 -2.1898
 7171TIP3    H245709   0.835   5.152   2.771  0.2536 -0.3973  0.4652
 7172TIP3   OH245710   4.554   3.209   3.057  0.6828  0.4885  0.4791
 7172TIP3    H145711   4.609   3.287   3.066  0.5648  0.7481 -0.8162
 7172TIP3    H245712   4.603   3.140   3.102  1.4684  1.0043  0.4381
 7173TIP3   OH245713   3.659   6.635   2.607  0.2056 -0.1357  0.2087
 7173TIP3    H145714   3.673   6.675   2.521  0.6697 -1.1230 -0.1822
 7173TIP3    H245715   3.746   6.636   2.648  0.2045 -0.6771  0.2251
 7174TIP3   OH245716   0.293   2.683   0.637 -0.2249  0.4805 -0.6063
 7174TIP3    H145717   0.325   2.772   0.623 -1.5290  0.7981 -1.7473
 7174TIP3    H245718   0.284   2.677   0.732  0.4842  1.3436 -0.4642
 7175TIP3   OH245719   2.993   5.076   0.669 -0.2215  0.1207  0.1823
 7175TIP3    H145720   2.920   5.034   0.715  0.5136  0.1241  1.3961
 7175TIP3    H245721   3.067   5.017   0.683 -0.1405 -0.3355 -1.7789
 7176TIP3   OH245722   4.732   2.839   0.863 -0.0434  0.0656  0.2199
 7176TIP3    H145723   4.763   2.755   0.898 -0.4306  0.4413  1.4838
 7176TIP3    H245724   4.802   2.901   0.884 -0.0891  0.2121 -0.0570
 7177TIP3   OH245725   0.489   5.746   1.623 -0.3279  0.2459 -0.6608
 7177TIP3    H145726   0.558   5.783   1.568 -0.6263 -1.5972 -2.4022
 7177TIP3    H245727   0.420   5.720   1.561 -0.6832 -1.9267  0.5400
 7178TIP3   OH245728   7.082   3.309   2.624  0.8592  0.3773 -0.1754
 7178TIP3    H145729   7.081   3.403   2.644 -0.9425  0.5694 -0.9083
 7178TIP3    H245730   7.033   3.302   2.542 -0.1983 -1.3239  0.5354
 7179TIP3   OH245731   6.342   0.061   2.608  0.0228  0.0448 -0.0671
 7179TIP3    H145732   6.405   0.104   2.551 -0.6776  1.0812 -0.0793
 7179TIP3    H245733   6.310   0.131   2.666  0.3660 -0.8691  1.2865
 7180TIP3   OH245734   0.975   3.623   3.269 -0.2495 -0.5139 -0.4559
 7180TIP3    H145735   0.892   3.653   3.306  0.3157  0.1410  0.3020
 7180TIP3    H245736   0.957   3.533   3.242 -1.5349 -0.0093 -1.3906
 7181TIP3   OH245737   5.091   3.681   1.287  0.0285  1.1963 -0.1724
 7181TIP3    H145738   5.058   3.768   1.264 -3.0219  0.4520  0.8139
 7181TIP3    H245739   5.043   3.622   1.228 -0.8346 -0.0197  1.6360
 7182TIP3   OH245740   6.497   2.609   1.084  0.3132  0.3122 -0.0675
 7182TIP3    H145741   6.546   2.534   1.051  1.7253  1.1382  0.1156
 7182TIP3    H245742   6.524   2.683   1.030 -2.6948  0.3845 -1.7364
 7183TIP3   OH245743   6.769   7.024   1.158 -0.6301 -0.2108  0.0174
 7183TIP3    H145744   6.840   7.011   1.221 -0.6270 -0.4495 -0.0337
 7183TIP3    H245745   6.716   6.945   1.166  0.0152 -0.7916 -1.1150
 7184TIP3   OH245746   0.247   6.586   1.025 -0.0374  0.6731  0.4492
 7184TIP3    H145747   0.244   6.598   0.930  0.9833 -0.0256  0.3077
 7184TIP3    H245748   0.185   6.516   1.042  0.4841  0.1343  0.1658
 7185TIP3   OH245749   1.391   0.233   2.059  0.4131  0.4159  0.2421
 7185TIP3    H145750   1.446   0.249   1.982 -1.1548  1.5025 -0.7350
 7185TIP3    H245751   1.387   0.318   2.103  0.9063 -0.0850  1.2564
 7186TIP3   OH245752   4.148   6.637   1.774  0.3377  0.8453 -0.4654
 7186TIP3    H145753   4.154   6.633   1.679  1.2558  0.3113 -0.3911
 7186TIP3    H245754   4.124   6.549   1.801 -1.6042  1.3656 -0.2835
 7187TIP3   OH245755   1.395   1.497   0.790 -0.7294  0.6045  0.1069
 7187TIP3    H145756   1.328   1.561   0.766 -0.0853  1.7468  1.2620
 7187TIP3    H245757   1.359   1.453   0.867 -1.6620 -1.2611 -1.3157
 7188TIP3   OH245758   0.808   2.545   1.215  0.1916 -0.3107  0.4138
 7188TIP3    H145759   0.897   2.577   1.205  0.9274 -2.5517 -0.8280
 7188TIP3    H245760   0.800   2.474   1.151 -3.0015  0.8309 -0.6594
 7189TIP3   OH245761   1.997   6.260   1.296 -0.1555 -0.4540  0.1591
 7189TIP3    H145762   1.933   6.202   1.254 -1.2167  0.0569  1.0011
 7189TIP3    H245763   2.067   6.270   1.232 -0.7431 -1.3415 -0.6438
 7190TIP3   OH245764   1.934   6.591   2.288 -0.2799  0.0830  0.3886
 7190TIP3    H145765   2.001   6.635   2.341 -0.1936  0.3123  0.0906
 7190TIP3    H245766   1.919   6.508   2.333  1.2241 -0.6091 -0.2867
 7191TIP3   OH245767   5.526   4.800   1.773 -0.1076  0.1110 -0.5111
 7191TIP3    H145768   5.460   4.747   1.729  0.0464  0.4759 -1.1860
 7191TIP3    H245769   5.585   4.735   1.813  1.2300 -0.3117 -3.0034
 7192TIP3   OH245770   4.815   6.251   1.153  0.1078  0.7918  0.2541
 7192TIP3    H145771   4.775   6.164   1.147 -2.9704  2.0225  0.6398
 7192TIP3    H245772   4.834   6.262   1.246  1.4348  0.1992  0.0696
 7193TIP3   OH245773   5.349   0.874   2.355  0.0584  0.0497  0.1287
 7193TIP3    H145774   5.331   0.967   2.374  0.7336  0.0468  0.8153
 7193TIP3    H245775   5.423   0.875   2.296 -0.3810 -0.0372 -0.4321
 7194TIP3   OH245776   7.507   4.530   0.438  0.1587 -0.1061  0.2211
 7194TIP3    H145777   7.468   4.534   0.351  0.6195 -1.1738 -0.0599
 7194TIP3    H245778   7.465   4.455   0.480  1.7566 -1.2177 -0.0481
 7195TIP3   OH245779   4.086   2.606   1.865  0.2511 -0.1640  0.7433
 7195TIP3    H145780   4.154   2.540   1.857  0.1941 -0.2288  0.7962
 7195TIP3    H245781   4.117   2.663   1.936  1.2002  0.9502 -0.5342
 7196TIP3   OH245782   4.527   4.125   1.720 -0.2579  0.1119 -0.1761
 7196TIP3    H145783   4.570   4.100   1.802 -0.0300 -0.6349 -0.5155
 7196TIP3    H245784   4.444   4.078   1.722 -0.5169  0.5721 -0.0970
 7197TIP3   OH245785   2.930   2.463   1.696 -0.4643 -0.1039  0.1246
 7197TIP3    H145786   2.900   2.467   1.786 -0.7147 -0.3087  0.0514
 7197TIP3    H245787   3.024   2.448   1.702 -0.0981  1.9321  0.3717
 7198TIP3   OH245788   6.943   5.603   3.414  0.0658 -0.1712  0.2235
 7198TIP3    H145789   6.935   5.686   3.461  1.5513 -0.1200  0.4197
 7198TIP3    H245790   7.036   5.582   3.417  0.2297 -0.2237 -2.6188
 7199TIP3   OH245791   6.906   2.645   3.185 -0.0592  0.0250  0.1460
 7199TIP3    H145792   6.978   2.704   3.164 -0.1361 -0.0621 -0.3747
 7199TIP3    H245793   6.854   2.640   3.104 -0.2859 -0.4195  0.3134
 7200TIP3   OH245794   0.523   0.357   2.185 -0.4834  0.3965  0.3153
 7200TIP3    H145795   0.586   0.315   2.127  1.3696  0.6714  2.0425
 7200TIP3    H245796   0.442   0.360   2.133  0.5129 -1.1908 -1.4784
 7201TIP3   OH245797   3.948   7.406   2.372  0.2623 -0.0600 -0.2584
 7201TIP3    H145798   3.853   7.419   2.365  0.1679 -1.6185 -3.9492
 7201TIP3    H245799   3.985   7.475   2.317  1.1893 -0.3779 -0.0396
 7202TIP3   OH245800   4.029   5.625   2.110 -0.5511 -0.5561 -0.4397
 7202TIP3    H145801   4.000   5.538   2.082 -0.7159 -0.6602  0.0383
 7202TIP3    H245802   4.117   5.634   2.074  0.4434 -1.9012  1.5047
 7203TIP3   OH245803   3.480   0.630   1.766 -0.4470  0.1019  0.3243
 7203TIP3    H145804   3.460   0.640   1.859 -0.8630 -2.0154  0.5122
 7203TIP3    H245805   3.405   0.583   1.730  0.7645 -1.2158 -0.5723
 7204TIP3   OH245806   4.422   0.446   1.802 -0.5471 -0.0271  0.1175
 7204TIP3    H145807   4.408   0.528   1.849  0.8859 -0.6636  1.7715
 7204TIP3    H245808   4.349   0.390   1.828  0.8357 -0.7927  2.7292
 7205TIP3   OH245809   1.237   7.245   1.850  0.3437  0.1872  0.0690
 7205TIP3    H145810   1.267   7.164   1.810  2.2123  0.0773  1.5776
 7205TIP3    H245811   1.232   7.307   1.777 -0.6115 -1.1014 -1.0198
 7206TIP3   OH245812   7.281   3.105   2.297  0.2980 -0.1412  0.9522
 7206TIP3    H145813   7.212   3.168   2.277 -0.0921 -0.3999  1.4574
 7206TIP3    H245814   7.343   3.154   2.351  1.2083  0.4744 -0.6123
 7207TIP3   OH245815   0.306   7.172   1.229 -0.3013 -0.1901 -0.2562
 7207TIP3    H145816   0.255   7.095   1.252  1.0761 -0.8672  0.6291
 7207TIP3    H245817   0.240   7.238   1.207 -1.5854 -0.8660  1.3315
 7208TIP3   OH245818   4.152   1.865   2.105 -0.2299 -0.0114 -0.1327
 7208TIP3    H145819   4.141   1.835   2.014  1.1726 -2.0384  0.2973
 7208TIP3    H245820   4.164   1.784   2.155 -0.7188  1.0898  1.8470
 7209TIP3   OH245821   0.316   3.182   1.128 -0.2346 -0.3011  0.2459
 7209TIP3    H145822   0.352   3.106   1.174  3.7326  0.9031 -0.4929
 7209TIP3    H245823   0.313   3.251   1.194 -2.7186 -0.6819  0.6254
 7210TIP3   OH245824   7.345   5.527   2.159 -0.0792 -0.1765  0.6593
 7210TIP3    H145825   7.284   5.525   2.232  1.4799  1.6112  2.1031
 7210TIP3    H245826   7.422   5.480   2.190  0.4636  0.2843  0.0449
 7211TIP3   OH245827   7.367   6.183   0.929 -0.0546  0.0693 -0.2587
 7211TIP3    H145828   7.392   6.254   0.871  0.0456 -0.3363 -0.7217
 7211TIP3    H245829   7.272   6.176   0.920 -0.0157 -0.1289 -0.5388
 7212TIP3   OH245830   1.724   4.213   0.385  0.2684 -0.0242 -0.1344
 7212TIP3    H145831   1.716   4.269   0.463  2.4642  1.2444 -0.7258
 7212TIP3    H245832   1.706   4.272   0.312 -1.6478 -1.1751 -0.6415
 7213TIP3   OH245833   3.526   4.418   3.282  0.0858 -0.0668  0.0982
 7213TIP3    H145834   3.581   4.364   3.226  0.3993  1.3984 -1.0557
 7213TIP3    H245835   3.573   4.501   3.290 -1.3068  0.7497  0.1725
 7214TIP3   OH245836   1.839   3.057   1.135 -0.3518  0.2853  0.0706
 7214TIP3    H145837   1.766   3.034   1.192 -0.5921  2.3444  0.6769
 7214TIP3    H245838   1.915   3.062   1.193 -0.0495 -0.2308 -0.2715
 7215TIP3   OH245839   2.369   0.338   1.937 -0.0906 -0.5445 -0.1790
 7215TIP3    H145840   2.326   0.356   2.021 -1.7670 -0.2568 -1.0547
 7215TIP3    H245841   2.462   0.335   1.958 -0.2784  1.7924  1.3036
 7216TIP3   OH245842   1.409   5.822   2.408  0.1903 -0.0062  0.0157
 7216TIP3    H145843   1.469   5.785   2.343 -0.5174  0.2075 -0.7617
 7216TIP3    H245844   1.322   5.799   2.377 -0.1443 -0.8809  1.4840
 7217TIP3   OH245845   6.927   0.171   1.670 -0.3001  0.4177 -0.7920
 7217TIP3    H145846   6.836   0.194   1.688 -0.2978  0.2414 -0.5568
 7217TIP3    H245847   6.931   0.076   1.683  0.0034  0.4776 -0.4394
 7218TIP3   OH245848   0.996   7.036   1.387 -0.5033 -0.2322 -0.4170
 7218TIP3    H145849   1.026   7.125   1.407  0.4955 -0.8549  0.9597
 7218TIP3    H245850   0.910   7.049   1.347 -1.3458  1.2650  1.7305
 7219TIP3   OH245851   4.568   5.992   1.786  0.0714 -0.3783  0.2022
 7219TIP3    H145852   4.627   5.917   1.798  2.5088  1.5198  0.7065
 7219TIP3    H245853   4.572   6.039   1.869 -0.2821  1.0942 -0.5956
 7220TIP3   OH245854   1.380   7.135   2.664  0.5324  0.1910  0.1594
 7220TIP3    H145855   1.442   7.153   2.734 -0.9173 -0.3347  1.6474
 7220TIP3    H245856   1.300   7.107   2.709 -0.1729 -1.0717 -1.7378
 7221TIP3   OH245857   0.125   4.609   2.527 -0.4918  0.0318 -0.1355
 7221TIP3    H145858   0.130   4.615   2.622 -1.7181  0.1671 -0.0656
 7221TIP3    H245859   0.216   4.609   2.498 -0.0929  2.8018  0.8513
 7222TIP3   OH245860   4.556   6.698   1.593  0.2011 -0.4047  0.3053
 7222TIP3    H145861   4.573   6.605   1.612  1.4256 -0.1579  0.5298
 7222TIP3    H245862   4.485   6.722   1.652 -0.6707 -1.3931 -0.3086
 7223TIP3   OH245863   6.008   6.917   1.934  0.0996  0.9749  0.2182
 7223TIP3    H145864   6.063   6.840   1.920  1.2716  1.7505  0.3714
 7223TIP3    H245865   6.037   6.979   1.867  2.7155  3.1082  2.9933
 7224TIP3   OH245866   4.699   4.541   2.865  0.3821  0.1455 -0.1573
 7224TIP3    H145867   4.715   4.469   2.926  0.6749  0.8330  0.5955
 7224TIP3    H245868   4.633   4.595   2.909  0.3149  0.4432 -0.6202
 7225TIP3   OH245869   2.025   5.562   0.770  0.6893  0.1931 -0.2339
 7225TIP3    H145870   1.981   5.550   0.854  1.4266 -0.8861  0.0229
 7225TIP3    H245871   2.052   5.654   0.770  0.0282  0.3955  0.3763
 7226TIP3   OH245872   1.290   5.851   0.838 -0.1367  0.2512  0.3022
 7226TIP3    H145873   1.259   5.761   0.841  2.9179 -0.9904 -1.2120
 7226TIP3    H245874   1.337   5.863   0.921 -0.3334  0.3683  0.3969
 7227TIP3   OH245875   4.565   0.093   1.515 -0.0424 -0.1501  0.3758
 7227TIP3    H145876   4.541   0.177   1.475  2.1265  0.4983  0.3058
 7227TIP3    H245877   4.500   0.079   1.583 -2.0593  0.2141 -1.3612
 7228TIP3   OH245878   4.153   7.065   1.458  0.4151  0.2249 -0.1692
 7228TIP3    H145879   4.122   7.012   1.531  0.5254  1.3034  0.6868
 7228TIP3    H245880   4.248   7.054   1.459  0.4409  0.4672  0.0310
 7229TIP3   OH245881   7.548   3.248   0.478 -0.3210 -0.2238  0.8030
 7229TIP3    H145882   7.636   3.240   0.513  0.7164  0.1135 -1.5225
 7229TIP3    H245883   7.519   3.336   0.505  0.6696  0.2538  0.3630
 7230TIP3   OH245884   0.276   1.772   2.741 -0.1347  0.1500 -0.2520
 7230TIP3    H145885   0.276   1.837   2.671 -1.3250  0.7272  0.2642
 7230TIP3    H245886   0.231   1.814   2.814 -1.4324 -1.4185 -0.0748
 7231TIP3   OH245887   2.391   5.163   0.782  0.1090  0.0685 -0.2952
 7231TIP3    H145888   2.385   5.106   0.705  0.7378 -0.1102 -0.2146
 7231TIP3    H245889   2.308   5.211   0.782 -0.0646 -0.2170 -0.8582
 7232TIP3   OH245890   6.518   3.532   1.902 -0.2299 -0.0305 -0.1397
 7232TIP3    H145891   6.562   3.509   1.820  0.2444 -1.8841  0.5927
 7232TIP3    H245892   6.438   3.577   1.874  0.3009  0.0624 -1.5886
 7233TIP3   OH245893   5.559   2.036   2.546 -0.1533 -0.4392  0.0110
 7233TIP3    H145894   5.581   2.045   2.639  0.4061 -0.1694 -0.1445
 7233TIP3    H245895   5.641   2.054   2.500 -0.4555 -0.4546 -0.5430
 7234TIP3   OH245896   4.484   1.571   1.029 -0.0139  0.0944  1.0949
 7234TIP3    H145897   4.553   1.564   0.963  1.7346 -1.5974  2.9659
 7234TIP3    H245898   4.487   1.663   1.056  1.5000  0.0777  1.0918
 7235TIP3   OH245899   7.073   3.234   1.403  0.0152 -0.1341 -0.3649
 7235TIP3    H145900   7.019   3.205   1.330  1.1635  0.1716 -1.3604
 7235TIP3    H245901   7.116   3.314   1.372 -0.2963  0.6113  1.0299
 7236TIP3   OH245902   1.744   3.452   1.587 -0.3773  0.1256  0.0752
 7236TIP3    H145903   1.793   3.458   1.505  0.7106  0.7401  0.7477
 7236TIP3    H245904   1.656   3.480   1.564  0.0775  0.9439 -0.7537
 7237TIP3   OH245905   4.818   4.638   1.389 -0.3167 -0.1786  0.2334
 7237TIP3    H145906   4.770   4.574   1.442  0.3734 -0.8363  0.0715
 7237TIP3    H245907   4.809   4.606   1.299 -1.2052  0.7533 -0.0305
 7238TIP3   OH245908   5.386   4.681   0.905 -0.3398  0.1833  0.4292
 7238TIP3    H145909   5.466   4.685   0.958 -0.7403 -0.1424  1.0729
 7238TIP3    H245910   5.417   4.688   0.815  0.3617  0.6839  0.6974
 7239TIP3   OH245911   0.238   3.360   0.764  0.0872 -0.4127  0.4054
 7239TIP3    H145912   0.144   3.374   0.779  0.0316 -1.7275  1.4605
 7239TIP3    H245913   0.280   3.400   0.840  0.3513 -0.2494  0.1745
 7240TIP3   OH245914   7.378   1.653   3.345  0.1340 -0.0204 -0.1327
 7240TIP3    H145915   7.369   1.580   3.407  1.8717  0.3898  0.6919
 7240TIP3    H245916   7.354   1.731   3.396  1.2420  0.2838 -0.0440
 7241TIP3   OH245917   4.867   6.159   0.797  0.1652  0.0452 -0.1529
 7241TIP3    H145918   4.913   6.103   0.735  1.9163 -0.3733  1.4389
 7241TIP3    H245919   4.934   6.219   0.829 -0.4960 -0.2010  1.8178
 7242TIP3   OH245920   2.676   6.995   2.893  0.0611 -0.5233 -0.3350
 7242TIP3    H145921   2.656   7.001   2.800 -1.4823 -0.1636 -0.0115
 7242TIP3    H245922   2.598   7.029   2.936  2.1341  3.0945  1.0333
 7243TIP3   OH245923   7.087   2.937   0.836 -0.0630 -0.0464  0.0553
 7243TIP3    H145924   6.994   2.951   0.853  0.1154  1.4014 -0.0426
 7243TIP3    H245925   7.090   2.897   0.749 -0.5432  1.3156 -0.6176
 7244TIP3   OH245926   5.175   2.821   2.467 -0.1011 -0.0335  0.1054
 7244TIP3    H145927   5.172   2.916   2.476 -0.3201 -0.1395  1.3065
 7244TIP3    H245928   5.264   2.802   2.440 -0.3231  0.5741 -1.1403
 7245TIP3   OH245929   2.342   3.379   2.559 -0.1833  0.1349 -1.0507
 7245TIP3    H145930   2.376   3.301   2.602 -1.3821  0.6194  0.8926
 7245TIP3    H245931   2.247   3.369   2.562 -0.3375  0.4377 -3.2163
 7246TIP3   OH245932   5.975   1.352   2.446  0.4216 -0.0161 -0.7197
 7246TIP3    H145933   6.017   1.428   2.487  0.6351 -0.6692  0.3057
 7246TIP3    H245934   5.925   1.312   2.516  0.2156 -0.7556 -1.2852
 7247TIP3   OH245935   4.259   5.028   2.305 -0.0921  1.3653 -0.4886
 7247TIP3    H145936   4.329   5.038   2.241  0.4857  1.7236  0.1820
 7247TIP3    H245937   4.280   5.091   2.374  1.3601 -1.4735  1.8655
 7248TIP3   OH245938   7.384   2.269   1.093  0.8942 -0.2983 -0.0164
 7248TIP3    H145939   7.412   2.200   1.032  4.0730 -1.9618  2.9598
 7248TIP3    H245940   7.299   2.240   1.125  0.7005 -1.1178 -1.2203
 7249TIP3   OH245941   2.221   1.623   0.911 -0.4691 -0.0334 -0.3517
 7249TIP3    H145942   2.306   1.631   0.955 -1.0078 -1.0651  0.9529
 7249TIP3    H245943   2.211   1.705   0.863  1.3457  0.0200 -0.6929
 7250TIP3   OH245944   0.070   0.468   2.219  0.0446  0.0878 -0.2928
 7250TIP3    H145945  -0.003   0.512   2.175 -0.2375  1.1441  1.1706
 7250TIP3    H245946   0.113   0.537   2.270  1.3825 -0.7553 -0.2246
 7251TIP3   OH245947   7.599   0.115   2.505  0.1986  0.0200  0.3480
 7251TIP3    H145948   7.554   0.052   2.561  0.9456 -0.4822  0.4035
 7251TIP3    H245949   7.636   0.062   2.434  0.7156  0.4056  0.3202
 7252TIP3   OH245950   2.662   2.544   3.073 -0.1840  0.3868 -0.1391
 7252TIP3    H145951   2.696   2.500   3.150  1.1080  0.3759 -0.6973
 7252TIP3    H245952   2.728   2.611   3.051 -1.2835  1.4599 -0.3116
 7253TIP3   OH245953   1.129   2.474   2.267  0.6247  0.5138 -0.3740
 7253TIP3    H145954   1.222   2.496   2.273  0.4502  1.8289 -1.9961
 7253TIP3    H245955   1.124   2.415   2.192 -0.0356  1.6834 -1.2703
 7254TIP3   OH245956   0.345   2.014   2.171 -0.2379  0.4898 -0.5002
 7254TIP3    H145957   0.311   2.046   2.087  2.4243  1.8620 -1.1780
 7254TIP3    H245958   0.364   2.094   2.221  1.5283 -0.1468 -0.0693
 7255TIP3   OH245959   6.426   0.694   0.542 -0.0203  0.0627 -1.1103
 7255TIP3    H145960   6.507   0.643   0.533  0.4248  0.8245 -1.5552
 7255TIP3    H245961   6.444   0.776   0.495 -0.5748  0.8020 -0.0582
 7256TIP3   OH245962   5.432   2.742   1.398 -0.1038  0.2375  0.1099
 7256TIP3    H145963   5.341   2.713   1.393 -0.4417  0.5452  2.9049
 7256TIP3    H245964   5.481   2.676   1.349 -1.8668  0.5743 -2.2870
 7257TIP3   OH245965   3.573   2.663   3.358  0.2885  0.0589 -0.5251
 7257TIP3    H145966   3.559   2.719   3.282  0.6452 -0.0395 -0.6690
 7257TIP3    H245967   3.510   2.693   3.423  0.1858  0.3428 -0.7556
 7258TIP3   OH245968   0.431   3.183   0.614 -0.1492 -0.6891  0.7390
 7258TIP3    H145969   0.358   3.222   0.662  0.8465  2.5073 -0.0923
 7258TIP3    H245970   0.502   3.177   0.678 -0.1306 -0.6028  0.7261
 7259TIP3   OH245971   7.416   2.641   2.377 -0.0930  0.7257  0.1555
 7259TIP3    H145972   7.485   2.576   2.375  0.9982  1.7684  1.6797
 7259TIP3    H245973   7.344   2.599   2.425  0.4394  0.4743  0.7448
 7260TIP3   OH245974   5.716   7.181   3.311  0.0568 -0.3336  0.0780
 7260TIP3    H145975   5.807   7.154   3.305  0.3613 -0.4933  3.3462
 7260TIP3    H245976   5.667   7.108   3.271  1.2857 -0.7745 -0.6755
 7261TIP3   OH245977   3.819   1.297   1.641 -0.2644  0.0653  0.0802
 7261TIP3    H145978   3.897   1.285   1.695 -0.2959  2.7241  0.8653
 7261TIP3    H245979   3.792   1.209   1.617  1.6598 -1.0348  1.6961
 7262TIP3   OH245980   3.354   1.479   2.760  0.2048  0.0901  0.3611
 7262TIP3    H145981   3.390   1.442   2.680 -2.1932 -0.4604 -0.5651
 7262TIP3    H245982   3.299   1.409   2.796 -1.8745  1.5846  0.3015
 7263TIP3   OH245983   3.702   5.756   3.154 -0.0743 -0.0138  0.2691
 7263TIP3    H145984   3.790   5.722   3.167  0.0220  0.9561  2.7566
 7263TIP3    H245985   3.714   5.834   3.100  0.5051 -0.3016 -0.0202
 7264TIP3   OH245986   6.354   5.784   1.857  0.5844 -0.8333 -0.5489
 7264TIP3    H145987   6.390   5.724   1.792 -0.9881 -2.5841  0.1370
 7264TIP3    H245988   6.414   5.778   1.932  0.7356 -1.1160 -0.6930
 7265TIP3   OH245989   1.881   5.709   7.321 -0.5949  0.0873 -0.0482
 7265TIP3    H145990   1.884   5.766   7.398 -0.5100  1.5685 -1.1262
 7265TIP3    H245991   1.967   5.667   7.318 -0.5363  0.1581  0.5411
 7266TIP3   OH245992   7.386   6.786   0.865  0.5111  0.3654  0.0809
 7266TIP3    H145993   7.299   6.814   0.839 -0.1916 -2.1071 -0.5740
 7266TIP3    H245994   7.444   6.855   0.834 -1.2428  2.5134  1.3587
 7267TIP3   OH245995   5.455   2.921   2.067 -0.4069  0.0038  0.3707
 7267TIP3    H145996   5.546   2.952   2.074 -0.5240  0.1889  1.2208
 7267TIP3    H245997   5.416   2.977   2.000  0.4405 -0.9297 -0.9632
 7268TIP3   OH245998   3.729   5.738   0.661 -0.1998  0.2268  0.6651
 7268TIP3    H145999   3.769   5.674   0.721  0.4053 -0.5173 -0.5037
 7268TIP3    H246000   3.668   5.686   0.609  0.5674  0.5135 -0.5496
 7269TIP3   OH246001   1.128   7.289   0.952  0.7204 -0.0990 -0.2062
 7269TIP3    H146002   1.076   7.366   0.974  3.1964  0.6595  3.8725
 7269TIP3    H246003   1.087   7.218   1.001  1.2102 -0.3281 -0.1222
 7270TIP3   OH246004   0.820   3.630   0.961 -0.1212 -0.3860  0.2743
 7270TIP3    H146005   0.857   3.663   0.879 -1.4080  0.3222 -0.0631
 7270TIP3    H246006   0.827   3.535   0.954 -1.3063 -0.3972 -1.2318
 7271TIP3   OH246007   3.646   1.956   1.417 -0.1528 -0.5679 -0.3970
 7271TIP3    H146008   3.672   1.956   1.325  0.8612 -1.6683 -0.1423
 7271TIP3    H246009   3.723   1.921   1.463 -0.5318  0.2527  0.9006
 7272TIP3   OH246010   0.898   5.336   2.455 -0.6117 -0.2340 -0.3109
 7272TIP3    H146011   0.904   5.431   2.446  0.1607  0.0015  1.9945
 7272TIP3    H246012   0.961   5.314   2.524 -0.7070 -2.4391 -0.8354
 7273TIP3   OH246013   1.045   5.672   0.723 -0.9460  0.9784 -0.4608
 7273TIP3    H146014   1.026   5.720   0.642 -0.9950  2.6663  0.4922
 7273TIP3    H246015   1.114   5.610   0.699 -1.1622  1.2418 -1.8478
 7274TIP3   OH246016   0.656   4.010   1.260 -0.0239 -0.2431 -0.3020
 7274TIP3    H146017   0.628   3.918   1.259  0.6750 -0.4781  0.7208
 7274TIP3    H246018   0.726   4.013   1.325 -0.5723  1.1747  0.2551
 7275TIP3   OH246019   7.379   4.802   2.736 -0.3863  0.0890 -0.2402
 7275TIP3    H146020   7.472   4.805   2.710 -0.5475  0.1646 -0.8317
 7275TIP3    H246021   7.381   4.780   2.829  0.1517 -2.6112 -0.8077
 7276TIP3   OH246022   3.818   1.440   0.625 -0.2712  0.0047 -0.8591
 7276TIP3    H146023   3.869   1.511   0.664 -1.2197 -0.0412  0.5441
 7276TIP3    H246024   3.780   1.479   0.546  1.1474  0.3032 -1.4451
 7277TIP3   OH246025   5.547   6.803   3.401  0.0857 -1.0346  0.3153
 7277TIP3    H146026   5.453   6.803   3.385  0.2342  0.3008 -0.8278
 7277TIP3    H246027   5.569   6.711   3.418 -1.1393 -1.6993 -1.3503
 7278TIP3   OH246028   0.423   1.318   1.972 -0.0481 -0.2412  0.1137
 7278TIP3    H146029   0.378   1.330   2.056  0.4790  0.5252  0.2984
 7278TIP3    H246030   0.375   1.373   1.910  1.1377  1.3106  0.5097
 7279TIP3   OH246031   2.021   6.809   1.440 -0.2217 -0.0410 -0.0415
 7279TIP3    H146032   2.044   6.838   1.529 -2.2030  0.7114  0.2658
 7279TIP3    H246033   2.023   6.713   1.445 -2.7631 -0.0978  1.5796
 7280TIP3   OH246034   5.828   7.491   2.724  0.0599  0.4434 -0.3792
 7280TIP3    H146035   5.777   7.472   2.645  2.2492 -1.4340 -1.4503
 7280TIP3    H246036   5.772   7.461   2.796 -1.5865  1.3210 -1.2398
 7281TIP3   OH246037   1.143   5.787   0.468  0.1578  0.6589  0.0062
 7281TIP3    H146038   1.181   5.843   0.536 -0.3343  1.1242 -0.0906
 7281TIP3    H246039   1.129   5.845   0.394 -0.9387  0.5623  0.1159
 7282TIP3   OH246040   0.112   0.123   0.895  0.3272 -0.6573  0.0484
 7282TIP3    H146041   0.207   0.131   0.882  0.2325  0.2312 -0.1602
 7282TIP3    H246042   0.078   0.101   0.809  0.2399  0.0883 -0.1149
 7283TIP3   OH246043   2.630   6.683   2.030 -0.5383  0.0007 -0.5201
 7283TIP3    H146044   2.701   6.625   2.059  0.3724  0.7982 -1.1198
 7283TIP3    H246045   2.590   6.714   2.112 -0.2372 -0.5007 -0.1775
 7284TIP3   OH246046   5.871   2.942   1.883  0.3364 -0.3078  0.1846
 7284TIP3    H146047   5.880   2.995   1.804 -0.3113  0.2055  0.4508
 7284TIP3    H246048   5.959   2.937   1.919  0.4268  0.4658  0.0791
 7285TIP3   OH246049   5.621   5.577   0.789 -0.0266 -0.0732 -0.2068
 7285TIP3    H146050   5.615   5.570   0.885 -0.7568  2.4992  0.0203
 7285TIP3    H246051   5.675   5.503   0.763  1.7214  0.1466  2.3963
 7286TIP3   OH246052   5.325   7.648   1.517 -0.4795  0.3993  0.2353
 7286TIP3    H146053   5.364   7.729   1.485 -0.6150 -0.0452 -1.1097
 7286TIP3    H246054   5.358   7.580   1.458 -2.0509 -0.2128 -0.0033
 7287TIP3   OH246055   1.640   0.404   0.528 -0.0093 -0.3490 -0.2666
 7287TIP3    H146056   1.731   0.383   0.549  0.3190  0.3280 -0.9806
 7287TIP3    H246057   1.635   0.499   0.535  0.2031  0.0074 -3.3808
 7288TIP3   OH246058   5.435   0.610   2.198 -0.3162 -0.4715  0.7067
 7288TIP3    H146059   5.396   0.643   2.279 -0.0526  0.0349  0.6301
 7288TIP3    H246060   5.526   0.589   2.221  0.0767  0.7000  0.2918
 7289TIP3   OH246061   0.804   2.001   2.224 -0.1681  0.1003 -0.2140
 7289TIP3    H146062   0.719   1.968   2.195  0.1941 -0.3514 -0.7758
 7289TIP3    H246063   0.838   2.051   2.150 -0.6820  1.7495  0.5996
 7290TIP3   OH246064   2.767   5.382   2.339 -0.1077  0.1843 -0.3504
 7290TIP3    H146065   2.789   5.363   2.430 -1.3390 -0.0369 -0.0688
 7290TIP3    H246066   2.722   5.303   2.308  0.6701  0.0927 -1.2867
 7291TIP3   OH246067   1.974   7.484   1.767 -0.2381 -0.3018 -0.4236
 7291TIP3    H146068   1.973   7.578   1.785  0.0546 -0.0142 -1.7800
 7291TIP3    H246069   2.067   7.462   1.764 -0.2984 -0.5453 -0.5030
 7292TIP3   OH246070   0.249   2.302   2.607 -0.0392  0.0234  0.1095
 7292TIP3    H146071   0.160   2.319   2.578 -0.3030  0.6867  1.2431
 7292TIP3    H246072   0.289   2.388   2.616  0.2304 -0.1849  1.0406
 7293TIP3   OH246073   7.537   0.697   2.409  0.6000 -0.0374  0.0668
 7293TIP3    H146074   7.602   0.681   2.477  1.4655  0.7860 -0.5415
 7293TIP3    H246075   7.584   0.683   2.327 -0.1425  0.0191 -0.3780
 7294TIP3   OH246076   6.609   4.760   2.535  0.4656  0.0908  0.0789
 7294TIP3    H146077   6.613   4.793   2.625  1.6729 -0.6747  0.3335
 7294TIP3    H246078   6.624   4.666   2.543  0.2940 -0.0303 -0.9043
 7295TIP3   OH246079   5.894   1.510   2.155  0.1260  0.4240 -0.0549
 7295TIP3    H146080   5.846   1.555   2.224  0.4497 -0.5047  0.8137
 7295TIP3    H246081   5.932   1.434   2.199  1.8569  0.7846 -0.8538
 7296TIP3   OH246082   0.237   3.788   2.201  0.2585 -0.1389  0.4659
 7296TIP3    H146083   0.324   3.761   2.172  0.2079  0.1840  0.0022
 7296TIP3    H246084   0.180   3.770   2.126 -0.6293 -3.0626  1.6951
 7297TIP3   OH246085   3.010   1.414   0.745 -0.0040  0.7244 -0.2013
 7297TIP3    H146086   2.977   1.360   0.817  0.4296  0.1981 -0.3926
 7297TIP3    H246087   3.105   1.406   0.750  0.0618  1.3499 -0.3301
 7298TIP3   OH246088   4.531   3.704   2.100 -0.1414  0.1420 -0.4150
 7298TIP3    H146089   4.508   3.631   2.157 -0.9073  0.3951 -0.3797
 7298TIP3    H246090   4.517   3.671   2.011  1.3195 -0.3413 -0.4831
 7299TIP3   OH246091   4.900   3.592   0.763  0.2486 -0.3420 -0.2820
 7299TIP3    H146092   4.922   3.663   0.702 -0.2399  0.1570  0.1022
 7299TIP3    H246093   4.974   3.533   0.760  0.6816  0.2081 -0.5947
 7300TIP3   OH246094   5.788   6.586   1.512 -0.4625 -0.0482  0.0175
 7300TIP3    H146095   5.718   6.625   1.458 -0.0072 -0.3211 -0.7954
 7300TIP3    H246096   5.865   6.590   1.456 -0.0990 -0.8585  0.4515
 7301TIP3   OH246097   3.858   6.244   0.765  0.5640 -0.2645 -0.1707
 7301TIP3    H146098   3.854   6.312   0.697 -3.3641  1.2992  1.3431
 7301TIP3    H246099   3.779   6.192   0.752  1.0131 -1.5025  1.6638
 7302TIP3   OH246100   4.160   4.690   2.119 -0.1246 -0.0997 -0.3702
 7302TIP3    H146101   4.075   4.702   2.077 -0.3414 -0.1707  0.0528
 7302TIP3    H246102   4.196   4.779   2.126 -0.5247  0.0233  0.2060
 7303TIP3   OH246103   7.561   4.367   0.753  0.1169  0.8257 -0.3180
 7303TIP3    H146104   7.638   4.316   0.781  0.4776 -0.1611 -2.7924
 7303TIP3    H246105   7.598   4.448   0.717 -0.1440  1.1003  0.0290
 7304TIP3   OH246106   2.257   6.482   2.151  0.6017  0.1763 -0.6784
 7304TIP3    H146107   2.303   6.430   2.217  0.1877  1.1366  0.3866
 7304TIP3    H246108   2.196   6.420   2.111 -0.1273 -0.1320  0.8102
 7305TIP3   OH246109   2.737   5.814   1.788 -0.1100 -0.2902  0.0002
 7305TIP3    H146110   2.821   5.805   1.742 -0.4195 -0.3925 -0.5517
 7305TIP3    H246111   2.726   5.908   1.801 -0.1506 -0.2425 -0.3796
 7306TIP3   OH246112   2.913   1.525   0.505 -0.5125 -0.3946 -0.5471
 7306TIP3    H146113   2.935   1.479   0.586 -0.2159  2.0705  0.8779
 7306TIP3    H246114   2.818   1.536   0.508 -0.6416 -1.2124 -1.1082
 7307TIP3   OH246115   1.799   0.325   0.918 -0.2788  0.0340  0.8606
 7307TIP3    H146116   1.809   0.264   0.845 -0.9227 -1.0778  1.6576
 7307TIP3    H246117   1.871   0.304   0.977  0.1141  0.7758  0.6449
 7308TIP3   OH246118   6.813   3.055   0.850  0.5335  0.4042  0.2325
 7308TIP3    H146119   6.845   3.139   0.883  1.9757 -0.0020 -0.0620
 7308TIP3    H246120   6.782   3.074   0.762  1.5176  0.5157 -0.1033
 7309TIP3   OH246121   7.265   1.709   1.256 -0.0975 -0.8499  0.4312
 7309TIP3    H146122   7.335   1.680   1.197 -0.3157  0.6245 -0.6118
 7309TIP3    H246123   7.214   1.772   1.204 -1.2305 -0.6605  1.7026
 7310TIP3   OH246124   2.075   6.601   1.953 -0.0157 -0.1651 -0.3132
 7310TIP3    H146125   2.095   6.681   2.003 -0.4480 -0.1451 -0.1656
 7310TIP3    H246126   2.153   6.585   1.900  0.9241 -0.8066  1.1873
 7311TIP3   OH246127   1.066   2.397   0.908 -0.5012 -0.5670  0.2099
 7311TIP3    H146128   1.135   2.395   0.841  0.8691 -0.8367  1.5586
 7311TIP3    H246129   1.012   2.473   0.884  0.1831 -0.4085 -0.9553
 7312TIP3   OH246130   6.674   5.885   0.932  0.1912 -0.3613 -0.1688
 7312TIP3    H146131   6.639   5.847   1.012  0.3308  0.9167  0.5303
 7312TIP3    H246132   6.661   5.818   0.865  0.3778 -1.5750  0.9857
 7313TIP3   OH246133   2.431   4.315   1.670 -0.7249  0.0033  0.2250
 7313TIP3    H146134   2.495   4.332   1.601 -1.1617  0.9967  0.0471
 7313TIP3    H246135   2.477   4.258   1.732  1.2180  2.5766  1.3305
 7314TIP3   OH246136   6.438   1.194   1.788 -0.6601  0.1794 -0.3536
 7314TIP3    H146137   6.348   1.202   1.756 -1.1704 -0.4137  0.9018
 7314TIP3    H246138   6.470   1.113   1.749 -0.3215  0.8784 -1.5789
 7315TIP3   OH246139   6.954   3.001   1.824 -0.2871 -0.1036  0.4495
 7315TIP3    H146140   7.038   3.046   1.818 -0.7081  0.7412  0.7358
 7315TIP3    H246141   6.975   2.917   1.864  0.5990 -0.4217 -0.6194
 7316TIP3   OH246142   5.000   2.426   1.929 -0.3710  0.0521  0.0433
 7316TIP3    H146143   4.979   2.510   1.890 -2.1695  0.0705  0.9436
 7316TIP3    H246144   5.027   2.371   1.856  1.3327  1.5158 -0.4922
 7317TIP3   OH246145   5.484   0.440   1.490  0.1588  0.0820 -0.4918
 7317TIP3    H146146   5.560   0.385   1.511 -0.7323 -0.7952  0.6193
 7317TIP3    H246147   5.520   0.512   1.440  1.5808 -0.8331 -0.8642
 7318TIP3   OH246148   7.443   6.198   2.310 -0.2063  0.4510 -0.2946
 7318TIP3    H146149   7.510   6.218   2.375 -0.1175  1.9652 -0.7990
 7318TIP3    H246150   7.449   6.104   2.297  0.6424  0.3142  0.9356
 7319TIP3   OH246151   3.245   3.155   1.207 -0.0745 -0.6992  0.1583
 7319TIP3    H146152   3.309   3.221   1.234 -1.5004  0.3769  1.0575
 7319TIP3    H246153   3.291   3.102   1.142  1.1710  1.1284 -0.5453
 7320TIP3   OH246154   5.146   7.637   3.295  0.0105  0.3366  0.1425
 7320TIP3    H146155   5.210   7.577   3.256 -0.2228 -1.0969  1.8436
 7320TIP3    H246156   5.062   7.602   3.268 -0.0974  0.6300  0.1051
 7321TIP3   OH246157   0.294   0.370   2.063 -0.2797 -0.3131 -0.1106
 7321TIP3    H146158   0.211   0.389   2.106  0.5898  0.7903  1.1972
 7321TIP3    H246159   0.278   0.386   1.970 -1.2537  0.9363  0.2432
 7322TIP3   OH246160   5.800   0.787   3.250  0.0994  0.1023 -0.8553
 7322TIP3    H146161   5.807   0.874   3.211  1.6299  0.0075 -0.8482
 7322TIP3    H246162   5.707   0.766   3.245 -0.2564  1.6175 -1.1108
 7323TIP3   OH246163   4.914   0.302   1.011 -0.2435 -0.2548  0.1185
 7323TIP3    H146164   4.828   0.314   0.971  0.4592  0.8220 -1.1513
 7323TIP3    H246165   4.896   0.288   1.104 -1.7458  1.2947  0.1132
 7324TIP3   OH246166   1.005   0.362   1.687 -0.0979 -0.3541  0.1846
 7324TIP3    H146167   1.085   0.415   1.692 -0.6403  0.6343 -0.9419
 7324TIP3    H246168   0.948   0.412   1.629 -0.6849 -2.1308 -0.8456
 7325TIP3   OH246169   5.950   0.083   2.692 -0.4786 -0.0262  0.0335
 7325TIP3    H146170   5.964   0.115   2.782  0.2831 -1.6434  0.5255
 7325TIP3    H246171   5.884   0.014   2.701  0.8268 -1.3842 -0.3552
 7326TIP3   OH246172   4.425   7.012   1.531  0.3490 -0.2556 -0.8048
 7326TIP3    H146173   4.437   6.957   1.609  0.5883  0.3746 -0.3878
 7326TIP3    H246174   4.507   7.002   1.482  0.7612  0.4191 -0.2769
 7327TIP3   OH246175   3.355   6.885   2.140 -0.1958 -0.2879 -0.2882
 7327TIP3    H146176   3.354   6.808   2.196  0.5957  0.3822  0.6903
 7327TIP3    H246177   3.422   6.866   2.074 -1.8775 -1.5257 -1.7220
 7328TIP3   OH246178   3.397   2.390   0.870  0.1403  0.6516 -0.2231
 7328TIP3    H146179   3.480   2.349   0.847 -0.7545 -0.8236 -0.9133
 7328TIP3    H246180   3.412   2.427   0.958  0.9207 -1.3844  0.5466
 7329TIP3   OH246181   0.384   3.505   0.960  0.5347  0.1059 -0.2298
 7329TIP3    H146182   0.399   3.542   1.047 -0.9770  0.8626 -0.2506
 7329TIP3    H246183   0.464   3.525   0.911  1.7779 -1.1012  1.1907
 7330TIP3   OH246184   0.629   6.518   3.315 -0.2806 -0.1131 -0.2451
 7330TIP3    H146185   0.658   6.585   3.254 -1.5958  0.8576  0.1512
 7330TIP3    H246186   0.710   6.477   3.346  0.4685  0.2589 -1.6198
 7331TIP3   OH246187   5.605   5.422   2.112 -0.3336 -0.1091  0.1252
 7331TIP3    H146188   5.620   5.373   2.032  0.0828  0.1401  0.0500
 7331TIP3    H246189   5.561   5.502   2.084 -0.5919 -0.2257  0.1960
 7332TIP3   OH246190   2.819   6.290   2.984 -0.2030  0.3106 -0.0692
 7332TIP3    H146191   2.814   6.351   2.910  1.6485  1.4017  0.6351
 7332TIP3    H246192   2.799   6.343   3.060 -2.1031 -0.8105  0.2726
 7333TIP3   OH246193   3.168   5.840   1.397 -0.0676 -0.0042 -0.6195
 7333TIP3    H146194   3.132   5.928   1.390 -0.1772 -0.0053 -0.0996
 7333TIP3    H246195   3.214   5.826   1.314 -2.0325 -0.3649 -1.7184
 7334TIP3   OH246196   0.888   3.616   2.137  0.6771  0.6153  0.7553
 7334TIP3    H146197   0.864   3.602   2.229 -0.0039  2.7287  0.9703
 7334TIP3    H246198   0.838   3.694   2.111  0.3090 -0.3244 -1.6425
 7335TIP3   OH246199   7.353   0.084   2.257  0.0745 -0.0418  0.1678
 7335TIP3    H146200   7.398   0.167   2.277  0.6225 -0.4766  0.7781
 7335TIP3    H246201   7.285   0.077   2.323 -0.0396 -0.0308  0.0522
 7336TIP3   OH246202   0.140   1.495   3.434 -0.0944  0.0810  0.2292
 7336TIP3    H146203   0.207   1.487   3.366  1.0131  0.5139  1.2225
 7336TIP3    H246204   0.125   1.406   3.464  1.0265  0.0972  0.8949
 7337TIP3   OH246205   2.325   2.348   3.155 -0.6091 -0.2003 -0.2212
 7337TIP3    H146206   2.236   2.333   3.185 -0.4097 -1.7866 -0.3456
 7337TIP3    H246207   2.376   2.279   3.197  0.5539  0.6097 -0.2472
 7338TIP3   OH246208   2.846   3.665   2.129 -0.3077  0.9763 -0.0795
 7338TIP3    H146209   2.837   3.597   2.062  2.3568  0.6286 -0.1592
 7338TIP3    H246210   2.811   3.744   2.087 -1.4303  0.1454 -0.7634
 7339TIP3   OH246211   1.421   0.663   1.294 -0.6643  0.0999 -0.4439
 7339TIP3    H146212   1.423   0.664   1.390  1.0070  1.2357 -0.4387
 7339TIP3    H246213   1.330   0.640   1.272 -1.4499  1.1463  1.4202
 7340TIP3   OH246214   1.686   0.423   1.312  0.1088  0.2370  0.0288
 7340TIP3    H146215   1.727   0.508   1.296 -0.1594  0.5852  1.0765
 7340TIP3    H246216   1.596   0.433   1.280  0.5151 -0.1907 -1.3163
 7341TIP3   OH246217   2.773   1.005   2.777 -0.0873 -0.5250 -0.0838
 7341TIP3    H146218   2.853   1.056   2.790  0.2406 -0.4102 -2.1587
 7341TIP3    H246219   2.719   1.059   2.720 -0.1807 -2.0097 -1.4776
 7342TIP3   OH246220   7.078   6.647   1.738 -0.1325 -0.3208 -0.2775
 7342TIP3    H146221   7.171   6.627   1.727 -0.2926 -1.6134  0.5402
 7342TIP3    H246222   7.073   6.687   1.825 -0.6665 -2.8806  0.9674
 7343TIP3   OH246223   1.496   3.835   2.629 -0.1917 -0.4396 -0.1976
 7343TIP3    H146224   1.494   3.929   2.610  1.0833 -0.0485  1.4013
 7343TIP3    H246225   1.459   3.827   2.716  1.3620 -1.1614  0.4471
 7344TIP3   OH246226   7.630   3.099   1.694  0.3941  0.4150  0.1598
 7344TIP3    H146227   7.686   3.096   1.772 -1.6949  1.8457  1.8236
 7344TIP3    H246228   7.614   3.008   1.672  2.5171 -0.0198  0.2366
 7345TIP3   OH246229   0.337   2.296   1.144  0.5077  0.6800 -0.0324
 7345TIP3    H146230   0.401   2.248   1.091 -0.0620 -0.5816  0.3704
 7345TIP3    H246231   0.366   2.282   1.235 -1.0155 -1.0734  0.2645
 7346TIP3   OH246232   1.228   0.344   1.391  0.1935 -0.1045  0.2738
 7346TIP3    H146233   1.136   0.343   1.416 -0.1532  1.4209 -0.8209
 7346TIP3    H246234   1.229   0.329   1.297  0.8293  2.2067 -0.1636
 7347TIP3   OH246235   5.411   3.668   1.990 -0.2697 -0.0585 -0.1269
 7347TIP3    H146236   5.334   3.651   1.936  0.0880 -1.2803 -0.2793
 7347TIP3    H246237   5.482   3.678   1.928 -0.1101 -0.0308  0.0600
 7348TIP3   OH246238   7.531   0.205   1.028 -0.2114 -0.2793  0.3253
 7348TIP3    H146239   7.525   0.201   1.124  1.9571 -1.5289  0.4856
 7348TIP3    H246240   7.625   0.216   1.011 -0.4666 -0.8370 -1.6689
 7349TIP3   OH246241   4.149   7.221   2.272 -0.4963 -0.1602  0.1779
 7349TIP3    H146242   4.153   7.224   2.177  0.2884  2.4135  0.2180
 7349TIP3    H246243   4.059   7.246   2.293 -0.0827  1.5460  0.0865
 7350TIP3   OH246244   2.925   5.532   1.809  0.5004 -0.1015  0.7259
 7350TIP3    H146245   2.886   5.596   1.868 -1.2361 -0.5005  0.0494
 7350TIP3    H246246   2.922   5.573   1.723  0.3819 -0.6495  0.4604
 7351TIP3   OH246247   1.257   1.873   1.596 -0.5535  0.1659  0.4191
 7351TIP3    H146248   1.227   1.917   1.516  1.7046  2.3247  0.6333
 7351TIP3    H246249   1.352   1.878   1.592 -0.2608 -2.2919  1.9075
 7352TIP3   OH246250   5.705   0.919   2.668 -0.4427 -0.2657  0.4877
 7352TIP3    H146251   5.701   0.921   2.763 -0.0694  0.9243  0.4950
 7352TIP3    H246252   5.637   0.981   2.640 -0.9419 -1.0322 -0.0445
 7353TIP3   OH246253   1.723   4.704   1.792 -0.1427 -0.1561  0.3583
 7353TIP3    H146254   1.691   4.791   1.816 -1.7978 -0.5881 -0.1019
 7353TIP3    H246255   1.814   4.703   1.820 -0.5356  1.1549  1.8383
 7354TIP3   OH246256   1.906   5.085   2.381  0.4585 -0.1934 -0.0798
 7354TIP3    H146257   1.869   5.018   2.439 -0.3054  0.3668  0.0884
 7354TIP3    H246258   1.855   5.164   2.399  0.7618  0.2089 -0.9131
 7355TIP3   OH246259   5.574   5.544   2.901 -0.0696 -0.6487  0.1547
 7355TIP3    H146260   5.506   5.600   2.865  1.3020  0.2085 -1.1887
 7355TIP3    H246261   5.588   5.577   2.990 -0.7986 -0.2928  0.1422
 7356TIP3   OH246262   3.028   1.523   2.030  0.6236 -0.4162  0.4863
 7356TIP3    H146263   3.073   1.597   2.072  2.0142 -0.5670 -0.6529
 7356TIP3    H246264   3.018   1.550   1.939 -1.9155 -0.2850  0.7327
 7357TIP3   OH246265   6.668   1.515   2.397 -0.2796  0.3400  0.0165
 7357TIP3    H146266   6.651   1.454   2.325 -0.5747 -0.0803  0.4377
 7357TIP3    H246267   6.742   1.476   2.444  2.4071  2.4190 -2.1196
 7358TIP3   OH246268   1.502   4.704   2.575  0.6351 -0.0178  0.4388
 7358TIP3    H146269   1.454   4.706   2.492  0.8380  0.5842  0.3323
 7358TIP3    H246270   1.448   4.650   2.633 -0.2941  0.8387  0.3963
 7359TIP3   OH246271   4.789   1.178   2.012  0.2154  0.2672 -0.4345
 7359TIP3    H146272   4.793   1.273   2.024 -0.6099  0.3248 -0.5696
 7359TIP3    H246273   4.826   1.163   1.925  2.1291  0.2633  0.3189
 7360TIP3   OH246274   4.410   2.307   2.734 -0.0693  0.3802  0.7567
 7360TIP3    H146275   4.496   2.304   2.692  0.0292  0.8906  0.9046
 7360TIP3    H246276   4.347   2.298   2.663  0.0711  2.3822  0.3076
 7361TIP3   OH246277   6.975   5.946   1.432 -0.0925 -0.0415 -0.2558
 7361TIP3    H146278   7.067   5.922   1.436  0.0959  0.6274 -0.3512
 7361TIP3    H246279   6.949   5.956   1.524  0.1379  0.4861 -0.2401
 7362TIP3   OH246280   0.401   2.850   2.099 -0.5397 -0.0004 -0.1517
 7362TIP3    H146281   0.418   2.924   2.157 -0.0157 -0.8147  0.7751
 7362TIP3    H246282   0.455   2.866   2.022  1.1522 -0.3885  0.9011
 7363TIP3   OH246283   0.179   0.891   0.949 -0.3010  0.2766  0.4811
 7363TIP3    H146284   0.222   0.810   0.922 -3.0393 -0.9170 -0.6386
 7363TIP3    H246285   0.199   0.899   1.043 -0.6437 -2.1724  0.8100
 7364TIP3   OH246286   0.559   0.970   0.930 -0.1487 -0.2704 -0.1047
 7364TIP3    H146287   0.564   0.917   0.850 -1.4946  0.8689 -0.9860
 7364TIP3    H246288   0.651   0.986   0.954  0.2685 -1.4212 -0.8678
 7365TIP3   OH246289   3.575   4.872   1.992  0.1013 -0.0530 -0.3491
 7365TIP3    H146290   3.490   4.829   2.000  0.8253 -1.2079  2.1893
 7365TIP3    H246291   3.554   4.963   1.971 -1.7282 -0.3831 -0.1290
 7366TIP3   OH246292   4.121   5.630   2.553 -0.5704  0.2977  0.6100
 7366TIP3    H146293   4.173   5.552   2.570  1.0253  0.5581 -2.4261
 7366TIP3    H246294   4.164   5.699   2.603  1.7186  0.3512 -1.2627
 7367TIP3   OH246295   3.929   5.611   1.834 -0.6471  0.3351  0.2859
 7367TIP3    H146296   3.968   5.533   1.872 -1.0660  0.8197  1.8187
 7367TIP3    H246297   3.911   5.588   1.743  2.8182 -0.0295 -0.4397
 7368TIP3   OH246298   6.403   1.912   2.133 -0.1221 -0.3971  0.3846
 7368TIP3    H146299   6.373   1.830   2.094  1.1118 -0.6579 -0.0712
 7368TIP3    H246300   6.492   1.892   2.164 -0.6876  0.0929  2.4289
 7369TIP3   OH246301   2.852   7.539   1.963 -0.6104 -0.0834  0.0112
 7369TIP3    H146302   2.908   7.586   2.025 -0.3258 -0.8131  0.3113
 7369TIP3    H246303   2.835   7.455   2.004 -3.6418  0.8249  0.8819
 7370TIP3   OH246304   6.325   2.426   0.873 -0.2081 -0.5745 -0.4851
 7370TIP3    H146305   6.239   2.417   0.915 -0.0423  0.7616  0.1862
 7370TIP3    H246306   6.333   2.520   0.855  0.9080 -0.7533 -0.9946
 7371TIP3   OH246307   1.033   1.939   3.146 -0.6432 -0.2788 -0.4630
 7371TIP3    H146308   1.122   1.965   3.123 -0.5178 -1.3834 -1.3486
 7371TIP3    H246309   0.983   2.021   3.150  0.0297  0.2151 -1.7336
 7372TIP3   OH246310   1.823   7.298   1.326  0.1783 -0.0874 -0.5010
 7372TIP3    H146311   1.812   7.226   1.264 -1.5922 -1.1084  0.9002
 7372TIP3    H246312   1.870   7.260   1.400 -1.1791 -0.0010  0.4542
 7373TIP3   OH246313   5.368   2.955   0.474 -0.4766  0.2478  0.3251
 7373TIP3    H146314   5.429   2.890   0.438 -1.3815  0.0384 -0.8969
 7373TIP3    H246315   5.327   2.910   0.547  0.4976  0.2369  0.8900
 7374TIP3   OH246316   4.565   0.541   1.337 -0.6624 -0.7396 -0.0044
 7374TIP3    H146317   4.613   0.564   1.416 -0.9486  1.5725 -0.4512
 7374TIP3    H246318   4.495   0.606   1.331 -0.5193 -0.7294 -2.2692
 7375TIP3   OH246319   4.282   2.314   0.856 -0.3189  0.2570 -0.2656
 7375TIP3    H146320   4.252   2.359   0.935  1.4120 -1.1172  1.2531
 7375TIP3    H246321   4.343   2.376   0.815  0.0472  0.3394  0.3905
 7376TIP3   OH246322   2.995   3.069   3.472 -0.1512  0.1758  1.0091
 7376TIP3    H146323   2.966   3.114   3.392  1.3786 -0.1075  0.2709
 7376TIP3    H246324   2.919   3.018   3.499 -1.2300  1.5321  0.6665
 7377TIP3   OH246325   1.806   7.334   0.958  0.2187  0.4989 -0.1870
 7377TIP3    H146326   1.776   7.392   0.889 -1.6736 -0.4678 -0.2599
 7377TIP3    H246327   1.761   7.365   1.037  0.4699  0.1338  0.1055
 7378TIP3   OH246328   1.398   3.895   1.215 -0.4986  0.0092 -0.1608
 7378TIP3    H146329   1.412   3.988   1.196  0.1900  0.3621  1.8404
 7378TIP3    H246330   1.308   3.890   1.248  0.3066  0.4866  2.3137
 7379TIP3   OH246331   1.793   1.493   1.731 -0.4139 -1.0339 -0.1998
 7379TIP3    H146332   1.737   1.417   1.747 -0.1866 -1.4535 -1.2691
 7379TIP3    H246333   1.790   1.504   1.636  0.8149 -0.6785 -0.2062
 7380TIP3   OH246334   1.058   2.729   2.626 -0.3214 -0.4951 -0.0139
 7380TIP3    H146335   1.094   2.640   2.621 -1.4137 -1.0723  1.5637
 7380TIP3    H246336   1.050   2.746   2.720  0.1760  1.4242 -0.2806
 7381TIP3   OH246337   5.942   6.140   1.291 -0.5835 -0.4118  0.0334
 7381TIP3    H146338   6.007   6.070   1.283 -1.7605 -2.4085  4.6354
 7381TIP3    H246339   5.992   6.221   1.285  1.8208 -1.7913  0.4748
 7382TIP3   OH246340   6.406   3.890   1.759 -0.1317  0.4187  0.1184
 7382TIP3    H146341   6.327   3.933   1.724 -0.0927  0.8881  0.5908
 7382TIP3    H246342   6.403   3.909   1.853  0.7657  0.8034  0.0775
 7383TIP3   OH246343   2.008   0.753   0.800 -0.4682  0.1883 -0.3126
 7383TIP3    H146344   2.013   0.844   0.828 -1.1678  0.9425 -2.4650
 7383TIP3    H246345   1.942   0.714   0.856  1.7711  0.1766  2.5509
 7384TIP3   OH246346   4.170   0.622   1.148 -0.0925 -0.4829  0.3633
 7384TIP3    H146347   4.171   0.549   1.210 -1.6825 -0.4087  0.5149
 7384TIP3    H246348   4.083   0.660   1.157  0.9152  1.8691  0.7432
 7385TIP3   OH246349   6.060   6.043   1.619 -0.0811  0.1946 -0.1223
 7385TIP3    H146350   6.045   6.047   1.714  1.4198  0.3146  0.1290
 7385TIP3    H246351   5.980   6.003   1.584 -1.3587  1.6267  0.9955
 7386TIP3   OH246352   0.926   4.471   2.066 -0.0920  0.0445  0.1166
 7386TIP3    H146353   0.927   4.541   2.000 -1.0502  0.7511  0.8369
 7386TIP3    H246354   0.861   4.409   2.034  1.7818 -1.3209 -1.2840
 7387TIP3   OH246355   6.611   0.545   2.965 -0.1366 -0.1020  0.0737
 7387TIP3    H146356   6.526   0.587   2.977  0.2208  0.5208  0.5117
 7387TIP3    H246357   6.652   0.548   3.052  0.5515  0.1131 -0.2442
 7388TIP3   OH246358   5.101   7.180   1.700 -0.4610 -0.2575 -0.0237
 7388TIP3    H146359   5.028   7.160   1.641 -1.2316  0.5208  0.6371
 7388TIP3    H246360   5.097   7.275   1.712  0.3264 -0.2789  0.4578
 7389TIP3   OH246361   1.421   5.493   2.482  0.1670  0.2221 -0.3471
 7389TIP3    H146362   1.501   5.469   2.530 -0.2323 -1.5204 -0.4839
 7389TIP3    H246363   1.351   5.486   2.547 -0.0688  0.2187 -0.5984
 7390TIP3   OH246364   2.808   7.206   1.752  0.5216 -0.6892 -0.5305
 7390TIP3    H146365   2.891   7.251   1.735 -0.5586  2.1027  0.9303
 7390TIP3    H246366   2.783   7.233   1.840 -1.5065 -2.2121 -0.5619
 7391TIP3   OH246367   2.584   0.850   1.287  0.0396 -0.2150  0.4326
 7391TIP3    H146368   2.504   0.818   1.246 -0.3539 -0.6298  1.4986
 7391TIP3    H246369   2.607   0.928   1.237 -0.1336 -0.9814 -0.8955
 7392TIP3   OH246370   2.987   5.620   0.922  0.2536  0.1744 -0.2225
 7392TIP3    H146371   2.950   5.666   0.847  0.2130  0.3492 -0.0959
 7392TIP3    H246372   2.978   5.527   0.900 -1.0515  0.1797  0.1657
 7393TIP3   OH246373   3.696   0.818   1.825 -0.4171  0.2126  0.5930
 7393TIP3    H146374   3.611   0.857   1.805 -1.4237 -2.9120 -2.1981
 7393TIP3    H246375   3.677   0.726   1.846  2.2145 -0.8847 -1.1139
 7394TIP3   OH246376   6.191   6.297   2.489  0.1218  0.3476 -0.0545
 7394TIP3    H146377   6.136   6.351   2.432  0.9094  0.8689 -0.3387
 7394TIP3    H246378   6.134   6.273   2.562 -1.9680 -3.0383 -2.5148
 7395TIP3   OH246379   3.507   1.313   2.592 -0.3285 -0.0724 -0.3156
 7395TIP3    H146380   3.528   1.255   2.664  0.4638  0.9999  0.3372
 7395TIP3    H246381   3.539   1.267   2.514  0.7981 -0.2707  0.2468
 7396TIP3   OH246382   1.960   5.755   3.529 -0.1423 -0.1678 -0.2047
 7396TIP3    H146383   1.915   5.833   3.494 -0.1732 -0.1747 -0.1790
 7396TIP3    H246384   2.045   5.756   3.484 -0.0757 -0.0236 -0.0769
 7397TIP3   OH246385   0.144   1.796   3.000  0.5077  0.2980  0.0237
 7397TIP3    H146386   0.060   1.807   2.956  0.1903 -0.0740  0.5296
 7397TIP3    H246387   0.124   1.743   3.077  1.3554 -0.5919 -0.3475
 7398TIP3   OH246388   4.749   0.437   2.274 -0.0038 -0.1567 -0.0132
 7398TIP3    H146389   4.797   0.448   2.192 -0.8699 -0.4261 -0.5774
 7398TIP3    H246390   4.717   0.347   2.271 -0.2059 -0.1071  0.5272
 7399TIP3   OH246391   1.402   5.200   2.606 -0.4047  0.0736 -0.0914
 7399TIP3    H146392   1.473   5.164   2.552 -0.4470  0.5785 -0.4913
 7399TIP3    H246393   1.325   5.196   2.549 -1.0279 -1.7214  0.7749
 7400TIP3   OH246394   7.572   7.104   2.450  0.2223 -0.3266  0.2036
 7400TIP3    H146395   7.648   7.048   2.465  2.2221  1.5780 -1.9391
 7400TIP3    H246396   7.523   7.060   2.381  2.1925  0.7543 -2.0200
 7401TIP3   OH246397   2.921   2.684   1.111  0.0003 -0.1266 -0.2477
 7401TIP3    H146398   2.970   2.623   1.055  0.9348 -0.7064  1.1661
 7401TIP3    H246399   2.957   2.770   1.091  1.1410 -0.4711  0.2836
 7402TIP3   OH246400   4.211   1.812   3.262  1.1228  0.2246 -0.3732
 7402TIP3    H146401   4.296   1.769   3.276  1.1849 -0.4927 -2.6496
 7402TIP3    H246402   4.230   1.905   3.269  2.0849  0.0670 -0.7351
 7403TIP3   OH246403   3.896   6.161   1.923  0.2431  0.0170  0.0719
 7403TIP3    H146404   3.961   6.109   1.876  1.5594  0.6409  1.1443
 7403TIP3    H246405   3.909   6.139   2.015 -1.3187 -0.0977  0.3035
 7404TIP3   OH246406   2.395   5.344   1.374  0.3252  0.1184  0.7002
 7404TIP3    H146407   2.380   5.435   1.400  1.4502  0.4453  0.2797
 7404TIP3    H246408   2.478   5.346   1.326  1.1289 -1.3466  1.8994
 7405TIP3   OH246409   1.969   6.493   1.122 -0.0481 -0.5806  0.6429
 7405TIP3    H146410   1.903   6.447   1.175 -0.1363  0.5358  1.5263
 7405TIP3    H246411   1.926   6.508   1.038 -1.3961  1.1758  1.5891
 7406TIP3   OH246412   0.236   4.765   1.595 -0.2363  0.1828  0.7107
 7406TIP3    H146413   0.177   4.731   1.527 -0.1389  0.7716  0.3226
 7406TIP3    H246414   0.281   4.837   1.552 -0.2521  0.6312  1.4477
 7407TIP3   OH246415   2.540   0.409   1.369 -0.2559  0.4283  0.1013
 7407TIP3    H146416   2.451   0.443   1.363 -0.5534 -0.3642 -0.1260
 7407TIP3    H246417   2.529   0.314   1.367  0.7004  0.3080 -1.6181
 7408TIP3   OH246418   5.044   1.655   1.974 -0.2515  0.8440 -0.6705
 7408TIP3    H146419   4.964   1.635   2.022 -0.0098 -1.0084 -0.9628
 7408TIP3    H246420   5.017   1.661   1.883  0.1441 -1.9051 -1.0834
 7409TIP3   OH246421   2.532   3.044   1.397 -0.2032  0.3287  0.1527
 7409TIP3    H146422   2.497   3.133   1.401 -0.8353  0.0568  1.3358
 7409TIP3    H246423   2.528   3.020   1.305  0.4623  1.7089 -0.2590
 7410TIP3   OH246424   0.561   1.576   1.654 -0.4006 -0.1201 -0.7657
 7410TIP3    H146425   0.530   1.666   1.643 -0.3699  0.0842  0.7184
 7410TIP3    H246426   0.597   1.573   1.742  1.9184 -0.9325 -1.6692
 7411TIP3   OH246427   5.174   5.999   2.835  0.0004  0.6696 -0.1228
 7411TIP3    H146428   5.212   6.016   2.921  0.3871 -1.4741  0.1729
 7411TIP3    H246429   5.250   5.991   2.777  0.0270 -1.8854  0.1458
 7412TIP3   OH246430   1.436   3.910   3.270  0.3294  0.1982  0.0367
 7412TIP3    H146431   1.530   3.893   3.281  1.1253  1.1623 -3.7273
 7412TIP3    H246432   1.405   3.836   3.218 -1.4620 -0.8592  2.4108
 7413TIP3   OH246433   4.453   0.813   2.585  0.3509  0.3800 -0.2452
 7413TIP3    H146434   4.444   0.736   2.642  2.0549 -0.2984 -0.8303
 7413TIP3    H246435   4.529   0.793   2.529  0.5176  2.2683 -0.7624
 7414TIP3   OH246436   3.134   0.486   1.280  0.3926  0.3712 -0.4856
 7414TIP3    H146437   3.209   0.538   1.309 -0.8558  1.2879  1.2877
 7414TIP3    H246438   3.091   0.541   1.215 -0.4243  1.2158  0.7352
 7415TIP3   OH246439   1.982   4.594   2.828 -0.6657 -0.6264 -0.0160
 7415TIP3    H146440   2.017   4.579   2.740  2.1150  0.4347  0.7943
 7415TIP3    H246441   1.934   4.676   2.821  0.9080  0.3158 -0.2682
 7416TIP3   OH246442   4.079   5.040   2.608 -0.2288 -0.5377 -0.0085
 7416TIP3    H146443   4.038   4.997   2.532 -1.0974 -0.4298  0.3892
 7416TIP3    H246444   4.072   5.133   2.589  0.9250 -0.5213 -0.4878
 7417TIP3   OH246445   4.964   5.876   2.248 -0.2978  0.1045 -0.2938
 7417TIP3    H146446   4.937   5.843   2.334  0.3832 -0.1569 -0.1810
 7417TIP3    H246447   4.885   5.919   2.214 -0.5536  0.2694  0.4848
 7418TIP3   OH246448   1.120   5.354   2.119 -0.8165  0.5106  0.5921
 7418TIP3    H146449   1.134   5.276   2.172  1.0726 -0.2545 -0.8830
 7418TIP3    H246450   1.199   5.407   2.133 -0.4358  0.4586 -1.0848
 7419TIP3   OH246451   5.574   4.310   3.037 -0.6955  0.1406 -0.2962
 7419TIP3    H146452   5.489   4.352   3.053 -2.1068 -3.0520  1.6685
 7419TIP3    H246453   5.570   4.228   3.087  2.6098 -1.3560 -2.1320
 7420TIP3   OH246454   6.993   6.223   1.594  0.0062  0.0349 -0.0740
 7420TIP3    H146455   7.079   6.239   1.554  0.1448  0.8439  0.5373
 7420TIP3    H246456   7.010   6.158   1.662 -0.0794 -0.6955 -0.7388
 7421TIP3   OH246457   1.073   3.792   3.036 -0.1932  0.2514  0.1941
 7421TIP3    H146458   1.124   3.735   2.978  0.6311  1.1138  0.0524
 7421TIP3    H246459   1.042   3.733   3.105  0.2274 -0.4610 -0.2067
 7422TIP3   OH246460   3.757   0.780   2.418 -0.0271  0.0021 -0.2785
 7422TIP3    H146461   3.720   0.767   2.331  0.0681  0.8993 -0.4649
 7422TIP3    H246462   3.684   0.764   2.478 -0.8207  1.9792 -0.6477
 7423TIP3   OH246463   4.316   0.862   0.969  0.0515 -0.4398 -1.0124
 7423TIP3    H146464   4.256   0.818   0.909 -0.0786 -0.8882 -0.5692
 7423TIP3    H246465   4.320   0.803   1.045  0.1549  0.1452 -0.5590
 7424TIP3   OH246466   5.512   7.595   1.053  0.8663 -0.1744  0.0242
 7424TIP3    H146467   5.438   7.559   1.102 -0.8992  2.1375 -0.7244
 7424TIP3    H246468   5.479   7.604   0.963  0.8602  3.6285  0.2309
 7425TIP3   OH246469   7.654   2.576   1.799  0.0067 -0.1808 -0.3154
 7425TIP3    H146470   7.661   2.585   1.894 -0.4490 -0.4145 -0.2581
 7425TIP3    H246471   7.568   2.536   1.784 -1.5882  3.1849 -1.0498
 7426TIP3   OH246472   5.035   0.430   3.515  0.4701 -0.1598  0.2420
 7426TIP3    H146473   5.128   0.449   3.509  0.5826 -0.6469  0.3385
 7426TIP3    H246474   4.992   0.493   3.457  0.9121 -0.3109 -0.2558
 7427TIP3   OH246475   2.843   4.564   0.604  0.0444 -0.0065 -0.5135
 7427TIP3    H146476   2.932   4.596   0.621  0.5758 -1.7493  0.1313
 7427TIP3    H246477   2.788   4.611   0.666  0.6474  0.3627 -0.2484
 7428TIP3   OH246478   0.239   2.399   1.858 -0.1256  0.2729  0.0677
 7428TIP3    H146479   0.229   2.437   1.771 -0.6863 -0.6286 -0.2718
 7428TIP3    H246480   0.319   2.439   1.892 -0.7674  1.8578 -0.2110
 7429TIP3   OH246481   4.390   2.364   2.198 -0.1210 -0.0540 -0.1877
 7429TIP3    H146482   4.433   2.278   2.195  0.2082  0.1298 -2.0111
 7429TIP3    H246483   4.315   2.355   2.138  0.0234  0.9700 -0.5383
 7430TIP3   OH246484   5.048   6.604   2.100 -0.3584 -0.1563  0.1905
 7430TIP3    H146485   5.056   6.617   2.195  0.6807  0.0124  0.0889
 7430TIP3    H246486   5.086   6.683   2.062 -1.6837  0.2429 -0.3863
 7431TIP3   OH246487   3.856   6.646   1.979  0.1259  0.5867  0.3279
 7431TIP3    H146488   3.848   6.581   1.909 -0.0994  0.3640  0.5586
 7431TIP3    H246489   3.771   6.690   1.981 -0.0735  0.1852  0.8587
 7432TIP3   OH246490   0.966   6.872   0.837  0.0225 -0.6634 -0.1384
 7432TIP3    H146491   1.030   6.801   0.845  0.5823 -0.1589 -0.0142
 7432TIP3    H246492   0.977   6.923   0.918 -0.1147 -0.2333 -0.3874
 7433TIP3   OH246493   6.478   3.274   3.202  0.2756  0.1037 -0.4118
 7433TIP3    H146494   6.399   3.262   3.254  0.2998  0.1889 -0.3546
 7433TIP3    H246495   6.528   3.341   3.250  1.1494 -1.1251  0.4453
 7434TIP3   OH246496   4.342   1.953   2.976  0.2948 -0.3141 -0.0752
 7434TIP3    H146497   4.341   1.951   3.072  0.0479 -1.5171 -0.0848
 7434TIP3    H246498   4.403   1.884   2.951 -0.0557 -0.3759 -0.7938
 7435TIP3   OH246499   3.920   5.212   1.654  0.0827 -0.1749  0.5266
 7435TIP3    H146500   3.843   5.165   1.687 -0.5033  0.9229  0.7803
 7435TIP3    H246501   3.985   5.204   1.724 -0.1422 -0.2917  0.7240
 7436TIP3   OH246502   4.157   1.792   1.192  0.3196 -1.0411  0.2441
 7436TIP3    H146503   4.141   1.698   1.206 -0.3816 -0.7645  1.4418
 7436TIP3    H246504   4.216   1.816   1.264  2.5437 -1.0494 -1.4612
 7437TIP3   OH246505   7.396   7.666   0.632 -0.0263  0.3309  0.1342
 7437TIP3    H146506   7.428   7.587   0.675 -0.0430 -0.5312 -1.3712
 7437TIP3    H246507   7.314   7.640   0.590 -0.0216  1.1353 -0.3957
 7438TIP3   OH246508   3.392   0.775   0.579 -0.0714 -0.3728  0.3327
 7438TIP3    H146509   3.445   0.852   0.603 -0.4624  0.0612 -0.1831
 7438TIP3    H246510   3.394   0.774   0.483 -2.2110  0.5181  0.2318
 7439TIP3   OH246511   3.147   2.296   2.912 -0.1502  0.1907  0.2180
 7439TIP3    H146512   3.052   2.291   2.920 -0.0815 -0.9747  0.5625
 7439TIP3    H246513   3.172   2.213   2.871  0.5205  1.4843 -2.2047
 7440TIP3   OH246514   6.164   0.635   0.604  0.3878  0.6830  0.1147
 7440TIP3    H146515   6.219   0.660   0.529  0.9415  1.2440  0.7013
 7440TIP3    H246516   6.219   0.648   0.680  0.2048 -0.9670  0.5628
 7441TIP3   OH246517   7.345   2.400   2.088 -0.2867 -0.1441 -0.2634
 7441TIP3    H146518   7.318   2.365   2.173  1.9124  0.1373  0.6146
 7441TIP3    H246519   7.412   2.340   2.057  1.3201  1.5046 -0.1796
 7442TIP3   OH246520   5.346   1.388   0.384  0.0737  0.4989 -0.0055
 7442TIP3    H146521   5.389   1.304   0.399  1.8605  1.2837 -0.5088
 7442TIP3    H246522   5.358   1.405   0.291  1.1617  2.0282  0.3705
 7443TIP3   OH246523   5.199   3.317   1.038  0.1062 -0.5048  0.1806
 7443TIP3    H146524   5.201   3.233   1.084  1.9195 -0.6948 -0.1832
 7443TIP3    H246525   5.243   3.378   1.098  1.5479 -0.5268 -0.7945
 7444TIP3   OH246526   4.155   1.300   2.671  0.3683  0.2440 -0.5987
 7444TIP3    H146527   4.165   1.250   2.752  0.4167  0.1020 -0.6923
 7444TIP3    H246528   4.108   1.241   2.612 -0.7203  0.7644 -0.2866
 7445TIP3   OH246529   7.010   3.188   1.139  0.7767 -0.3932  0.1033
 7445TIP3    H146530   6.982   3.262   1.085  1.7110  1.2306  1.7278
 7445TIP3    H246531   7.094   3.162   1.101  1.2169  0.4557  0.4525
 7446TIP3   OH246532   3.378   4.807   0.957  0.2563  0.0768 -0.1659
 7446TIP3    H146533   3.452   4.867   0.950 -1.0872  1.8221 -0.1801
 7446TIP3    H246534   3.307   4.850   0.909 -1.2138 -0.7821  1.1048
 7447TIP3   OH246535   0.853   2.723   1.800  0.1905  0.5897  0.3401
 7447TIP3    H146536   0.937   2.722   1.753 -0.2871  0.0913 -0.5259
 7447TIP3    H246537   0.816   2.809   1.780 -1.4951 -0.7105 -3.0032
 7448TIP3   OH246538   1.311   3.348   2.353 -0.4560 -0.3364  0.0938
 7448TIP3    H146539   1.237   3.390   2.308 -0.2926  0.0163  0.1526
 7448TIP3    H246540   1.282   3.338   2.443 -1.4840 -2.6649 -0.4257
 7449TIP3   OH246541   2.008   1.310   1.759  0.1455 -0.6793 -0.4661
 7449TIP3    H146542   1.927   1.356   1.776  0.8604  0.2638  0.5254
 7449TIP3    H246543   1.981   1.224   1.726 -1.3035 -1.0330  1.4676
 7450TIP3   OH246544   4.547   5.079   1.487 -0.2787  0.2025  0.0379
 7450TIP3    H146545   4.551   5.129   1.568  0.1839  0.6008 -0.2206
 7450TIP3    H246546   4.576   4.991   1.511  0.2187  0.4186  0.2315
 7451TIP3   OH246547   2.476   6.012   1.166 -0.2099  0.1724  0.3554
 7451TIP3    H146548   2.462   6.064   1.245 -0.2039  1.4182 -0.4351
 7451TIP3    H246549   2.568   6.029   1.142 -0.4967  0.6070 -0.4664
 7452TIP3   OH246550   3.796   3.931   2.816  0.2056 -0.4346 -0.2683
 7452TIP3    H146551   3.828   4.009   2.862 -0.2613  1.4045 -2.8068
 7452TIP3    H246552   3.853   3.860   2.846  0.3921  0.7198  2.4747
 7453TIP3   OH246553   1.043   6.976   1.641 -0.3211 -0.3366  0.3131
 7453TIP3    H146554   1.015   6.977   1.550 -0.0555 -0.6292  0.2264
 7453TIP3    H246555   1.125   6.927   1.641  0.9977  1.7343  0.3391
 7454TIP3   OH246556   4.024   5.878   1.125 -0.1930  0.2861  0.2200
 7454TIP3    H146557   3.950   5.902   1.182 -0.7643  1.1616 -0.8352
 7454TIP3    H246558   3.983   5.855   1.041  0.5977 -1.4023  0.2699
 7455TIP3   OH246559   4.918   0.149   2.420  0.2117 -0.0163 -0.1728
 7455TIP3    H146560   4.986   0.195   2.371  0.2189 -0.5808 -0.6949
 7455TIP3    H246561   4.894   0.210   2.490  0.7597  0.4688 -0.4001
 7456TIP3   OH246562   5.776   0.011   1.872 -0.2241  0.0405  0.5167
 7456TIP3    H146563   5.705  -0.008   1.810 -1.0469 -0.1655  1.4795
 7456TIP3    H246564   5.747  -0.030   1.953 -0.3535  2.3214  1.7070
 7457TIP3   OH246565   7.120   5.479   0.951 -0.9885 -0.4010  0.3879
 7457TIP3    H146566   7.057   5.418   0.912 -0.8442 -1.6469  1.9994
 7457TIP3    H246567   7.141   5.440   1.036 -0.1339  1.4183  1.0470
 7458TIP3   OH246568   4.267   4.673   1.033  0.2248 -0.2306  0.2773
 7458TIP3    H146569   4.181   4.682   1.074  0.7547  0.9834  1.1960
 7458TIP3    H246570   4.253   4.702   0.943 -0.0644  1.4047  0.8068
 7459TIP3   OH246571   5.534   2.573   1.207 -0.1772 -0.0626 -0.5302
 7459TIP3    H146572   5.532   2.536   1.118 -0.5994 -0.8651 -0.1985
 7459TIP3    H246573   5.589   2.512   1.257  0.5255  0.6876 -0.3564
 7460TIP3   OH246574   2.549   6.138   3.135  0.2854 -0.0351  0.5735
 7460TIP3    H146575   2.548   6.234   3.139 -1.9235  0.0970 -1.0106
 7460TIP3    H246576   2.508   6.117   3.051  0.3184 -2.3817  1.0679
 7461TIP3   OH246577   3.068   7.374   1.758  0.3081 -0.4518  0.1136
 7461TIP3    H146578   3.003   7.444   1.753 -1.7284 -2.2955 -1.2632
 7461TIP3    H246579   3.122   7.386   1.681  0.2070 -0.1820  0.0825
 7462TIP3   OH246580   6.953   4.172   1.353  0.2623 -0.1309 -0.4002
 7462TIP3    H146581   6.913   4.087   1.339  0.6208 -0.3483 -0.1294
 7462TIP3    H246582   7.033   4.170   1.301 -0.2104  0.4074 -1.1669
 7463TIP3   OH246583   2.946   0.392   1.450 -0.7438 -0.2034  0.0453
 7463TIP3    H146584   2.986   0.366   1.533 -1.2353 -0.9242  0.0649
 7463TIP3    H246585   3.018   0.427   1.399 -0.5448  0.8345  1.0009
 7464TIP3   OH246586   2.556   0.732   1.589 -0.0412 -0.2200 -0.3537
 7464TIP3    H146587   2.643   0.738   1.628 -0.0740 -2.2297  0.1274
 7464TIP3    H246588   2.553   0.804   1.526  2.8346 -1.4466 -2.0751
 7465TIP3   OH246589   4.589   6.087   0.861 -0.0091 -0.6750 -0.2377
 7465TIP3    H146590   4.676   6.058   0.832  0.3429 -0.4921  0.6090
 7465TIP3    H246591   4.606   6.166   0.913 -0.6600 -0.7821  0.1488
 7466TIP3   OH246592   4.842   7.156   1.236  0.5393 -0.0356 -0.8093
 7466TIP3    H146593   4.756   7.187   1.265  0.8108 -0.3427  0.3686
 7466TIP3    H246594   4.841   7.169   1.141 -1.5841 -1.9509 -1.1294
 7467TIP3   OH246595   4.401   1.298   2.940 -0.1018  0.4202  0.3688
 7467TIP3    H146596   4.313   1.266   2.957  0.1639 -0.3521  0.3359
 7467TIP3    H246597   4.397   1.332   2.850 -0.6909  1.6094  0.8207
 7468TIP3   OH246598   2.050   0.031   0.736 -0.8626  0.6044 -0.0629
 7468TIP3    H146599   2.079   0.114   0.697  0.4881 -0.4180 -1.3461
 7468TIP3    H246600   2.121   0.006   0.795 -0.8617 -0.0447 -0.3283
 7469TIP3   OH246601   1.792   1.881   2.089  0.4629 -0.1477 -0.0431
 7469TIP3    H146602   1.721   1.946   2.086  0.1799 -0.4709 -0.4466
 7469TIP3    H246603   1.763   1.811   2.031  1.1587 -0.2441 -0.2869
 7470TIP3   OH246604   0.697   2.544   0.667  0.2329 -0.0643  0.0034
 7470TIP3    H146605   0.783   2.564   0.703 -0.2484  0.1391  1.1012
 7470TIP3    H246606   0.659   2.481   0.729 -0.7417  0.5227  0.0375
 7471TIP3   OH246607   0.151   1.752   0.683 -0.0552 -0.1372  0.0552
 7471TIP3    H146608   0.207   1.682   0.650  0.2779  1.2297 -2.4949
 7471TIP3    H246609   0.209   1.807   0.736 -0.0716 -1.1305  1.1445
 7472TIP3   OH246610   6.168   7.151   2.658 -0.2730 -0.5997 -0.0233
 7472TIP3    H146611   6.211   7.101   2.727 -0.9248  0.1402  0.9448
 7472TIP3    H246612   6.074   7.132   2.669 -0.3733 -0.6030 -0.8180
 7473TIP3   OH246613   7.613   6.045   0.947 -0.3779  0.1019 -0.1257
 7473TIP3    H146614   7.532   6.095   0.938 -0.8586  0.2318  3.3561
 7473TIP3    H246615   7.682   6.110   0.939 -0.6512  0.2690 -1.4173
 7474TIP3   OH246616   2.147   0.777   2.418 -0.0995  0.6186 -0.3386
 7474TIP3    H146617   2.076   0.715   2.434  0.3251  0.4853  1.1463
 7474TIP3    H246618   2.119   0.825   2.340 -0.8994 -0.7473 -0.9271
 7475TIP3   OH246619   4.856   3.575   2.347 -0.4945 -0.1683  0.1270
 7475TIP3    H146620   4.926   3.639   2.338 -0.9273  0.1978 -0.6570
 7475TIP3    H246621   4.899   3.490   2.332 -0.0851 -0.0097  0.3793
 7476TIP3   OH246622   1.691   2.514   2.451  0.5263 -0.0632  0.5269
 7476TIP3    H146623   1.758   2.559   2.400 -0.0079 -1.5932 -1.7260
 7476TIP3    H246624   1.740   2.451   2.505  1.0373  0.6255  0.8726
 7477TIP3   OH246625   0.298   0.307   0.531 -0.2568 -0.1313  0.0275
 7477TIP3    H146626   0.231   0.308   0.462 -1.2145  1.5826  0.9254
 7477TIP3    H246627   0.282   0.225   0.578 -1.1441 -0.1836 -0.3481
 7478TIP3   OH246628   2.706   2.601   1.393 -0.3573  0.3008  0.5827
 7478TIP3    H146629   2.715   2.506   1.401  0.1956  0.0619 -2.0578
 7478TIP3    H246630   2.787   2.636   1.429  1.1130 -0.5092 -1.7261
 7479TIP3   OH246631   2.364   7.158   7.287  0.6584 -0.5834  0.5371
 7479TIP3    H146632   2.344   7.088   7.225  0.5385  0.5377 -0.7472
 7479TIP3    H246633   2.443   7.200   7.251  1.2384 -0.5806  1.7523
 7480TIP3   OH246634   6.829   3.319   0.957 -0.0180 -0.3990 -0.0146
 7480TIP3    H146635   6.905   3.373   0.934 -0.1286 -0.7039 -1.2038
 7480TIP3    H246636   6.758   3.381   0.969 -0.1858 -0.2428 -1.5388
 7481TIP3   OH246637   1.843   4.813   1.143 -0.1918 -0.4086 -0.6327
 7481TIP3    H146638   1.923   4.820   1.091 -0.1165 -0.2516 -0.4976
 7481TIP3    H246639   1.869   4.765   1.221 -0.0304  0.3769 -0.1947
 7482TIP3   OH246640   7.284   3.214   3.086  0.0863 -0.0178 -0.0577
 7482TIP3    H146641   7.308   3.305   3.106 -1.4263  0.3667  0.1673
 7482TIP3    H246642   7.219   3.222   3.016 -0.5082 -0.8907  0.3801
 7483TIP3   OH246643   0.400   1.629   1.995  0.0349 -0.1469 -0.3602
 7483TIP3    H146644   0.492   1.616   1.973 -0.2159 -0.1595 -1.4487
 7483TIP3    H246645   0.380   1.560   2.059  0.9535  0.3006  0.4386
 7484TIP3   OH246646   1.654   1.285   2.513  0.5429 -0.1139  0.5337
 7484TIP3    H146647   1.690   1.199   2.537  0.1153 -0.4282  0.0569
 7484TIP3    H246648   1.691   1.303   2.426 -2.1160 -1.4549 -0.9952
 7485TIP3   OH246649   6.607   2.350   1.013  0.3217 -0.2872  0.5423
 7485TIP3    H146650   6.556   2.339   0.933  0.2048 -0.7589  0.6797
 7485TIP3    H246651   6.590   2.271   1.064 -0.1316  0.3081  1.3284
 7486TIP3   OH246652   5.989   5.603   2.390 -0.3872 -0.0141 -0.0090
 7486TIP3    H146653   5.918   5.659   2.361 -0.5668 -0.8265 -1.2010
 7486TIP3    H246654   6.065   5.632   2.340 -0.3220 -0.3731 -0.1215
 7487TIP3   OH246655   6.739   0.155   3.056 -0.2467  0.3686 -0.2915
 7487TIP3    H146656   6.822   0.190   3.025 -0.3627  0.1824 -0.8264
 7487TIP3    H246657   6.672   0.207   3.011 -0.4206 -0.4710 -1.0529
 7488TIP3   OH246658   1.713   5.816   0.561 -0.0420  0.4900  0.6069
 7488TIP3    H146659   1.682   5.897   0.521 -0.4385  0.3076  0.5424
 7488TIP3    H246660   1.800   5.801   0.522 -0.8078 -0.1908 -0.9270
 7489TIP3   OH246661   4.755   7.078   2.108  0.7385  0.1893 -0.2030
 7489TIP3    H146662   4.804   7.117   2.036  0.2098  2.3519  0.5223
 7489TIP3    H246663   4.813   7.088   2.184  0.7369 -0.8043 -0.0608
 7490TIP3   OH246664   6.676   7.218   1.489  0.3280 -0.3617  0.2447
 7490TIP3    H146665   6.631   7.223   1.404 -0.5240 -1.3293  0.6150
 7490TIP3    H246666   6.767   7.196   1.467 -0.1958 -2.0803 -0.3961
 7491TIP3   OH246667   0.601   6.727   0.757 -0.0469 -0.1081  0.5233
 7491TIP3    H146668   0.627   6.766   0.841  0.5666 -1.1271  0.8200
 7491TIP3    H246669   0.626   6.793   0.692 -0.4704  0.6660  1.1207
 7492TIP3   OH246670   6.831   2.990   1.158  0.4273 -0.2918  0.0618
 7492TIP3    H146671   6.749   3.037   1.141  0.6835  1.3412  2.6834
 7492TIP3    H246672   6.896   3.060   1.168  1.3480 -1.3026  1.5894
 7493TIP3   OH246673   2.878   4.458   2.428 -0.0233 -0.0907 -0.4666
 7493TIP3    H146674   2.963   4.458   2.384 -1.0497  0.4035 -2.5634
 7493TIP3    H246675   2.869   4.547   2.462 -0.6409  0.5774 -2.2648
 7494TIP3   OH246676   0.254   1.360   0.839 -0.0369 -0.4721  0.0266
 7494TIP3    H146677   0.272   1.281   0.788  1.8181  0.7500 -1.3999
 7494TIP3    H246678   0.317   1.424   0.805  0.0742  0.9578  2.6928
 7495TIP3   OH246679   1.208   1.945   1.336 -0.2177  0.3950 -0.5205
 7495TIP3    H146680   1.214   2.041   1.328 -0.2844  0.3700 -0.9146
 7495TIP3    H246681   1.257   1.912   1.260  1.1116  0.0916  0.4261
 7496TIP3   OH246682   0.352   4.122   3.058 -0.0116  0.1519  0.2262
 7496TIP3    H146683   0.301   4.143   3.136  0.9536 -0.6452  1.1109
 7496TIP3    H246684   0.394   4.204   3.034 -0.8276  0.5546  0.1561
 7497TIP3   OH246685   1.035   4.773   2.159  0.4700  0.1956  0.4107
 7497TIP3    H146686   1.081   4.691   2.177  0.1737  0.4877  2.9497
 7497TIP3    H246687   0.951   4.763   2.205  0.1666  1.6529  0.2103
 7498TIP3   OH246688   3.170   2.581   2.914  0.7890  0.1704  0.2583
 7498TIP3    H146689   3.103   2.633   2.868  0.4687  0.1112  0.6511
 7498TIP3    H246690   3.138   2.491   2.908  0.6275  0.1913  0.7958
 7499TIP3   OH246691   1.575   4.413   1.425  0.2952  0.1754  0.4095
 7499TIP3    H146692   1.588   4.504   1.452  0.9342 -0.0262  0.7966
 7499TIP3    H246693   1.638   4.400   1.354  0.7578 -0.1946  0.8838
 7500TIP3   OH246694   0.695   6.760   2.269 -0.1875 -0.1560  0.0121
 7500TIP3    H146695   0.700   6.835   2.210  1.5765 -0.6428 -0.5142
 7500TIP3    H246696   0.731   6.792   2.352  1.6688 -0.6856 -0.5472
 7501TIP3   OH246697   0.912   6.548   1.850 -0.3670  0.1486  0.3503
 7501TIP3    H146698   0.905   6.453   1.834  0.2989 -0.0551  1.2259
 7501TIP3    H246699   0.863   6.587   1.778 -0.0314 -0.8389 -0.4399
 7502TIP3   OH246700   7.515   6.155   1.955 -0.3079 -0.2003  0.0511
 7502TIP3    H146701   7.592   6.103   1.980 -1.2301 -2.2498 -1.1138
 7502TIP3    H246702   7.441   6.108   1.993 -1.1310  0.6861 -0.4261
 7503TIP3   OH246703   6.480   5.938   2.330 -0.2629 -0.0502 -0.0543
 7503TIP3    H146704   6.568   5.915   2.359 -0.5525  0.1867  1.0875
 7503TIP3    H246705   6.493   6.004   2.262  0.4821 -1.3964 -1.2843
 7504TIP3   OH246706   2.246   6.854   2.040  0.0756 -0.0989 -0.0451
 7504TIP3    H146707   2.275   6.935   1.998  1.9582  0.0644  1.4502
 7504TIP3    H246708   2.293   6.785   1.994 -1.8068 -0.4742 -1.5680
 7505TIP3   OH246709   3.983   0.756   1.298  0.1326  0.3435  0.2682
 7505TIP3    H146710   3.972   0.839   1.343 -0.0064  0.2983  0.3161
 7505TIP3    H246711   3.974   0.690   1.366  0.5613  0.2996  0.2868
 7506TIP3   OH246712   0.039   5.482   1.381  0.6118 -0.0623 -0.6445
 7506TIP3    H146713  -0.007   5.426   1.444  0.5777 -0.3251 -0.9011
 7506TIP3    H246714  -0.030   5.533   1.340  0.6132 -0.0258 -0.6007
 7507TIP3   OH246715   1.639   0.671   0.597  0.1980  0.2504  0.0738
 7507TIP3    H146716   1.544   0.665   0.585  0.0571 -1.6194  1.4878
 7507TIP3    H246717   1.656   0.763   0.616 -1.6409  0.3193  1.6866
 7508TIP3   OH246718   2.879   1.623   1.176 -0.3380 -0.7820 -0.2500
 7508TIP3    H146719   2.937   1.654   1.246  0.0982 -0.1451 -0.8858
 7508TIP3    H246720   2.792   1.658   1.201 -0.4017 -1.4769  0.5370
 7509TIP3   OH246721   3.420   3.005   2.293 -0.9314  0.5855 -0.2044
 7509TIP3    H146722   3.359   3.040   2.228 -2.4795 -0.4818  0.5984
 7509TIP3    H246723   3.393   2.913   2.304 -1.1714  0.8782  2.3883
 7510TIP3   OH246724   3.165   4.022   0.880  0.5730 -0.3948  0.0541
 7510TIP3    H146725   3.224   3.950   0.858 -0.3979 -0.8806 -1.0781
 7510TIP3    H246726   3.158   4.072   0.799  0.0553  0.1032  0.4035
 7511TIP3   OH246727   6.856   1.981   1.451 -0.0417 -0.1264 -0.3888
 7511TIP3    H146728   6.837   1.896   1.410  0.1198  0.0230 -0.7793
 7511TIP3    H246729   6.858   1.962   1.545 -1.0542 -0.3489 -0.3980
 7512TIP3   OH246730   6.167   1.921   2.828 -0.3607  0.1918 -0.2657
 7512TIP3    H146731   6.223   1.846   2.810 -2.2975 -1.2597 -0.6146
 7512TIP3    H246732   6.131   1.903   2.915  1.0491  2.0257  0.7749
 7513TIP3   OH246733   0.646   1.116   2.007 -0.3917  0.0815 -0.3350
 7513TIP3    H146734   0.680   1.103   2.095 -0.8172 -1.3136 -0.3573
 7513TIP3    H246735   0.592   1.195   2.014  1.0457  1.0695  0.1946
 7514TIP3   OH246736   3.363   4.737   2.648  0.3311 -0.4033  0.1617
 7514TIP3    H146737   3.283   4.781   2.678 -0.1105 -0.7218 -0.5235
 7514TIP3    H246738   3.350   4.645   2.671 -0.2195 -0.7393 -1.3481
 7515TIP3   OH246739   3.320   4.289   2.408 -0.2812  0.3129  0.5112
 7515TIP3    H146740   3.263   4.291   2.485 -0.4987  2.1778  0.3525
 7515TIP3    H246741   3.290   4.362   2.354  1.9361  1.0815  0.2005
 7516TIP3   OH246742   1.010   4.092   2.387  0.1109 -0.3275  0.4111
 7516TIP3    H146743   0.975   4.145   2.316 -1.0888 -2.2897 -0.5536
 7516TIP3    H246744   1.046   4.155   2.449 -0.4912  1.5329 -1.0516
 7517TIP3   OH246745   3.999   3.790   2.031  0.3792 -0.2344 -0.3308
 7517TIP3    H146746   3.931   3.796   1.964  0.2801  0.4857 -0.1643
 7517TIP3    H246747   4.047   3.872   2.025 -0.4820  0.4631  1.3769
 7518TIP3   OH246748   5.476   2.641   1.698  0.4464  0.3312  0.1975
 7518TIP3    H146749   5.506   2.727   1.726 -0.9088  0.6989  0.5929
 7518TIP3    H246750   5.430   2.657   1.615 -0.9251  0.2144  0.9039
 7519TIP3   OH246751   3.722   1.158   2.141 -1.3677 -0.3120  0.2565
 7519TIP3    H146752   3.662   1.177   2.214 -0.2334  1.1703  0.8506
 7519TIP3    H246753   3.685   1.205   2.067 -0.3595  1.6337  0.9185
 7520TIP3   OH246754   3.022   3.860   1.107  0.3747 -0.1378  0.0620
 7520TIP3    H146755   3.072   3.927   1.061 -0.6801 -1.0042 -2.5566
 7520TIP3    H246756   3.078   3.833   1.180  2.1635  1.3562 -0.6944
 7521TIP3   OH246757   6.797   1.456   1.293  0.3186  0.1488 -0.1642
 7521TIP3    H146758   6.708   1.440   1.262  0.7777 -1.0903 -0.9192
 7521TIP3    H246759   6.854   1.430   1.221  1.3233  0.3317  0.5250
 7522TIP3   OH246760   6.792   2.590   2.927  0.1375 -0.0745 -0.3771
 7522TIP3    H146761   6.701   2.590   2.898  0.8695 -0.4298 -2.9277
 7522TIP3    H246762   6.831   2.513   2.885  1.5618 -0.1530  0.9557
 7523TIP3   OH246763   4.316   3.426   1.448  0.7512 -0.0703 -0.1998
 7523TIP3    H146764   4.358   3.491   1.504 -0.9768 -1.3119  2.8062
 7523TIP3    H246765   4.250   3.476   1.400 -1.6676  0.4215  3.2354
 7524TIP3   OH246766   1.064   2.349   1.409  0.0191  0.0607 -0.9142
 7524TIP3    H146767   0.975   2.325   1.382 -0.0599 -0.9616  0.1815
 7524TIP3    H246768   1.056   2.372   1.501  0.5638  1.9843 -1.3000
 7525TIP3   OH246769   4.458   4.892   1.019 -0.8737  0.1670 -0.5602
 7525TIP3    H146770   4.546   4.859   1.035 -0.1668  0.6571 -2.9978
 7525TIP3    H246771   4.403   4.814   1.012 -0.4361 -0.1903 -0.0682
 7526TIP3   OH246772   4.854   6.848   1.954 -0.6204  0.1211  0.3642
 7526TIP3    H146773   4.949   6.852   1.964 -0.5521 -1.9573  0.9730
 7526TIP3    H246774   4.821   6.903   2.025  0.1128  0.9234  0.0995
 7527TIP3   OH246775   7.028   0.542   3.381  0.2739  0.2931 -0.6918
 7527TIP3    H146776   6.987   0.469   3.427  1.2982 -0.4951 -0.9870
 7527TIP3    H246777   7.060   0.504   3.299  0.0290  1.2809 -1.2650
 7528TIP3   OH246778   4.035   0.371   2.514 -0.3335  0.1972  0.2516
 7528TIP3    H146779   4.032   0.441   2.449  2.9460 -0.5124 -0.8197
 7528TIP3    H246780   4.080   0.409   2.589  1.1248 -0.5865 -0.1915
 7529TIP3   OH246781   7.662   2.501   3.141 -0.4561 -0.6152  0.2931
 7529TIP3    H146782   7.720   2.551   3.084 -2.1925 -0.1465 -1.1563
 7529TIP3    H246783   7.678   2.536   3.229  1.6637 -0.7654  0.0138
 7530TIP3   OH246784   6.321   4.207   3.498 -0.1215 -0.0861  0.7307
 7530TIP3    H146785   6.304   4.266   3.424 -0.5552  3.2532  3.2515
 7530TIP3    H246786   6.249   4.144   3.495 -0.5473  0.4334 -1.2147
 7531TIP3   OH246787   5.320   7.516   1.229 -0.2847 -0.2442 -0.3162
 7531TIP3    H146788   5.359   7.450   1.286  1.2509 -0.0858 -1.1363
 7531TIP3    H246789   5.239   7.541   1.273 -0.2070 -1.6719  0.6928
 7532TIP3   OH246790   5.580   1.727   1.417  0.0783 -0.0644 -0.5117
 7532TIP3    H146791   5.646   1.670   1.377  1.2794  0.0969  1.1724
 7532TIP3    H246792   5.512   1.667   1.448  0.0842 -0.3470 -1.0291
 7533TIP3   OH246793   2.298   3.852   2.177  0.1652  0.1909  0.5114
 7533TIP3    H146794   2.208   3.872   2.201  0.2183  0.3696  0.5605
 7533TIP3    H246795   2.333   3.805   2.252 -0.1192 -0.5633  0.1876
 7534TIP3   OH246796   3.582   2.314   2.300  0.4214  0.1233  0.2820
 7534TIP3    H146797   3.596   2.407   2.320  0.9432  0.1246 -0.0615
 7534TIP3    H246798   3.654   2.291   2.242 -0.3186 -0.2248 -0.5165
 7535TIP3   OH246799   2.829   6.848   1.050 -0.1766 -0.2645  0.8248
 7535TIP3    H146800   2.774   6.925   1.036  3.7481  2.2987 -3.3737
 7535TIP3    H246801   2.898   6.877   1.110  1.6277 -0.1150 -1.1800
 7536TIP3   OH246802   0.771   2.357   2.201  0.5360  0.1107 -0.6182
 7536TIP3    H146803   0.745   2.415   2.129 -0.1645 -0.2394 -0.6555
 7536TIP3    H246804   0.856   2.322   2.174  0.3607  0.1171 -1.1929
 7537TIP3   OH246805   1.051   3.931   0.564  0.0152  0.8420 -0.4633
 7537TIP3    H146806   1.144   3.931   0.540  0.3885  0.6395  0.9003
 7537TIP3    H246807   1.006   3.958   0.484  1.0379 -1.3672 -1.8870
 7538TIP3   OH246808   1.341   3.285   1.241  0.0791  0.3310 -0.1723
 7538TIP3    H146809   1.304   3.197   1.244 -1.6301  1.0108 -0.3949
 7538TIP3    H246810   1.384   3.290   1.155  0.1865 -0.2728 -0.1597
 7539TIP3   OH246811   7.224   1.123   2.804  0.5381  0.5076 -0.2985
 7539TIP3    H146812   7.266   1.205   2.830  0.3181  0.2709  0.8573
 7539TIP3    H246813   7.278   1.055   2.844 -0.7268  0.1896  0.9359
 7540TIP3   OH246814   6.668   4.169   2.207  0.0356 -0.0571  0.0348
 7540TIP3    H146815   6.660   4.137   2.297 -0.3713 -1.1097 -0.3608
 7540TIP3    H246816   6.754   4.137   2.178 -0.0539 -0.1553 -0.1199
 7541TIP3   OH246817   6.787   5.592   1.038 -0.4764  0.4692 -0.4877
 7541TIP3    H146818   6.719   5.598   0.970 -2.2298  0.1905  1.1443
 7541TIP3    H246819   6.829   5.508   1.022 -1.6485 -0.1239 -0.5613
 7542TIP3   OH246820   4.782   2.143   2.969  0.0429  0.3162 -0.1521
 7542TIP3    H146821   4.757   2.131   2.877  2.3708  0.2244 -0.8270
 7542TIP3    H246822   4.776   2.238   2.982  0.8665  0.4716 -0.7903
 7543TIP3   OH246823   0.507   1.310   1.711  0.0170  0.0813 -0.6090
 7543TIP3    H146824   0.509   1.302   1.807 -0.2038  1.4375 -0.4821
 7543TIP3    H246825   0.501   1.404   1.695 -2.4868 -0.2352 -1.9319
 7544TIP3   OH246826   6.917   2.306   2.119 -0.0820  0.1323  0.3691
 7544TIP3    H146827   6.888   2.394   2.098  1.5204  0.5854 -0.0499
 7544TIP3    H246828   6.958   2.274   2.039 -1.2856 -1.3117  0.2651
 7545TIP3   OH246829   0.722   3.141   0.756 -0.0140 -0.2386 -0.2369
 7545TIP3    H146830   0.754   3.210   0.697 -0.4642 -0.9322 -1.3187
 7545TIP3    H246831   0.645   3.180   0.798 -1.0080 -0.4795 -1.7658
 7546TIP3   OH246832   2.192   6.333   1.095 -0.0417  0.0750 -0.2769
 7546TIP3    H146833   2.111   6.384   1.097 -1.1746 -1.5986 -0.7845
 7546TIP3    H246834   2.172   6.258   1.038  1.6137 -0.8017  0.2127
 7547TIP3   OH246835   2.145   5.807   0.822 -0.0878 -0.1353  0.2055
 7547TIP3    H146836   2.219   5.831   0.765  0.3567 -1.3859  0.2267
 7547TIP3    H246837   2.155   5.863   0.899  1.3977 -0.9087  0.6171
 7548TIP3   OH246838   3.029   4.023   2.838 -1.0404 -0.0173 -0.1843
 7548TIP3    H146839   3.071   3.951   2.885 -1.8402 -0.4441 -0.1117
 7548TIP3    H246840   3.073   4.024   2.753 -0.2939  0.0996  0.1974
 7549TIP3   OH246841   3.894   6.212   2.525  0.4538 -0.3545  0.2802
 7549TIP3    H146842   3.810   6.243   2.490 -0.4670 -0.5169  2.2173
 7549TIP3    H246843   3.873   6.130   2.569  1.8007 -0.8120  0.1123
 7550TIP3   OH246844   1.118   1.745   2.893  0.9293  0.0838  0.0407
 7550TIP3    H146845   1.184   1.707   2.951 -1.0169 -1.9298  1.1368
 7550TIP3    H246846   1.152   1.731   2.805  2.2522 -0.2835  0.5865
 7551TIP3   OH246847   6.659   4.803   2.104 -0.9604 -0.3567 -0.3694
 7551TIP3    H146848   6.595   4.827   2.172 -1.1053  0.5599 -0.8185
 7551TIP3    H246849   6.723   4.748   2.150 -1.0986  0.1832  0.4947
 7552TIP3   OH246850   7.079   0.968   2.588  0.3367  0.0201 -0.1206
 7552TIP3    H146851   7.088   1.054   2.630 -3.6038 -0.1664  1.4983
 7552TIP3    H246852   7.068   0.988   2.495  0.1169  1.2032  0.1461
 7553TIP3   OH246853   5.408   4.180   1.444 -0.6760  0.2563  0.0907
 7553TIP3    H146854   5.450   4.136   1.370  0.1290  1.6211 -0.2918
 7553TIP3    H246855   5.355   4.249   1.405  1.1735  2.1937  0.7878
 7554TIP3   OH246856   1.138   3.438   3.520 -0.1525  0.0956 -0.0378
 7554TIP3    H146857   1.099   3.484   3.595 -1.1517 -0.1607 -0.3793
 7554TIP3    H246858   1.079   3.364   3.505 -0.1649  0.3490 -1.3038
 7555TIP3   OH246859   6.888   7.414   2.041 -0.6730  1.1840 -0.0032
 7555TIP3    H146860   6.794   7.395   2.043 -0.4631  0.0496 -0.0558
 7555TIP3    H246861   6.894   7.508   2.057 -1.7597  1.0828  1.2049
 7556TIP3   OH246862   2.449   0.325   2.665  0.0589 -0.3886 -0.4358
 7556TIP3    H146863   2.443   0.265   2.740 -0.3607 -0.1082 -0.2427
 7556TIP3    H246864   2.522   0.384   2.688  0.1360 -0.4994 -0.3934
 7557TIP3   OH246865   6.707   3.074   3.274 -0.6433 -0.0316  0.4122
 7557TIP3    H146866   6.784   3.101   3.324 -0.9657  0.7552  0.4810
 7557TIP3    H246867   6.649   3.033   3.339 -0.9706  0.8007  0.6490
 7558TIP3   OH246868   6.981   3.536   0.731  0.4587  0.0840 -0.2169
 7558TIP3    H146869   6.935   3.478   0.671  1.5511 -1.8073  0.6647
 7558TIP3    H246870   7.033   3.477   0.786 -0.7091  1.6487  2.8195
 7559TIP3   OH246871   3.507   4.657   0.634 -0.2074 -0.2217  0.0889
 7559TIP3    H146872   3.593   4.651   0.675 -0.1722 -0.8915 -0.0793
 7559TIP3    H246873   3.518   4.720   0.562  0.5631 -1.5591 -0.9965
 7560TIP3   OH246874   3.001   2.853   2.118 -0.0518 -0.0725  0.5770
 7560TIP3    H146875   3.075   2.911   2.137  0.5759 -0.7893  0.4229
 7560TIP3    H246876   3.031   2.767   2.149 -1.1001 -0.2478  1.1236
 7561TIP3   OH246877   5.904   2.184   2.064 -0.2943  0.6918 -0.0914
 7561TIP3    H146878   5.916   2.157   1.972 -1.1189 -1.6072  0.4081
 7561TIP3    H246879   5.981   2.148   2.109 -1.2156 -0.5953  0.5265
 7562TIP3   OH246880   1.486   7.290   2.127 -0.6354 -0.5586  0.7559
 7562TIP3    H146881   1.397   7.315   2.154 -0.8394 -2.5691  2.2076
 7562TIP3    H246882   1.474   7.251   2.040 -1.2126 -0.8471  0.9557
 7563TIP3   OH246883   1.241   1.908   2.502  0.5630 -0.6600  0.3234
 7563TIP3    H146884   1.160   1.947   2.535  0.3537 -1.2854  0.5676
 7563TIP3    H246885   1.308   1.973   2.520 -0.1672  0.7291 -1.6487
 7564TIP3   OH246886   5.100   4.912   0.673  0.8652  0.1712 -0.0928
 7564TIP3    H146887   5.057   4.969   0.609 -1.8887  1.5995  2.7415
 7564TIP3    H246888   5.193   4.937   0.669  0.4868  1.4854 -2.2080
 7565TIP3   OH246889   7.494   2.413   2.780 -0.3244  0.2140 -0.2775
 7565TIP3    H146890   7.552   2.487   2.764  2.6015 -1.6004  0.9396
 7565TIP3    H246891   7.476   2.417   2.874  0.0903 -0.7025 -0.1445
 7566TIP3   OH246892   2.118   1.794   1.169 -0.6672 -0.2466  0.2198
 7566TIP3    H146893   2.093   1.878   1.130 -0.4329 -0.2094  0.1504
 7566TIP3    H246894   2.057   1.783   1.242 -1.2913 -0.4456 -0.3140
 7567TIP3   OH246895   2.680   7.530   2.624 -0.3293 -0.6466 -0.3052
 7567TIP3    H146896   2.652   7.497   2.709 -0.4509 -1.2941 -0.5880
 7567TIP3    H246897   2.715   7.617   2.642  0.5152 -1.1500  0.5463
 7568TIP3   OH246898   4.271   2.077   2.510 -0.4281  0.1206 -0.0427
 7568TIP3    H146899   4.192   2.110   2.467 -0.0125  0.2397 -0.7220
 7568TIP3    H246900   4.337   2.145   2.495  0.3559 -0.8523 -1.1956
 7569TIP3   OH246901   0.551   1.239   2.409 -0.0128  0.0212  0.1642
 7569TIP3    H146902   0.598   1.323   2.405 -0.1199  0.2063  2.1264
 7569TIP3    H246903   0.609   1.178   2.363  1.2744  0.6403  0.8958
 7570TIP3   OH246904   3.323   4.097   3.250 -0.1279  0.1818  0.1717
 7570TIP3    H146905   3.349   4.158   3.319 -0.5212  0.8218 -0.2326
 7570TIP3    H246906   3.402   4.047   3.231  0.2379  0.6674  0.4027
 7571TIP3   OH246907   3.561   2.578   2.378  0.2898  0.7585  0.2323
 7571TIP3    H146908   3.624   2.643   2.409  1.1286  0.5945 -1.0233
 7571TIP3    H246909   3.492   2.577   2.444  0.5829  2.4501  0.6182
 7572TIP3   OH246910   2.096   6.235   2.248 -0.3840 -0.0524  0.0296
 7572TIP3    H146911   2.087   6.140   2.238 -1.2521  0.0411 -0.1153
 7572TIP3    H246912   2.029   6.272   2.190  0.2143  0.6635 -0.2260
 7573TIP3   OH246913   5.623   5.408   1.433 -0.3679 -0.3942 -0.5815
 7573TIP3    H146914   5.556   5.471   1.457 -0.1020  0.1132 -1.1488
 7573TIP3    H246915   5.688   5.459   1.385  2.0823 -0.1584  2.6167
 7574TIP3   OH246916   6.826   1.671   0.960  0.1810  0.0645 -0.5977
 7574TIP3    H146917   6.846   1.627   0.877  1.2752  1.0072 -0.8455
 7574TIP3    H246918   6.907   1.715   0.985  0.2909 -1.2655  1.6682
 7575TIP3   OH246919   0.822   5.130   0.968 -0.1773  0.5038 -0.7592
 7575TIP3    H146920   0.905   5.171   0.945 -1.7027  3.5070 -1.4914
 7575TIP3    H246921   0.762   5.155   0.897 -2.3387  0.6874  0.9989
 7576TIP3   OH246922   5.482   0.866   0.555 -0.0938  0.2066  0.3365
 7576TIP3    H146923   5.458   0.774   0.544  1.2770  0.0231 -1.7439
 7576TIP3    H246924   5.576   0.864   0.573  0.1482  1.1990 -0.6717
 7577TIP3   OH246925   4.905   2.914   2.098 -0.1256  0.4786  0.0244
 7577TIP3    H146926   4.877   2.834   2.143 -0.7820 -0.7134 -2.3095
 7577TIP3    H246927   4.987   2.891   2.056  1.3741  2.0974  1.8837
 7578TIP3   OH246928   1.332   3.527   1.391 -0.2436 -0.0089 -0.2800
 7578TIP3    H146929   1.258   3.581   1.365  0.4442  0.6867 -0.8211
 7578TIP3    H246930   1.319   3.444   1.345 -0.1395  0.4837 -1.2186
 7579TIP3   OH246931   1.202   1.101   3.309  0.8940  0.3082  0.0177
 7579TIP3    H146932   1.209   1.194   3.288 -0.3756  0.1159 -1.4483
 7579TIP3    H246933   1.273   1.060   3.260  0.8267  0.3928 -0.1524
 7580TIP3   OH246934   6.273   4.654   2.007 -0.3657 -0.5137 -0.2843
 7580TIP3    H146935   6.274   4.562   1.982 -0.2818 -0.6800  0.3290
 7580TIP3    H246936   6.292   4.654   2.100  1.9062  0.2565 -0.6805
 7581TIP3   OH246937   5.139   1.209   3.009 -0.1589 -0.6576  0.2426
 7581TIP3    H146938   5.235   1.198   3.009 -0.1841 -0.9874  1.1648
 7581TIP3    H246939   5.106   1.128   3.047 -0.8296 -0.6736 -0.3765
 7582TIP3   OH246940   2.913   5.606   2.617 -0.5050  0.0843 -0.3329
 7582TIP3    H146941   2.850   5.577   2.682 -0.2433 -1.6308 -0.8068
 7582TIP3    H246942   2.997   5.571   2.646  0.4685  2.9348  0.6857
 7583TIP3   OH246943   4.940   3.097   2.529  0.3005 -0.0078  0.1119
 7583TIP3    H146944   4.922   3.113   2.622  0.6494 -0.3764  0.2464
 7583TIP3    H246945   5.034   3.083   2.525  0.1648 -0.9144 -0.1501
 7584TIP3   OH246946   4.710   2.788   2.457  0.1562  0.1512  0.1448
 7584TIP3    H146947   4.742   2.765   2.370 -0.7980  1.2567 -0.5384
 7584TIP3    H246948   4.621   2.753   2.460  0.1701  0.1603  0.6446
 7585TIP3   OH246949   4.522   0.421   3.009  0.5912 -0.2073  0.2748
 7585TIP3    H146950   4.535   0.476   3.087  0.6710 -0.2505  0.2923
 7585TIP3    H246951   4.444   0.458   2.967 -1.2657 -1.9733  1.9556
 7586TIP3   OH246952   1.029   2.879   3.559 -0.0039 -0.6725  0.1169
 7586TIP3    H146953   0.948   2.930   3.553  0.9872  0.9699  0.0966
 7586TIP3    H246954   1.024   2.816   3.487 -1.0826 -0.3406 -0.1072
 7587TIP3   OH246955   7.189   2.304   0.890  0.5780 -0.1256  0.1824
 7587TIP3    H146956   7.179   2.315   0.985  0.2966  0.2362  0.1145
 7587TIP3    H246957   7.164   2.389   0.853  1.1365 -0.1212 -0.1882
 7588TIP3   OH246958   1.863   7.535   0.697 -0.2381  0.1760 -0.6018
 7588TIP3    H146959   1.788   7.589   0.672  0.0951  0.6569 -0.5553
 7588TIP3    H246960   1.928   7.596   0.730 -0.6594 -0.4123  1.5068
 7589TIP3   OH246961   5.996   5.762   3.297  0.1628 -0.4148  0.0761
 7589TIP3    H146962   6.065   5.749   3.231 -0.0220  0.9088 -0.4070
 7589TIP3    H246963   5.923   5.710   3.265 -0.3415  1.1334 -1.4631
 7590TIP3   OH246964   7.325   0.430   3.525  0.4655 -0.1098  0.2204
 7590TIP3    H146965   7.372   0.465   3.449  0.0469 -0.2111 -0.0943
 7590TIP3    H246966   7.276   0.505   3.559  0.5633 -0.0915  0.3216
 7591TIP3   OH246967   1.011   0.371   0.659  0.3050 -0.0364 -0.3470
 7591TIP3    H146968   1.082   0.435   0.655  1.2030 -0.9972 -0.2240
 7591TIP3    H246969   1.045   0.295   0.612  0.8415 -1.8612  2.6707
 7592TIP3   OH246970   4.385   6.889   0.761  0.2541  0.2065 -0.2075
 7592TIP3    H146971   4.396   6.857   0.851  0.0274  3.4341  1.1110
 7592TIP3    H246972   4.474   6.910   0.732  0.2360  0.0923 -0.3445
 7593TIP3   OH246973   0.573   4.402   0.616  0.4001  0.2594  0.1290
 7593TIP3    H146974   0.484   4.428   0.639  0.6241  0.1900  1.1409
 7593TIP3    H246975   0.564   4.314   0.581  0.0151  0.4314 -0.2069
 7594TIP3   OH246976   6.566   0.054   2.044 -0.0648  0.0269 -0.2995
 7594TIP3    H146977   6.641   0.013   2.001  0.0308  1.6298 -1.7461
 7594TIP3    H246978   6.564   0.143   2.009 -2.1428  0.2856  0.3562
 7595TIP3   OH246979   3.306   5.962   0.632 -0.3190 -0.2895  0.3658
 7595TIP3    H146980   3.263   5.893   0.582 -1.9147  1.3071 -0.5651
 7595TIP3    H246981   3.299   6.040   0.577  3.0935  0.2926  0.5296
 7596TIP3   OH246982   1.162   5.740   2.301  0.6474  0.3192 -0.1059
 7596TIP3    H146983   1.135   5.649   2.287  1.6819  0.0119 -0.1623
 7596TIP3    H246984   1.170   5.777   2.214  2.5644 -0.2500 -0.2089
 7597TIP3   OH246985   6.244   0.114   2.324  0.5537 -0.0813 -0.3049
 7597TIP3    H146986   6.177   0.169   2.284 -0.9269  0.9438  3.1460
 7597TIP3    H246987   6.206   0.027   2.326  0.2717  0.0392 -0.3771
 7598TIP3   OH246988   0.377   3.419   2.090 -0.2429  0.2337  0.4763
 7598TIP3    H146989   0.395   3.489   2.028 -2.7357  2.7547  2.3452
 7598TIP3    H246990   0.446   3.427   2.156  0.1977  0.0922  0.0330
 7599TIP3   OH246991   6.218   4.394   2.075 -0.5375 -0.5541 -0.0675
 7599TIP3    H146992   6.299   4.343   2.081 -1.2458 -1.7069  0.0851
 7599TIP3    H246993   6.190   4.384   1.984 -0.3427  0.1112 -0.2029
 7600TIP3   OH246994   0.530   3.707   2.494 -0.0444  0.1451 -0.2975
 7600TIP3    H146995   0.560   3.676   2.580 -1.3318  0.8605  0.4359
 7600TIP3    H246996   0.436   3.691   2.493 -0.4607  2.2232 -0.6281
 7601TIP3   OH246997   0.919   6.221   1.290 -0.2903 -0.0675  0.0617
 7601TIP3    H146998   0.988   6.224   1.356 -0.4658 -0.0200  0.2420
 7601TIP3    H246999   0.964   6.241   1.208 -0.4481  1.9962  0.4365
 7602TIP3   OH247000   6.086   3.635   0.646 -0.2417 -0.2829  0.0503
 7602TIP3    H147001   6.024   3.676   0.707 -0.4735 -0.5272 -0.0235
 7602TIP3    H247002   6.091   3.544   0.674  1.4138  0.0914  1.1695
 7603TIP3   OH247003   6.336   1.047   3.324 -0.2637  0.3574 -0.1689
 7603TIP3    H147004   6.377   1.086   3.247 -0.1250  0.9756  0.2121
 7603TIP3    H247005   6.375   0.959   3.331  0.8687  0.8644  0.0847
 7604TIP3   OH247006   3.136   5.311   1.054  0.3572 -0.8459 -0.2768
 7604TIP3    H147007   3.193   5.317   0.977 -0.4225 -1.0720 -0.8840
 7604TIP3    H247008   3.195   5.286   1.126  1.0404 -0.9454 -0.8622
 7605TIP3   OH247009   6.642   5.793   1.522 -0.4033  0.5390  0.2125
 7605TIP3    H147010   6.554   5.758   1.541  0.8912 -0.9142  4.6655
 7605TIP3    H247011   6.665   5.843   1.600  2.3935  1.7844 -1.2874
 7606TIP3   OH247012   0.172   2.206   0.697 -0.4382 -0.0489  0.3166
 7606TIP3    H147013   0.132   2.194   0.611 -0.1416  0.4602  0.1078
 7606TIP3    H247014   0.098   2.204   0.758 -0.5396 -1.6918  0.1850
 7607TIP3   OH247015   5.953   5.538   1.052  0.1496 -0.0701  0.5316
 7607TIP3    H147016   5.978   5.627   1.029  0.2330 -0.0721  0.6145
 7607TIP3    H247017   5.933   5.496   0.968  0.8948 -0.2132  0.4188
 7608TIP3   OH247018   2.081   0.955   0.484 -0.7664  0.0270 -0.5577
 7608TIP3    H147019   2.121   0.988   0.404 -0.2771  0.7174 -0.0487
 7608TIP3    H247020   2.115   1.013   0.553 -1.5836 -0.2224  0.0730
 7609TIP3   OH247021   2.465   2.222   1.254 -0.2543 -0.1283 -0.2467
 7609TIP3    H147022   2.435   2.222   1.163 -0.1237  0.2669 -0.2900
 7609TIP3    H247023   2.560   2.234   1.248 -0.1346 -0.9651 -0.0915
 7610TIP3   OH247024   0.694   2.572   3.292  0.7389  0.5786 -0.2837
 7610TIP3    H147025   0.681   2.513   3.218  1.5245  1.0168 -0.7725
 7610TIP3    H247026   0.611   2.620   3.299  0.3246 -0.1210 -0.2779
 7611TIP3   OH247027   5.412   2.752   2.856 -0.0990  0.2126 -0.4618
 7611TIP3    H147028   5.495   2.772   2.813  0.1736  0.8864  0.3351
 7611TIP3    H247029   5.401   2.823   2.920  0.8765 -2.1225  2.5138
 7612TIP3   OH247030   2.371   2.732   1.084  0.0409 -0.1152  0.1228
 7612TIP3    H147031   2.461   2.726   1.114  0.1288 -0.8073 -0.2532
 7612TIP3    H247032   2.319   2.742   1.164  0.4116 -0.1345  0.3679
 7613TIP3   OH247033   1.903   0.585   0.582  0.2611  0.0438 -0.1002
 7613TIP3    H147034   1.958   0.617   0.654  0.6606 -0.4600 -0.1781
 7613TIP3    H247035   1.817   0.623   0.600  1.2381  3.2543 -1.5476
 7614TIP3   OH247036   6.292   7.284   1.119  0.1047 -0.2526  0.2903
 7614TIP3    H147037   6.317   7.253   1.032 -0.2692 -1.5776  0.6272
 7614TIP3    H247038   6.215   7.339   1.103  2.5593  3.2575 -0.6632
 7615TIP3   OH247039   6.799   0.510   1.899  0.6206  0.2336  0.0332
 7615TIP3    H147040   6.820   0.571   1.828 -0.5864 -0.0578 -0.6073
 7615TIP3    H247041   6.868   0.443   1.893  1.4373  1.0316  0.1742
 7616TIP3   OH247042   2.073   2.459   2.946 -0.6904  0.0991 -0.3419
 7616TIP3    H147043   1.990   2.472   2.899 -0.6800 -2.6916 -1.3310
 7616TIP3    H247044   2.048   2.442   3.036 -1.4215 -2.3062 -0.9297
 7617TIP3   OH247045   1.328   3.558   1.963  0.3606 -0.4199 -0.4192
 7617TIP3    H147046   1.311   3.641   1.919 -0.0095 -0.5273 -0.4808
 7617TIP3    H247047   1.416   3.567   1.999  0.2640  0.0511 -0.3022
 7618TIP3   OH247048   1.059   7.596   0.973 -0.0412 -0.2548 -0.6543
 7618TIP3    H147049   1.060   7.617   1.067 -1.3358 -0.0857 -0.6476
 7618TIP3    H247050   1.075   7.680   0.930  0.5226 -0.3259 -0.5910
 7619TIP3   OH247051   6.207   3.731   1.171 -0.3038 -0.5026  0.1230
 7619TIP3    H147052   6.300   3.736   1.149 -0.5566  1.5272 -0.7031
 7619TIP3    H247053   6.162   3.764   1.093 -1.7837 -2.1629  0.2190
 7620TIP3   OH247054   4.428   2.526   0.719  0.1371  0.6129 -0.1268
 7620TIP3    H147055   4.501   2.484   0.674 -0.4398  0.3007 -0.7987
 7620TIP3    H247056   4.366   2.548   0.649 -1.4245 -1.1564  0.5767
 7621TIP3   OH247057   4.959   0.062   0.492 -0.4985 -0.1741  0.1126
 7621TIP3    H147058   4.969   0.094   0.582  0.2777 -1.8250  0.6693
 7621TIP3    H247059   5.040   0.015   0.475 -1.4286 -1.5429 -0.7269
 7622TIP3   OH247060   1.423   2.082   2.642  0.2355 -0.3099 -0.4178
 7622TIP3    H147061   1.349   2.143   2.635 -0.1416 -0.7787 -0.6365
 7622TIP3    H247062   1.418   2.048   2.732  2.0807  1.9854  0.6451
 7623TIP3   OH247063   0.544   2.401   2.952 -0.3100 -0.2949 -0.1093
 7623TIP3    H147064   0.595   2.402   2.871 -0.5112 -1.2370 -0.2604
 7623TIP3    H247065   0.603   2.364   3.017 -0.1400  0.4857  0.1898
 7624TIP3   OH247066   6.534   7.565   1.246 -0.1761 -0.1114 -0.0595
 7624TIP3    H147067   6.596   7.583   1.316 -0.6826  1.2096  0.0789
 7624TIP3    H247068   6.588   7.539   1.172  0.2906 -3.4000  1.2653
 7625TIP3   OH247069   4.764   1.608   0.958 -0.0487 -0.5637 -0.6952
 7625TIP3    H147070   4.856   1.609   0.980  0.5121  0.1554 -2.7514
 7625TIP3    H247071   4.728   1.686   1.001  1.4201  1.9438 -3.5852
 7626TIP3   OH247072   4.262   4.968   2.821 -0.2783  0.2839 -0.7403
 7626TIP3    H147073   4.327   5.038   2.815  1.1913 -1.0061 -0.5415
 7626TIP3    H247074   4.209   4.978   2.742  0.2821  1.2572 -1.0095
 7627TIP3   OH247075   1.652   3.578   0.726 -0.1330  0.3070  0.5046
 7627TIP3    H147076   1.659   3.646   0.792 -1.1232 -0.3210  1.2793
 7627TIP3    H247077   1.740   3.541   0.719 -0.0665  0.2296  1.6501
 7628TIP3   OH247078   1.652   7.299   1.755  0.1045 -0.2731 -0.3218
 7628TIP3    H147079   1.587   7.263   1.816  0.2748 -0.0829 -0.0272
 7628TIP3    H247080   1.735   7.263   1.786  0.4393  1.3221  0.7067
 7629TIP3   OH247081   4.250   5.661   0.926 -0.3816  0.0992  0.0836
 7629TIP3    H147082   4.287   5.747   0.909 -0.9212  0.0404 -1.5137
 7629TIP3    H247083   4.302   5.601   0.873 -1.4824 -0.2434 -0.6396
 7630TIP3   OH247084   1.809   3.670   2.226 -0.1360  0.0149 -0.5842
 7630TIP3    H147085   1.750   3.609   2.180  1.0641  0.1772 -2.4495
 7630TIP3    H247086   1.806   3.641   2.317 -0.4834 -2.1245 -1.2069
 7631TIP3   OH247087   4.849   2.355   3.489  0.0436 -0.5083  0.2384
 7631TIP3    H147088   4.871   2.435   3.535 -1.4481 -0.1005  0.2954
 7631TIP3    H247089   4.856   2.378   3.396 -1.4055  0.0356  0.2343
 7632TIP3   OH247090   3.746   1.323   1.336  0.8002  0.3929  0.3402
 7632TIP3    H147091   3.802   1.328   1.413  1.6477  1.9181 -0.3338
 7632TIP3    H247092   3.776   1.394   1.280 -0.3525 -0.1590 -1.0361
 7633TIP3   OH247093   6.731   0.246   2.325  0.1110 -0.0971 -0.5829
 7633TIP3    H147094   6.769   0.242   2.413  0.3954  0.1618 -0.6909
 7633TIP3    H247095   6.662   0.180   2.326  0.4594 -0.4703 -0.3297
 7634TIP3   OH247096   4.607   6.618   1.312  0.6628  0.6363 -0.4294
 7634TIP3    H147097   4.606   6.643   1.404  0.6293 -1.1247  0.1027
 7634TIP3    H247098   4.518   6.587   1.295  1.6591 -3.2808  0.3285
 7635TIP3   OH247099   1.423   6.294   1.924  0.0913 -0.3901  0.2917
 7635TIP3    H147100   1.486   6.360   1.951 -0.0550  0.0542 -0.4284
 7635TIP3    H247101   1.476   6.216   1.908  0.3549 -0.2519  0.4817
 7636TIP3   OH247102   0.547   4.035   2.703 -0.4098  0.1691 -1.1105
 7636TIP3    H147103   0.481   4.104   2.700  0.6233  1.3522  1.1707
 7636TIP3    H247104   0.580   4.036   2.792 -0.3234 -3.3383 -0.9470
 7637TIP3   OH247105   1.433   7.554   0.739 -0.3903  0.2163 -0.5902
 7637TIP3    H147106   1.405   7.469   0.773  0.5889  0.1250  0.0207
 7637TIP3    H247107   1.352   7.595   0.709 -0.7324 -1.4549 -2.1429
 7638TIP3   OH247108   3.942   7.475   1.665 -0.1658 -0.4650  0.1392
 7638TIP3    H147109   3.870   7.429   1.709  1.1406 -0.0067  2.9467
 7638TIP3    H247110   4.003   7.406   1.641 -0.5275 -0.6514 -0.2561
 7639TIP3   OH247111   2.651   5.576   2.474  0.1062  0.0643  0.1590
 7639TIP3    H147112   2.733   5.605   2.514  1.0819 -0.1110 -1.5793
 7639TIP3    H247113   2.676   5.500   2.421 -1.7995 -2.0233  2.0682
 7640TIP3   OH247114   6.883   7.468   1.561  0.0273 -0.0226 -0.2850
 7640TIP3    H147115   6.879   7.394   1.502  1.4307  0.1356 -0.6050
 7640TIP3    H247116   6.920   7.433   1.642 -0.5518  0.0527  0.0154
 7641TIP3   OH247117   7.458   2.464   1.478  0.4523  0.5626 -0.3844
 7641TIP3    H147118   7.524   2.395   1.489  0.3644  0.1513 -2.2332
 7641TIP3    H247119   7.389   2.424   1.426 -0.1293  1.7062 -0.5183
 7642TIP3   OH247120   4.230   1.344   1.577  0.3927  0.1045  0.0909
 7642TIP3    H147121   4.232   1.286   1.500 -1.1121 -1.6099  1.2640
 7642TIP3    H247122   4.320   1.373   1.587  0.8120 -0.4207 -1.7347
 7643TIP3   OH247123   5.029   2.001   0.697  0.1333  0.5266 -0.1135
 7643TIP3    H147124   5.121   2.010   0.672 -0.6433  1.3818 -3.1474
 7643TIP3    H247125   5.030   1.935   0.767  2.9391 -0.3527 -0.8217
 7644TIP3   OH247126   4.003   6.242   1.649 -0.1511 -0.2278  0.4509
 7644TIP3    H147127   4.020   6.206   1.561  0.7580  2.4561 -0.5589
 7644TIP3    H247128   3.953   6.322   1.633  1.7487  1.4048  2.1950
 7645TIP3   OH247129   2.547   3.040   1.037  0.4356  0.6183 -0.4042
 7645TIP3    H147130   2.590   2.954   1.041 -0.0279  0.1420 -3.4810
 7645TIP3    H247131   2.614   3.099   1.004  0.3208  1.1464  0.2792
 7646TIP3   OH247132   7.237   0.694   3.528  0.8593  0.2989  0.0885
 7646TIP3    H147133   7.296   0.721   3.457  0.1079  0.5611 -0.4486
 7646TIP3    H247134   7.162   0.656   3.483  0.8242 -0.4804  0.7806
 7647TIP3   OH247135   2.379   6.961   1.526  0.3133  0.0504  0.3622
 7647TIP3    H147136   2.397   6.920   1.441  0.2523  2.3866 -0.8579
 7647TIP3    H247137   2.462   6.952   1.574  1.8246  2.2937 -1.5799
 7648TIP3   OH247138   7.232   4.376   1.544 -0.1031  0.2925  0.3703
 7648TIP3    H147139   7.200   4.309   1.605 -1.3942  2.0095  1.6884
 7648TIP3    H247140   7.181   4.454   1.566  3.1278  2.4891  0.6880
 7649TIP3   OH247141   4.105   6.439   0.541 -0.1266  0.5755 -0.3401
 7649TIP3    H147142   4.137   6.376   0.605  1.1125 -0.1425 -1.6120
 7649TIP3    H247143   4.148   6.521   0.565 -0.5671  0.5969  0.4099
 7650TIP3   OH247144   4.020   6.164   1.159 -0.4003  0.2478  0.9849
 7650TIP3    H147145   4.030   6.143   1.252  1.2631 -0.4944  0.6744
 7650TIP3    H247146   4.108   6.160   1.124 -1.2540 -2.3244 -1.2034
 7651TIP3   OH247147   0.886   4.210   3.782 -0.2610 -0.5609 -0.4365
 7651TIP3    H147148   0.910   4.210   3.689 -0.3016  0.7202 -0.4714
 7651TIP3    H247149   0.938   4.140   3.820  0.9038 -0.1175 -1.1547
 7652TIP3   OH247150   1.810   6.010   1.979  0.1776 -0.1902  0.2315
 7652TIP3    H147151   1.857   6.061   1.912 -0.4156  0.4124  0.2705
 7652TIP3    H247152   1.761   5.944   1.929  0.3511 -0.2425  0.1291
 7653TIP3   OH247153   6.360   0.277   0.987  0.5943 -0.1663  0.4585
 7653TIP3    H147154   6.413   0.335   1.041  0.9897 -0.0210 -0.0803
 7653TIP3    H247155   6.324   0.213   1.048  1.3015 -0.2002  0.8482
 7654TIP3   OH247156   0.044   1.575   2.252  0.3917 -0.0210 -0.1228
 7654TIP3    H147157  -0.021   1.627   2.299 -1.3656 -1.4777 -0.8327
 7654TIP3    H247158   0.006   1.561   2.166  1.7159 -0.8338 -0.6083
 7655TIP3   OH247159   4.348   5.110   1.130  0.3420 -0.2004  0.1978
 7655TIP3    H147160   4.387   5.037   1.082 -0.4647 -0.9949  0.7193
 7655TIP3    H247161   4.413   5.180   1.124  0.7301 -0.6454 -1.1017
 7656TIP3   OH247162   1.392   1.250   2.530  0.9163 -0.3792 -0.3604
 7656TIP3    H147163   1.377   1.285   2.618 -1.7747 -0.4539 -0.7283
 7656TIP3    H247164   1.487   1.237   2.526  1.2524  0.7682  2.0793
 7657TIP3   OH247165   3.612   2.382   2.720  0.3252 -0.1019 -0.6914
 7657TIP3    H147166   3.519   2.403   2.734 -0.2760 -2.6262 -0.5093
 7657TIP3    H247167   3.653   2.396   2.805  0.1320  0.9362 -0.7508
 7658TIP3   OH247168   6.736   2.290   1.855 -0.2510 -0.2799  0.1405
 7658TIP3    H147169   6.769   2.341   1.781  2.6233 -2.2139 -0.0877
 7658TIP3    H247170   6.688   2.217   1.814  0.7093 -0.9444  0.1675
 7659TIP3   OH247171   3.322   6.097   1.579  0.3428 -0.0518 -0.3230
 7659TIP3    H147172   3.269   6.170   1.545  0.6106 -0.2189 -1.1307
 7659TIP3    H247173   3.261   6.024   1.585  0.1227  0.1780  0.2806
 7660TIP3   OH247174   2.181   5.330   2.072  0.2058 -0.2505 -0.0070
 7660TIP3    H147175   2.192   5.235   2.062  0.6579 -0.3734  1.5410
 7660TIP3    H247176   2.264   5.361   2.106 -0.2736  0.5707  0.4439
 7661TIP3   OH247177   5.253   1.327   2.580  0.2793  0.4199 -0.4074
 7661TIP3    H147178   5.234   1.245   2.625  0.1530  0.7539  0.1533
 7661TIP3    H247179   5.181   1.385   2.604  0.2409  0.6222 -0.9930
 7662TIP3   OH247180   4.655   2.065   3.552 -0.4001  0.5378 -0.2289
 7662TIP3    H147181   4.605   2.001   3.604 -1.4338  0.9248 -0.7250
 7662TIP3    H247182   4.607   2.071   3.470  1.2517 -0.1109 -1.2918
 7663TIP3   OH247183   3.253   6.819   1.743 -0.0040 -0.0299 -0.4887
 7663TIP3    H147184   3.344   6.848   1.752  0.1496 -0.7507  0.3949
 7663TIP3    H247185   3.202   6.900   1.743  0.6493  0.3918 -1.2164
 7664TIP3   OH247186   4.286   5.970   1.088  0.4950 -0.2415 -0.4182
 7664TIP3    H147187   4.330   5.929   1.014  1.3632  0.1442 -0.1236
 7664TIP3    H247188   4.201   5.926   1.092  0.2758 -0.0197 -1.8677
 7665TIP3   OH247189   1.471   4.177   3.177 -0.7828  0.2345 -0.0228
 7665TIP3    H147190   1.443   4.087   3.189 -1.6006  0.4527 -0.2581
 7665TIP3    H247191   1.476   4.214   3.265  1.2530 -0.5247  0.2263
 7666TIP3   OH247192   2.775   1.075   1.545  0.3091  0.1530  0.1361
 7666TIP3    H147193   2.727   1.139   1.493 -1.2268 -1.6568 -0.7844
 7666TIP3    H247194   2.709   1.012   1.572  1.8850 -1.4562  0.3896
 7667TIP3   OH247195   5.238   5.691   0.847 -0.1279 -0.1214 -0.0183
 7667TIP3    H147196   5.309   5.749   0.877  0.6836 -1.4362  0.7443
 7667TIP3    H247197   5.275   5.645   0.772 -0.0555 -0.9808  0.5231
 7668TIP3   OH247198   5.039   2.848   3.527 -0.2428  0.1337  0.1196
 7668TIP3    H147199   5.091   2.788   3.474  0.2476  1.7122 -1.2438
 7668TIP3    H247200   4.952   2.807   3.530 -0.3782  0.1009 -2.1862
 7669TIP3   OH247201   2.682   0.305   1.954 -0.0336  0.0601 -0.4665
 7669TIP3    H147202   2.687   0.239   1.885  3.0152 -0.4800  0.1145
 7669TIP3    H247203   2.691   0.255   2.036  0.9780  1.0193  0.0406
 7670TIP3   OH247204   5.356   6.277   2.602  0.7456 -0.5295  0.6809
 7670TIP3    H147205   5.260   6.282   2.605  0.7655 -0.0117  0.5527
 7670TIP3    H247206   5.375   6.236   2.518  0.6172 -1.3508  1.0446
 7671TIP3   OH247207   7.626   2.867   1.929 -0.0043 -0.1897 -0.3852
 7671TIP3    H147208   7.684   2.822   1.991  0.4161 -0.1782 -0.7623
 7671TIP3    H247209   7.658   2.957   1.928  1.3903 -0.6458 -2.2076
 7672TIP3   OH247210   4.204   4.509   2.320 -0.0020 -0.4357  0.0742
 7672TIP3    H147211   4.185   4.576   2.255 -1.2305 -0.3067  0.5491
 7672TIP3    H247212   4.213   4.557   2.402 -0.6658 -0.8136  0.3774
 7673TIP3   OH247213   5.096   6.403   1.916 -0.0794 -0.4073 -0.5721
 7673TIP3    H147214   5.156   6.454   1.862 -0.7729 -0.5082 -1.4699
 7673TIP3    H247215   5.063   6.465   1.981  0.6627 -0.2445 -0.3496
 7674TIP3   OH247216   2.731   6.058   1.139  0.4204 -0.0239 -0.0332
 7674TIP3    H147217   2.781   6.113   1.079 -0.7492  1.3531  0.2009
 7674TIP3    H247218   2.741   6.100   1.224  1.6366 -1.6661  0.7057
 7675TIP3   OH247219   5.773   0.697   2.502 -0.2876  0.4988 -0.3208
 7675TIP3    H147220   5.850   0.723   2.453 -0.0079 -1.0062 -0.7116
 7675TIP3    H247221   5.748   0.776   2.550  0.7852  1.3379 -1.0941
 7676TIP3   OH247222   5.298   7.637   2.471 -0.3089  0.1642  0.2397
 7676TIP3    H147223   5.390   7.611   2.467 -0.0653  1.0806 -0.7591
 7676TIP3    H247224   5.275   7.656   2.380 -1.2016  0.8677  0.5920
 7677TIP3   OH247225   3.392   6.047   3.050 -0.0481  0.7084 -0.0096
 7677TIP3    H147226   3.484   6.023   3.053 -0.0887  0.5262 -0.1954
 7677TIP3    H247227   3.351   5.995   3.119  0.0630  1.1241  0.3729
 7678TIP3   OH247228   1.265   6.343   1.239  0.0563 -0.2581  0.4012
 7678TIP3    H147229   1.259   6.386   1.324  0.7019 -1.0595  0.8610
 7678TIP3    H247230   1.342   6.287   1.246 -0.5617 -1.2236 -0.3112
 7679TIP3   OH247231   1.644   4.386   0.573  0.3009 -0.2943 -0.6112
 7679TIP3    H147232   1.562   4.371   0.620  0.7050  0.2989  0.3338
 7679TIP3    H247233   1.687   4.455   0.624  0.3768  0.9943 -2.3527
 7680TIP3   OH247234   5.999   5.142   1.351 -0.1586 -0.5605 -0.1202
 7680TIP3    H147235   6.059   5.127   1.277 -0.7779 -0.9301 -0.5580
 7680TIP3    H247236   6.011   5.234   1.373 -0.7534 -0.1475 -1.4130
 7681TIP3   OH247237   1.166   6.430   3.337  0.5909 -0.3683  0.6283
 7681TIP3    H147238   1.230   6.499   3.323  0.6990 -0.6302 -0.2215
 7681TIP3    H247239   1.213   6.349   3.316 -0.5045 -0.4402 -1.8943
 7682TIP3   OH247240   0.901   2.247   0.590 -0.2280  0.1301  0.1247
 7682TIP3    H147241   0.808   2.236   0.569  0.2039 -1.2762 -1.2624
 7682TIP3    H247242   0.914   2.193   0.668 -0.6434  0.6647  0.5737
 7683TIP3   OH247243   4.479   1.152   3.264 -0.0160  0.1037 -0.3402
 7683TIP3    H147244   4.465   1.239   3.227 -1.2340 -0.8137 -2.1796
 7683TIP3    H247245   4.413   1.144   3.332  1.2318  1.2275  1.0720
 7684TIP3   OH247246   2.280   1.222   1.528  0.1953  0.0266  0.1101
 7684TIP3    H147247   2.262   1.254   1.440 -2.5972 -0.5124  0.3718
 7684TIP3    H247248   2.268   1.128   1.522  1.3252 -0.1775  0.8108
 7685TIP3   OH247249   2.184   6.168   1.948 -0.0260  0.4781  0.3088
 7685TIP3    H147250   2.205   6.076   1.939  0.4533  0.6064  0.1187
 7685TIP3    H247251   2.146   6.176   2.035  1.3378  0.3659  0.9222
 7686TIP3   OH247252   7.534   0.150   0.421  0.5503  0.2134 -0.3193
 7686TIP3    H147253   7.492   0.065   0.438  1.5099  0.0407  1.4648
 7686TIP3    H247254   7.461   0.211   0.412 -0.1543 -0.7493 -1.4999
 7687TIP3   OH247255   0.938   6.373   0.794  0.4949 -0.6601 -0.3793
 7687TIP3    H147256   0.963   6.326   0.873  0.0394  0.4092  0.4269
 7687TIP3    H247257   0.932   6.305   0.727 -2.3360 -2.1833  1.2198
 7688TIP3   OH247258   3.510   4.317   1.774 -0.0938  0.3020  0.0590
 7688TIP3    H147259   3.563   4.327   1.696  0.3030 -1.2981  0.0880
 7688TIP3    H247260   3.429   4.364   1.754 -0.4347 -0.9635 -1.7609
 7689TIP3   OH247261   1.226   6.578   1.834  0.6655 -0.0286 -0.1379
 7689TIP3    H147262   1.300   6.618   1.880  0.6897 -1.1729  0.8698
 7689TIP3    H247263   1.150   6.628   1.862  0.7698 -0.2949  0.6376
 7690TIP3   OH247264   3.189   6.186   0.412 -0.2918 -0.0296 -0.2437
 7690TIP3    H147265   3.112   6.129   0.419 -1.1128  0.9414 -0.9707
 7690TIP3    H247266   3.180   6.246   0.486  0.1881 -0.3981  0.1147
 7691TIP3   OH247267   4.172   0.915   1.765  0.1094 -0.1854 -0.3696
 7691TIP3    H147268   4.131   0.913   1.851  1.6889 -0.3603  0.4273
 7691TIP3    H247269   4.240   0.983   1.772 -0.5448  0.6843 -1.8906
 7692TIP3   OH247270   1.918   1.199   1.442 -0.7210  0.2627  0.1656
 7692TIP3    H147271   1.925   1.147   1.523 -0.0196 -0.3957 -0.2942
 7692TIP3    H247272   2.009   1.215   1.418 -0.9353  1.4355  0.1100
 7693TIP3   OH247273   4.131   6.669   7.682 -0.1021  0.4106  0.1990
 7693TIP3    H147274   4.152   6.657   7.590 -0.0557 -1.7298  0.4515
 7693TIP3    H247275   4.099   6.759   7.687  2.7215  1.6236 -1.3464
 7694TIP3   OH247276   4.077   1.279   0.990 -0.6410  0.0576  0.1370
 7694TIP3    H147277   4.120   1.290   0.905 -0.5660 -1.4261 -0.0510
 7694TIP3    H247278   3.987   1.310   0.975 -0.8989 -1.0748 -0.7750
 7695TIP3   OH247279   7.573   4.908   1.682  0.4391  0.8262 -0.6055
 7695TIP3    H147280   7.629   4.986   1.684  0.3149  0.9944 -2.3098
 7695TIP3    H247281   7.604   4.859   1.606 -1.9885  1.1533 -1.8748
 7696TIP3   OH247282   4.867   1.879   3.446  0.1341  0.2561  0.6029
 7696TIP3    H147283   4.777   1.845   3.448 -0.6001  2.0610  0.8086
 7696TIP3    H247284   4.906   1.849   3.528 -0.2965 -0.5076  0.5356
 7697TIP3   OH247285   7.273   0.783   2.667  0.4799 -0.0346 -0.1949
 7697TIP3    H147286   7.312   0.809   2.751  2.0384  0.8410 -1.1333
 7697TIP3    H247287   7.232   0.863   2.634 -1.3070 -0.6944  0.2873
 7698TIP3   OH247288   7.487   7.434   0.754 -0.5638 -0.5687  0.3202
 7698TIP3    H147289   7.421   7.375   0.719 -0.7027 -0.0203 -0.3639
 7698TIP3    H247290   7.554   7.377   0.791  0.3118 -1.2475 -2.1231
 7699TIP3   OH247291   0.907   0.584   2.397  0.0347  0.1825  0.0207
 7699TIP3    H147292   0.833   0.536   2.434 -1.1906  1.4163 -0.7422
 7699TIP3    H247293   0.885   0.676   2.412  1.9307  0.5694  0.7143
 7700TIP3   OH247294   1.726   2.885   2.284  0.0723 -0.1815  0.2645
 7700TIP3    H147295   1.644   2.891   2.235 -0.1103  3.3321  0.7429
 7700TIP3    H247296   1.699   2.883   2.376  0.5145 -2.3618  0.3916
 7701TIP3   OH247297   7.370   1.123   0.671 -0.0412 -0.3668 -0.2687
 7701TIP3    H147298   7.447   1.179   0.679 -0.5184  0.0267  2.2778
 7701TIP3    H247299   7.398   1.039   0.709 -0.6010 -0.5154 -0.1763
 7702TIP3   OH247300   3.981   5.731   0.892 -0.4154 -0.7076  0.0125
 7702TIP3    H147301   4.069   5.695   0.904  0.7399  1.4090 -1.5957
 7702TIP3    H247302   3.941   5.675   0.826  0.3250 -0.7216 -0.4316
 7703TIP3   OH247303   3.289   0.178   2.073  0.4586 -0.4422 -0.1800
 7703TIP3    H147304   3.357   0.110   2.073 -0.0118 -0.9148 -0.3504
 7703TIP3    H247305   3.241   0.164   2.154  0.2952 -0.3816 -0.2663
 7704TIP3   OH247306   2.795   3.389   2.001  0.2584  0.5010 -0.4782
 7704TIP3    H147307   2.714   3.396   2.052  1.2266  1.6850  0.9821
 7704TIP3    H247308   2.788   3.305   1.956 -0.6049 -0.6956  1.7363
 7705TIP3   OH247309   2.104   7.478   0.568  0.1025  0.2137  0.3034
 7705TIP3    H147310   2.121   7.570   0.546  0.4877  0.3069  0.9723
 7705TIP3    H247311   2.008   7.471   0.570  0.0490  0.2676 -1.0867
 7706TIP3   OH247312   3.678   3.477   0.885  0.6840 -0.0435 -0.0869
 7706TIP3    H147313   3.585   3.491   0.902  0.3382  0.5023 -2.1650
 7706TIP3    H247314   3.717   3.565   0.887  0.8308 -0.0838 -0.8666
 7707TIP3   OH247315   3.531   2.802   1.130 -0.1346 -0.7589 -0.0866
 7707TIP3    H147316   3.581   2.839   1.202 -0.3180  0.7134 -0.6821
 7707TIP3    H247317   3.589   2.737   1.090  0.3567 -0.8258  0.7245
 7708TIP3   OH247318   2.096   4.006   0.765  0.6116  0.3215 -0.3117
 7708TIP3    H147319   2.017   4.045   0.802  1.9155  1.8338  1.0329
 7708TIP3    H247320   2.064   3.936   0.708 -1.6555  0.5865  0.5387
 7709TIP3   OH247321   7.465   6.022   1.602  0.0282 -0.3810  0.4905
 7709TIP3    H147322   7.552   6.061   1.610  0.5725 -1.7321  1.7048
 7709TIP3    H247323   7.413   6.064   1.670 -0.1074  0.0180  0.1412
 7710TIP3   OH247324   2.489   6.226   2.005 -0.3973  0.3293  0.0990
 7710TIP3    H147325   2.540   6.294   2.049 -2.2715  1.1954  1.0262
 7710TIP3    H247326   2.472   6.161   2.073 -0.2363 -0.1368 -0.2985
 7711TIP3   OH247327   5.045   4.915   1.038 -0.1218  0.0131 -0.0050
 7711TIP3    H147328   5.104   4.970   1.089 -0.3284  0.1208  0.1226
 7711TIP3    H247329   4.975   4.975   1.010 -0.9138 -0.3921  1.0352
 7712TIP3   OH247330   5.821   0.361   1.004 -0.1937 -0.1396 -0.6354
 7712TIP3    H147331   5.857   0.430   1.059 -2.4566  1.2968 -0.8245
 7712TIP3    H247332   5.809   0.287   1.063  0.4013  0.2928  0.0407
 7713TIP3   OH247333   5.570   3.649   1.426 -0.4152  0.6895 -0.7272
 7713TIP3    H147334   5.484   3.685   1.403 -0.0408  1.6746 -0.6045
 7713TIP3    H247335   5.616   3.643   1.343  0.0266  1.8469 -0.5779
 7714TIP3   OH247336   3.606   5.808   1.889  0.1373  0.2942  0.0765
 7714TIP3    H147337   3.583   5.882   1.833  0.0435 -0.2031 -0.5559
 7714TIP3    H247338   3.675   5.842   1.947 -0.0079  0.9131 -0.1066
 7715TIP3   OH247339   4.581   6.383   1.902  0.0437  0.2545  0.5091
 7715TIP3    H147340   4.603   6.384   1.809 -0.7342  1.5766  0.3040
 7715TIP3    H247341   4.636   6.452   1.940  0.8088 -0.6971  1.1526
 7716TIP3   OH247342   3.241   4.491   2.195 -0.5292 -0.2946 -0.2695
 7716TIP3    H147343   3.184   4.539   2.134 -0.9373 -1.1171 -0.5405
 7716TIP3    H247344   3.218   4.399   2.183 -0.1937 -0.5165  0.7043
 7717TIP3   OH247345   7.104   0.998   1.565  0.2891  1.0643 -0.5670
 7717TIP3    H147346   7.131   0.941   1.638  0.9260  1.2409 -0.6604
 7717TIP3    H247347   7.014   1.024   1.587  0.2686  0.6460 -0.1381
 7718TIP3   OH247348   1.353   3.358   3.258 -0.2416 -0.0385 -0.1963
 7718TIP3    H147349   1.393   3.411   3.327 -2.3426  1.3749  0.0043
 7718TIP3    H247350   1.415   3.365   3.185  0.1177  1.7336  0.2273
 7719TIP3   OH247351   1.738   1.200   0.942 -0.4362  0.6126  0.5294
 7719TIP3    H147352   1.782   1.115   0.944  0.0655  0.8073  3.8263
 7719TIP3    H247353   1.780   1.247   0.871  1.6130 -0.7809  0.7322
 7720TIP3   OH247354   2.689   1.753   0.879  0.3812  0.5722 -0.8470
 7720TIP3    H147355   2.768   1.792   0.918  0.3451 -0.9150  0.8419
 7720TIP3    H247356   2.701   1.766   0.785  3.0418 -0.2532 -0.7270
 7721TIP3   OH247357   3.011   3.997   2.085  0.5230 -0.1128 -0.2994
 7721TIP3    H147358   2.930   3.989   2.134  0.1384  1.5880 -0.6134
 7721TIP3    H247359   2.985   4.031   2.000  1.6663  1.7313  0.0402
 7722TIP3   OH247360   5.656   0.931   1.402 -0.1321 -0.2138 -0.2949
 7722TIP3    H147361   5.613   0.852   1.370  1.0064 -1.0169  0.0985
 7722TIP3    H247362   5.636   0.998   1.336 -1.2720 -0.7687 -0.5331
 7723TIP3   OH247363   0.236   2.221   3.046  0.7440  0.2155 -0.3553
 7723TIP3    H147364   0.250   2.312   3.075 -0.5203 -0.1880  1.7324
 7723TIP3    H247365   0.265   2.168   3.120 -2.2183 -0.9077  0.1213
 7724TIP3   OH247366   6.507   2.291   0.717  0.3896  0.3754 -0.2567
 7724TIP3    H147367   6.430   2.330   0.759 -0.0833 -0.2774 -0.4966
 7724TIP3    H247368   6.471   2.228   0.655  1.1462 -1.0386  0.6983
 7725TIP3   OH247369   4.784   1.952   1.642  1.2170 -0.0316  0.3903
 7725TIP3    H147370   4.840   1.997   1.580  0.8329 -0.5717 -0.3639
 7725TIP3    H247371   4.711   2.012   1.658  0.3761 -0.6117 -1.1023
 7726TIP3   OH247372   6.221   6.768   0.622  0.3322  0.0592  0.2306
 7726TIP3    H147373   6.137   6.745   0.582 -1.2586  1.0284  2.7717
 7726TIP3    H247374   6.286   6.740   0.557 -1.8071 -2.4526 -1.0705
 7727TIP3   OH247375   4.700   4.936   2.180 -0.3357  0.0800 -0.2653
 7727TIP3    H147376   4.626   4.901   2.230  1.0910 -0.6207  1.4559
 7727TIP3    H247377   4.768   4.950   2.246  1.0788  0.6656 -1.8101
 7728TIP3   OH247378   5.585   0.329   0.911 -0.7280 -0.4720 -0.4201
 7728TIP3    H147379   5.547   0.416   0.898  0.5687 -0.0598 -1.7286
 7728TIP3    H247380   5.679   0.346   0.921 -0.2493 -1.8301 -2.2703
 7729TIP3   OH247381   5.420   4.263   1.715 -0.2919 -0.6769  0.2699
 7729TIP3    H147382   5.506   4.304   1.704 -1.3247  1.5153 -0.0053
 7729TIP3    H247383   5.374   4.280   1.633 -1.7393  0.1199  1.2003
 7730TIP3   OH247384   1.838   3.836   0.555  0.3162 -0.7383  0.2897
 7730TIP3    H147385   1.833   3.757   0.500  0.9166 -0.4898 -0.1284
 7730TIP3    H247386   1.910   3.819   0.615  0.5839 -0.4207  0.0599
 7731TIP3   OH247387   4.165   7.450   2.084 -0.4466  0.1239 -0.3669
 7731TIP3    H147388   4.260   7.441   2.076 -0.4608 -0.5098  0.0749
 7731TIP3    H247389   4.153   7.489   2.171 -0.6488 -1.4931  0.3733
 7732TIP3   OH247390   2.009   1.773   1.484  0.2789 -0.3102  0.4564
 7732TIP3    H147391   2.058   1.692   1.498  0.7627 -0.0547  0.2335
 7732TIP3    H247392   2.067   1.842   1.515 -0.8175 -0.1656  2.3355
 7733TIP3   OH247393   3.883   1.785   1.249 -0.2909 -0.4391 -0.0961
 7733TIP3    H147394   3.836   1.865   1.226 -1.6745 -0.3070  2.7737
 7733TIP3    H247395   3.975   1.811   1.253 -0.6983  0.9671  0.5934
 7734TIP3   OH247396   0.202   3.728   0.946  0.7855  0.3377 -0.2358
 7734TIP3    H147397   0.262   3.782   0.998  0.5563 -0.6390  1.0987
 7734TIP3    H247398   0.243   3.642   0.943 -1.6466 -1.1549  3.0143
 7735TIP3   OH247399   1.187   5.109   1.344 -0.4171 -0.3867  0.8696
 7735TIP3    H147400   1.177   5.108   1.439  0.0457  0.1444  0.9246
 7735TIP3    H247401   1.167   5.199   1.319 -1.6551 -0.7887  0.3387
 7736TIP3   OH247402   7.642   3.778   1.535  0.2390 -0.2572 -0.2780
 7736TIP3    H147403   7.561   3.823   1.510  0.3284  1.6894  2.4577
 7736TIP3    H247404   7.712   3.839   1.511  0.4653  0.5343  2.1398
 7737TIP3   OH247405   1.116   5.999   1.192  0.1056 -0.0509  0.1181
 7737TIP3    H147406   1.172   6.017   1.267 -0.5677 -3.9390  1.7884
 7737TIP3    H247407   1.168   5.940   1.137 -0.2936  0.8765 -1.3109
 7738TIP3   OH247408   1.835   2.810   0.737  0.1899  0.4815 -0.0376
 7738TIP3    H147409   1.878   2.830   0.820 -0.3579  0.5683  0.2290
 7738TIP3    H247410   1.807   2.895   0.703  1.3233  0.5607 -0.8262
 7739TIP3   OH247411   2.072   1.592   2.796 -0.1600  0.5129 -0.6468
 7739TIP3    H147412   2.092   1.612   2.888 -1.5653  1.5210 -0.5341
 7739TIP3    H247413   2.140   1.530   2.771  0.0015 -0.1466  1.2122
 7740TIP3   OH247414   6.962   5.420   1.353 -0.1544  0.2872  0.1228
 7740TIP3    H147415   6.998   5.415   1.441  3.7090  1.3137 -1.2033
 7740TIP3    H247416   6.922   5.507   1.348 -0.4075  0.2143  0.8515
 7741TIP3   OH247417   7.477   2.419   3.419 -0.1284  0.1394  0.2733
 7741TIP3    H147418   7.463   2.480   3.491 -0.8042 -0.4229  0.6404
 7741TIP3    H247419   7.421   2.451   3.348  0.3263  0.5362  0.0883
 7742TIP3   OH247420   6.998   0.158   2.772 -0.0342  0.2217 -0.1588
 7742TIP3    H147421   7.082   0.113   2.776  0.1283  0.5285 -0.0945
 7742TIP3    H247422   6.986   0.195   2.859  0.8177  2.0599 -0.7718
 7743TIP3   OH247423   7.057   1.950   1.269 -0.1042  0.2217  0.7152
 7743TIP3    H147424   7.061   2.039   1.232 -1.2607  0.0904  0.2270
 7743TIP3    H247425   7.026   1.963   1.359  0.4331  0.3635  0.8821
 7744TIP3   OH247426   3.416   1.941   1.577  0.3618  1.1848  0.4159
 7744TIP3    H147427   3.458   1.875   1.632  1.7302  1.2799 -0.4898
 7744TIP3    H247428   3.480   1.960   1.509 -0.6085  2.3683 -0.1929
 7745TIP3   OH247429   4.030   4.943   3.102 -0.0873  0.2062  0.0737
 7745TIP3    H147430   4.111   4.897   3.080  1.1781  1.6637  1.4092
 7745TIP3    H247431   4.053   5.036   3.099 -1.1438  0.6285  2.3403
 7746TIP3   OH247432   6.085   4.773   1.355 -0.0129  0.1252 -0.7087
 7746TIP3    H147433   6.135   4.836   1.304  0.5009 -0.2629 -0.6969
 7746TIP3    H247434   5.994   4.790   1.333 -0.1327  2.5962  1.2095
 7747TIP3   OH247435   3.920   2.991   2.967  0.7949  0.0667  0.3323
 7747TIP3    H147436   3.933   3.082   2.941  0.2174 -0.2347 -1.0726
 7747TIP3    H247437   3.832   2.990   3.005  0.5365 -0.0252 -0.2598
 7748TIP3   OH247438   4.074   3.311   2.442  0.0222 -0.5783 -0.4405
 7748TIP3    H147439   4.089   3.314   2.537  0.6018 -0.7233 -0.5218
 7748TIP3    H247440   3.980   3.297   2.433  0.4026 -4.6897  0.1876
 7749TIP3   OH247441   0.252   0.616   0.869 -0.0228 -0.2080  0.1283
 7749TIP3    H147442   0.194   0.574   0.933 -0.3480  0.2808  0.1574
 7749TIP3    H247443   0.210   0.598   0.785 -0.3147  0.2898  0.1623
 7750TIP3   OH247444   6.533   3.076   1.996  0.3824  0.7201  0.1557
 7750TIP3    H147445   6.512   3.018   1.923 -0.2486 -0.5372  1.2987
 7750TIP3    H247446   6.624   3.054   2.019  0.3324  0.5850  0.2247
 7751TIP3   OH247447   5.162   7.414   2.518  0.5934  0.1417  0.2213
 7751TIP3    H147448   5.203   7.347   2.573  0.6561  1.8116  2.3321
 7751TIP3    H247449   5.226   7.485   2.516  1.1865 -0.3344 -3.2221
 7752TIP3   OH247450   5.420   5.948   1.672 -0.1094 -0.1828 -0.0856
 7752TIP3    H147451   5.496   5.891   1.684  1.0286  1.0236 -1.3046
 7752TIP3    H247452   5.446   6.010   1.603 -1.4807  1.4790  0.8043
 7753TIP3   OH247453   0.632   6.274   2.204  0.0478  0.3988  0.5737
 7753TIP3    H147454   0.684   6.352   2.222  0.4393  0.3880 -0.4279
 7753TIP3    H247455   0.695   6.210   2.172 -0.5249  0.3040 -0.4213
 7754TIP3   OH247456   5.574   6.105   1.095 -0.0708  0.0847 -0.1958
 7754TIP3    H147457   5.489   6.116   1.138 -0.7362  0.9017 -1.6616
 7754TIP3    H247458   5.588   6.011   1.094 -0.8715 -0.0499  0.2262
 7755TIP3   OH247459   6.694   7.637   2.649 -0.0569 -0.0355 -0.2430
 7755TIP3    H147460   6.626   7.597   2.594  0.7932 -0.0791 -1.2881
 7755TIP3    H247461   6.692   7.730   2.626 -0.2561  0.0998  0.2847
 7756TIP3   OH247462   2.176   4.575   2.102  0.6066  0.1203 -0.7558
 7756TIP3    H147463   2.210   4.539   2.184 -1.0248 -1.2233 -0.6223
 7756TIP3    H247464   2.084   4.549   2.101  0.6035  0.0524 -3.0517
 7757TIP3   OH247465   0.763   2.504   1.621 -0.0134 -0.8465  0.1474
 7757TIP3    H147466   0.722   2.561   1.555  1.0714 -0.4309 -0.1869
 7757TIP3    H247467   0.777   2.561   1.696 -2.1690 -1.5615  1.1562
 7758TIP3   OH247468   2.980   5.661   2.109  0.1431  0.0395  0.6827
 7758TIP3    H147469   3.000   5.752   2.084  0.2417  0.3617  1.8959
 7758TIP3    H247470   2.993   5.658   2.204  1.9078 -1.7087  0.4504
 7759TIP3   OH247471   6.817   3.679   1.486  0.2231  0.1070  0.2776
 7759TIP3    H147472   6.754   3.608   1.483 -0.5398  0.8003 -0.8861
 7759TIP3    H247473   6.897   3.640   1.521 -0.1130 -1.3521 -0.5455
 7760TIP3   OH247474   6.084   1.152   0.771  0.8404  0.1446  0.0329
 7760TIP3    H147475   6.164   1.137   0.820  1.1285  0.1056 -0.4454
 7760TIP3    H247476   6.089   1.093   0.697 -0.0775 -0.5456  0.4933
 7761TIP3   OH247477   6.942   7.238   2.867 -0.0466 -0.1210 -0.0524
 7761TIP3    H147478   6.956   7.177   2.939  1.7804  0.5220  0.1688
 7761TIP3    H247479   7.022   7.289   2.862  0.9734 -1.7034 -4.0758
 7762TIP3   OH247480   1.351   3.638   3.165  0.3639  0.3248  0.3710
 7762TIP3    H147481   1.307   3.569   3.116  0.1817  1.9075 -1.8361
 7762TIP3    H247482   1.443   3.629   3.141  0.2568  1.1947 -0.3838
 7763TIP3   OH247483   4.507   7.073   1.993  0.4908 -0.3162  0.1832
 7763TIP3    H147484   4.587   7.090   2.042  0.6093  0.8058 -0.3820
 7763TIP3    H247485   4.448   7.034   2.057  0.6380  1.1277  1.2495
 7764TIP3   OH247486   1.365   4.790   2.945  0.7483 -0.1358 -0.0697
 7764TIP3    H147487   1.438   4.761   3.000  0.7730  0.4603  0.2202
 7764TIP3    H247488   1.292   4.800   3.006  0.9502  1.1734 -0.0148
 7765TIP3   OH247489   2.243   2.802   2.150  0.1285 -0.8275 -0.7012
 7765TIP3    H147490   2.213   2.846   2.229  1.6470 -0.3450 -0.3507
 7765TIP3    H247491   2.172   2.814   2.087  0.0989  1.3608 -0.3218
 7766TIP3   OH247492   7.178   4.524   3.176  0.3226  0.4882  0.1126
 7766TIP3    H147493   7.119   4.459   3.138  0.8722  0.2022 -0.2823
 7766TIP3    H247494   7.121   4.588   3.218 -0.2008 -1.3692  2.4452
 7767TIP3   OH247495   7.618   0.242   1.348 -0.6197 -0.3580  0.4221
 7767TIP3    H147496   7.604   0.172   1.412  0.9986 -0.4970  0.6762
 7767TIP3    H247497   7.706   0.275   1.368 -1.6087  2.3352  0.8645
 7768TIP3   OH247498   1.328   2.161   0.542  0.4341 -0.9668 -0.1435
 7768TIP3    H147499   1.341   2.068   0.559  0.5237 -0.7564  1.0452
 7768TIP3    H247500   1.336   2.202   0.628  2.2555  0.3712 -0.8894
 7769TIP3   OH247501   2.120   3.283   0.625  0.0930 -0.1753 -0.1705
 7769TIP3    H147502   2.124   3.190   0.645 -1.8808 -0.3046 -0.1852
 7769TIP3    H247503   2.130   3.287   0.530 -0.1118 -0.4073 -0.2036
 7770TIP3   OH247504   1.279   3.761   2.454  0.4776  0.0008  0.5754
 7770TIP3    H147505   1.357   3.792   2.499 -1.1620  0.7174  3.1706
 7770TIP3    H247506   1.214   3.830   2.470 -0.1706  0.5360 -3.4201
 7771TIP3   OH247507   2.302   5.080   2.079 -0.0366 -0.0912 -0.4037
 7771TIP3    H147508   2.251   5.021   2.134  0.5606 -1.2284 -1.0379
 7771TIP3    H247509   2.393   5.061   2.100  0.2165  2.3519  1.1740
 7772TIP3   OH247510   7.550   3.478   0.942  0.0827 -0.7073 -0.2183
 7772TIP3    H147511   7.609   3.416   0.985  0.6464 -0.4236 -0.5678
 7772TIP3    H247512   7.592   3.563   0.955  0.7727 -0.7127 -2.1393
 7773TIP3   OH247513   4.608   0.938   0.664 -0.4868  0.0125 -0.2018
 7773TIP3    H147514   4.618   0.928   0.759 -1.3240 -1.5574 -0.2438
 7773TIP3    H247515   4.547   0.868   0.639 -0.5287  0.6029 -1.8538
 7774TIP3   OH247516   2.372   0.685   2.222  0.2422  0.1264  0.0113
 7774TIP3    H147517   2.353   0.591   2.225 -0.6617  0.2760 -0.5984
 7774TIP3    H247518   2.370   0.706   2.129 -0.4282  0.9095  0.1935
 7775TIP3   OH247519   2.405   0.572   2.509 -0.4877 -0.2237 -0.4292
 7775TIP3    H147520   2.324   0.524   2.520 -0.7320  0.4908  1.0993
 7775TIP3    H247521   2.466   0.532   2.570 -0.8610  1.6918  1.3018
 7776TIP3   OH247522   2.273   4.307   1.015 -0.0929  0.3141 -0.2951
 7776TIP3    H147523   2.308   4.393   1.039  0.7814 -0.3080  0.7454
 7776TIP3    H247524   2.252   4.265   1.098 -0.3481 -0.5441 -0.7786
 7777TIP3   OH247525   7.672   2.724   3.381  0.2790 -0.3690 -0.1156
 7777TIP3    H147526   7.661   2.755   3.291  1.1309 -1.0090 -0.4553
 7777TIP3    H247527   7.764   2.698   3.387  0.2599 -0.2533  0.9743
 7778TIP3   OH247528   0.481   5.877   1.080 -0.0891  0.1212  0.1609
 7778TIP3    H147529   0.567   5.862   1.040  0.0510 -0.2743  0.6018
 7778TIP3    H247530   0.480   5.970   1.101  0.8243 -0.1367  1.4763
 7779TIP3   OH247531   4.917   2.746   1.591 -0.1184  0.4783  0.4685
 7779TIP3    H147532   4.835   2.713   1.554 -0.0102  0.5932  0.1215
 7779TIP3    H247533   4.900   2.838   1.610 -0.1402  0.4454  0.6135
 7780TIP3   OH247534   1.132   3.434   1.122  0.3238 -0.4291 -0.7922
 7780TIP3    H147535   1.143   3.421   1.216  2.0653  0.4885 -0.8254
 7780TIP3    H247536   1.119   3.346   1.087 -0.9851 -0.7222  0.3582
 7781TIP3   OH247537   0.224   4.192   1.148 -0.0872 -0.2496 -0.1507
 7781TIP3    H147538   0.216   4.284   1.173  1.1657 -0.8015  2.6763
 7781TIP3    H247539   0.138   4.169   1.113 -1.2800  1.3530  1.5499
 7782TIP3   OH247540   3.133   3.453   0.887 -0.5665  0.4480  0.0109
 7782TIP3    H147541   3.147   3.468   0.794 -1.3814  2.0117  0.0990
 7782TIP3    H247542   3.101   3.537   0.920  0.9090  0.3114  1.9638
 7783TIP3   OH247543   0.492   3.157   0.895  0.7150 -0.4531  0.6687
 7783TIP3    H147544   0.494   3.064   0.872  0.0868 -0.1399 -0.7424
 7783TIP3    H247545   0.421   3.164   0.959  1.1874 -1.0258  1.2755
 7784TIP3   OH247546   6.172   4.003   2.567  0.1960  0.5613  0.7197
 7784TIP3    H147547   6.253   4.055   2.569 -0.6841  2.0069 -0.1744
 7784TIP3    H247548   6.110   4.052   2.621 -0.4427  0.0436  0.4740
 7785TIP3   OH247549   7.618   4.049   0.725  0.1817  0.5253 -0.4831
 7785TIP3    H147550   7.542   4.069   0.671 -2.0393 -2.8495  1.0448
 7785TIP3    H247551   7.639   3.959   0.704  1.5465  0.2830  1.6278
 7786TIP3   OH247552   5.014   4.775   2.415  0.1372 -0.5723 -0.2532
 7786TIP3    H147553   5.075   4.836   2.375 -0.7474 -0.0448 -0.8387
 7786TIP3    H247554   5.035   4.690   2.376  0.7300 -0.4640 -0.1716
 7787TIP3   OH247555   1.666   4.645   2.930 -0.4105 -0.3408 -0.1592
 7787TIP3    H147556   1.670   4.555   2.962 -0.1906 -0.5284 -0.6939
 7787TIP3    H247557   1.708   4.642   2.844 -0.3367  0.2892 -0.1527
 7788TIP3   OH247558   5.328   1.766   9.151 -0.5224 -0.1720 -0.5613
 7788TIP3    H147559   5.367   1.843   9.108 -1.1252 -0.1841 -1.1404
 7788TIP3    H247560   5.366   1.766   9.239  0.9691 -0.3106 -1.1783
 7789TIP3   OH247561   5.872   5.646   2.090 -0.0968  0.2621 -0.0279
 7789TIP3    H147562   5.863   5.552   2.107  2.0786  0.4947  3.3601
 7789TIP3    H247563   5.951   5.653   2.035 -1.3141  0.0943 -1.8864
 7790TIP3   OH247564   1.285   2.230   1.858 -0.2020 -0.3169 -0.1296
 7790TIP3    H147565   1.219   2.168   1.827  0.5318 -0.5768 -1.1990
 7790TIP3    H247566   1.247   2.266   1.938 -1.4009 -0.8639 -0.4256
 7791TIP3   OH247567   1.184   6.556   1.570  0.2572 -0.2414  0.0306
 7791TIP3    H147568   1.265   6.514   1.539  0.5251  1.2179 -1.3446
 7791TIP3    H247569   1.192   6.555   1.665  0.8085 -2.1706  0.0188
 7792TIP3   OH247570   2.019   7.253   2.968 -0.6094  0.5858 -0.0480
 7792TIP3    H147571   2.057   7.176   3.010  0.2118  2.0773  2.1118
 7792TIP3    H247572   2.082   7.323   2.984 -1.7551  1.9375 -1.1299
 7793TIP3   OH247573   3.267   7.381   1.538 -0.4520  0.4400 -0.4896
 7793TIP3    H147574   3.307   7.426   1.464 -0.7546  0.6380 -0.5302
 7793TIP3    H247575   3.190   7.338   1.502  0.7596 -1.5679 -0.8411
 7794TIP3   OH247576   1.923   6.601   0.445  0.1544 -0.1898 -0.3893
 7794TIP3    H147577   1.845   6.596   0.501  0.3732 -0.2318 -0.0869
 7794TIP3    H247578   1.893   6.646   0.367 -0.2706 -0.5509 -0.4377
 7795TIP3   OH247579   0.249   2.513   1.298  0.2007  0.7150 -0.0769
 7795TIP3    H147580   0.154   2.524   1.308 -0.0004 -1.6067  1.4592
 7795TIP3    H247581   0.258   2.435   1.243  1.1209 -0.6390  1.8845
 7796TIP3   OH247582   5.249   7.055   3.321 -0.1593 -0.4953 -0.1269
 7796TIP3    H147583   5.303   7.101   3.258 -2.6328 -0.5400 -2.4850
 7796TIP3    H247584   5.288   6.968   3.327  3.2734  1.0017  2.7296
 7797TIP3   OH247585   1.302   4.876   2.115  0.0633  0.0174  0.0284
 7797TIP3    H147586   1.208   4.858   2.119 -0.0179  0.6135  1.3348
 7797TIP3    H247587   1.313   4.936   2.042 -0.4378 -0.7403 -0.6882
 7798TIP3   OH247588   7.018   6.114   3.231 -0.4103 -0.6512  0.0771
 7798TIP3    H147589   7.063   6.030   3.236  0.4161 -0.1257  2.3456
 7798TIP3    H247590   7.088   6.179   3.240 -0.9915  0.3412 -1.9628
 7799TIP3   OH247591   2.913   6.743   2.433  0.0491 -0.3488 -0.6020
 7799TIP3    H147592   2.854   6.676   2.469 -1.5056  0.9177 -0.6970
 7799TIP3    H247593   2.996   6.727   2.477 -0.9674 -0.7865  1.2653
 7800TIP3   OH247594   0.970   1.854   2.368 -0.7628 -0.2161  0.4480
 7800TIP3    H147595   0.933   1.915   2.305 -1.0069 -0.5858  0.2256
 7800TIP3    H247596   1.063   1.851   2.347 -0.9493 -0.8390 -0.3353
 7801TIP3   OH247597   2.834   4.936   2.733 -0.1005  0.1002 -0.0333
 7801TIP3    H147598   2.768   4.983   2.682 -1.0139 -0.7274  0.3676
 7801TIP3    H247599   2.788   4.908   2.812 -0.0250 -2.6710 -0.8611
 7802TIP3   OH247600   2.186   6.705   2.259  0.0730 -0.3116 -0.0746
 7802TIP3    H147601   2.204   6.618   2.225  1.9083  0.0745 -0.1699
 7802TIP3    H247602   2.231   6.765   2.199 -0.9015  0.6951  0.1579
 7803TIP3   OH247603   0.550   7.086   2.335 -0.6925 -0.0342 -0.1528
 7803TIP3    H147604   0.578   7.178   2.335 -0.4406 -0.1085 -0.4104
 7803TIP3    H247605   0.574   7.053   2.421  2.2341 -0.7471 -1.1285
 7804TIP3   OH247606   4.179   4.267   2.091  0.1584 -0.2172  0.0029
 7804TIP3    H147607   4.263   4.312   2.089  0.5762 -0.8506  1.6738
 7804TIP3    H247608   4.136   4.300   2.170 -0.4752 -1.1063  0.0443
 7805TIP3   OH247609   7.016   4.428   2.020  0.1844 -0.0365  0.1657
 7805TIP3    H147610   6.927   4.406   1.993 -1.1903  3.8530  0.8746
 7805TIP3    H247611   7.066   4.431   1.938 -1.4700  1.8203 -0.8734
 7806TIP3   OH247612   1.733   4.360   3.490 -0.5535 -0.1285  0.2713
 7806TIP3    H147613   1.796   4.333   3.423 -1.5226 -0.2785 -0.6174
 7806TIP3    H247614   1.780   4.424   3.544  0.8306 -1.3738  0.5852
 7807TIP3   OH247615   2.899   5.224   2.879 -0.2093  0.1009 -0.4963
 7807TIP3    H147616   2.886   5.146   2.933 -1.6626  0.8487  0.3113
 7807TIP3    H247617   2.992   5.244   2.888 -0.2832 -0.1650  1.2676
 7808TIP3   OH247618   1.882   1.353   2.330  0.3755 -0.2696 -0.0488
 7808TIP3    H147619   1.872   1.383   2.420 -2.1717 -3.2330  0.8419
 7808TIP3    H247620   1.961   1.299   2.331  0.6332  0.1077  0.2640
 7809TIP3   OH247621   4.754   7.494   1.238  0.0322  0.1281 -0.0847
 7809TIP3    H147622   4.842   7.483   1.203  0.9742 -0.7913  2.3128
 7809TIP3    H247623   4.730   7.407   1.271 -2.7764 -0.2343 -2.6602
 7810TIP3   OH247624   4.972   1.127   2.276 -0.0493  0.8077 -0.4319
 7810TIP3    H147625   4.911   1.198   2.256 -1.1063 -0.2138 -0.9264
 7810TIP3    H247626   4.955   1.060   2.209  1.2879  0.2926 -0.2957
 7811TIP3   OH247627   6.373   5.889   2.822 -0.4904  0.4316  0.6483
 7811TIP3    H147628   6.309   5.872   2.753  0.5886 -0.3445 -0.2095
 7811TIP3    H247629   6.387   5.803   2.863  0.5758  0.4087  0.2784
 7812TIP3   OH247630   6.049   0.180   2.930 -0.2611  0.1965 -0.2645
 7812TIP3    H147631   6.126   0.177   2.873 -1.3267  0.9128 -1.7966
 7812TIP3    H247632   6.082   0.217   3.012  0.8774  1.3931 -1.2033
 7813TIP3   OH247633   4.710   1.994   0.902  0.6116 -0.3351 -0.0726
 7813TIP3    H147634   4.751   2.029   0.982  1.0986 -0.6582 -0.1748
 7813TIP3    H247635   4.660   2.067   0.867 -2.1224 -0.9950  2.1341
 7814TIP3   OH247636   5.895   3.346   0.993 -0.2480  0.3447 -0.2325
 7814TIP3    H147637   5.873   3.255   0.972 -2.8830  1.1552 -1.3947
 7814TIP3    H247638   5.918   3.386   0.909  1.6769  0.6283  0.3707
 7815TIP3   OH247639   0.429   5.253   2.256 -0.2694  0.4490  0.8076
 7815TIP3    H147640   0.522   5.236   2.275 -1.0099 -2.1576  2.8003
 7815TIP3    H247641   0.415   5.213   2.170  0.3090  0.1187  0.8571
 7816TIP3   OH247642   4.469   2.841   2.126  0.1684 -0.1014  0.3406
 7816TIP3    H147643   4.475   2.930   2.092 -0.2312  0.0768  0.7268
 7816TIP3    H247644   4.553   2.826   2.170 -0.1817  0.5018  1.2490
 7817TIP3   OH247645   0.011   6.568   2.353  0.2441 -0.4619  0.3496
 7817TIP3    H147646  -0.022   6.553   2.442 -0.3753  1.7554  0.5378
 7817TIP3    H247647  -0.014   6.658   2.332  3.1963  0.2265 -0.8308
 7818TIP3   OH247648   6.059   7.472   1.144  0.0486 -0.0780  0.3521
 7818TIP3    H147649   6.079   7.511   1.229  0.7066 -1.5199  0.8899
 7818TIP3    H247650   5.971   7.436   1.154 -0.1808  0.4296  0.1672
 7819TIP3   OH247651   0.581   6.888   1.359  0.3580  0.0762 -0.0289
 7819TIP3    H147652   0.519   6.873   1.431 -0.7646  1.5307 -0.6407
 7819TIP3    H247653   0.565   6.815   1.299 -1.6355  0.9867 -0.7092
 7820TIP3   OH247654   2.530   2.742   3.337 -0.2077 -0.1720 -0.8466
 7820TIP3    H147655   2.541   2.753   3.431 -1.6144  0.4492 -0.7293
 7820TIP3    H247656   2.601   2.684   3.311 -0.1568 -0.8370  0.6938
 7821TIP3   OH247657   2.641   0.552   1.845  0.2310 -0.2976  0.7185
 7821TIP3    H147658   2.676   0.463   1.847  0.3443 -0.3213 -0.7702
 7821TIP3    H247659   2.593   0.557   1.761 -1.2839  0.4933  1.5766
 7822TIP3   OH247660   4.074   5.241   1.392 -0.2094 -0.5669  1.0449
 7822TIP3    H147661   4.021   5.235   1.471 -0.4079  0.2332  0.9846
 7822TIP3    H247662   4.161   5.265   1.422 -0.1479 -0.8106  1.0619
 7823TIP3   OH247663   2.512   2.507   2.807  0.7019  0.2125  0.0444
 7823TIP3    H147664   2.423   2.540   2.818 -0.0108 -0.0668 -3.4830
 7823TIP3    H247665   2.526   2.447   2.880 -1.2375  1.7240  1.7415
 7824TIP3   OH247666   6.728   7.539   3.378 -0.2768 -0.6399  0.0780
 7824TIP3    H147667   6.671   7.606   3.414 -0.2127  0.5131 -1.7934
 7824TIP3    H247668   6.709   7.540   3.284  0.8764 -2.1509 -0.2117
 7825TIP3   OH247669   1.450   2.435   1.416  0.4436 -0.3443  0.3405
 7825TIP3    H147670   1.409   2.488   1.484  0.9670  0.7484 -0.1701
 7825TIP3    H247671   1.529   2.399   1.457  0.2060 -0.5486  0.6192
 7826TIP3   OH247672   2.128   3.207   2.289 -0.3237  0.1475 -0.4935
 7826TIP3    H147673   2.047   3.162   2.266  0.7377 -2.2531  0.1687
 7826TIP3    H247674   2.188   3.137   2.315  1.8910  1.8596 -0.6947
 7827TIP3   OH247675   2.525   2.968   2.674 -0.0158 -0.5538  0.2568
 7827TIP3    H147676   2.563   2.897   2.725  1.5686 -0.6040 -0.9200
 7827TIP3    H247677   2.507   2.928   2.588  1.4992  0.5624 -0.6389
 7828TIP3   OH247678   5.629   6.091   2.018 -0.0255 -0.2334 -0.1242
 7828TIP3    H147679   5.659   6.010   1.977  0.2547 -0.7816  1.1143
 7828TIP3    H247680   5.682   6.099   2.097 -0.4987  0.8279  0.1074
 7829TIP3   OH247681   4.331   3.383   2.386  0.4316  0.4796 -0.8876
 7829TIP3    H147682   4.248   3.338   2.396  0.9427 -0.8738 -2.3351
 7829TIP3    H247683   4.378   3.366   2.468  0.1935 -0.7743 -0.9896
 7830TIP3   OH247684   0.527   1.551   2.615 -0.1662 -0.3618 -0.3866
 7830TIP3    H147685   0.557   1.592   2.534 -0.2531 -1.1040 -0.8057
 7830TIP3    H247686   0.446   1.598   2.637  1.9172  2.6302  1.5446
 7831TIP3   OH247687   2.447   7.071   0.759 -0.0057  0.3945 -0.5083
 7831TIP3    H147688   2.448   7.159   0.722  0.5653  1.1522  1.2387
 7831TIP3    H247689   2.377   7.073   0.824  1.7168  0.4008  1.4249
 7832TIP3   OH247690   0.921   3.242   3.488 -0.3797 -0.3048 -0.3368
 7832TIP3    H147691   0.843   3.296   3.502 -0.6898 -0.9628  0.4657
 7832TIP3    H247692   0.969   3.247   3.570 -0.5061 -1.4054 -0.1837
 7833TIP3   OH247693   5.106   6.310   2.876 -0.3859 -0.1520  0.2335
 7833TIP3    H147694   5.107   6.214   2.869  0.4811 -0.1150 -0.3514
 7833TIP3    H247695   5.188   6.331   2.921 -0.5587  0.3102  0.3287
 7834TIP3   OH247696   0.754   2.383   2.755 -0.2737 -0.0289  0.0321
 7834TIP3    H147697   0.783   2.353   2.670  1.0044  1.1492  0.0080
 7834TIP3    H247698   0.730   2.475   2.741 -0.7770 -0.0359  0.7853
 7835TIP3   OH247699   5.769   5.527   2.686  0.0168 -0.4735  0.8588
 7835TIP3    H147700   5.733   5.563   2.604  0.9433 -0.5735  0.3984
 7835TIP3    H247701   5.694   5.525   2.745 -0.4470  0.5513  0.3370
 7836TIP3   OH247702   6.210   5.237   2.382  0.2685  0.5471  0.4236
 7836TIP3    H147703   6.194   5.190   2.301 -2.3638  1.3354  0.4086
 7836TIP3    H247704   6.141   5.303   2.387  1.7699  2.1435  2.1407
 7837TIP3   OH247705   3.357   5.321   2.060 -0.7030 -0.7245  0.2383
 7837TIP3    H147706   3.285   5.326   2.123 -1.7980  0.5793 -1.0423
 7837TIP3    H247707   3.350   5.402   2.010 -0.5136 -2.1255 -2.2029
 7838TIP3   OH247708   6.205   3.300   0.793 -0.1391 -0.1393 -0.2682
 7838TIP3    H147709   6.111   3.312   0.778 -0.1856 -0.0136  0.1133
 7838TIP3    H247710   6.235   3.385   0.824 -0.0320 -0.3727  0.2752
 7839TIP3   OH247711   1.480   4.780   0.938  0.1194 -0.1876  0.3325
 7839TIP3    H147712   1.471   4.864   0.895 -0.4112 -0.6048 -0.3848
 7839TIP3    H247713   1.417   4.783   1.010  0.9776  0.4912  1.0795
 7840TIP3   OH247714   3.623   2.406   3.293 -0.2663  0.2214 -0.2910
 7840TIP3    H147715   3.533   2.373   3.292 -0.0645 -0.3739 -2.4808
 7840TIP3    H247716   3.615   2.496   3.326 -1.6083  0.0696 -0.1645
 7841TIP3   OH247717   2.373   2.960   3.010  0.7888  0.3586  0.2314
 7841TIP3    H147718   2.334   2.973   2.924  0.8209 -0.1726  0.1330
 7841TIP3    H247719   2.464   2.987   3.000  0.8275  0.1675  0.0582
 7842TIP3   OH247720   5.381   3.255   2.777  0.1110  0.1795 -0.2840
 7842TIP3    H147721   5.453   3.317   2.768  1.0022 -0.6330  0.9657
 7842TIP3    H247722   5.339   3.279   2.860  0.9269 -1.3053  0.5981
 7843TIP3   OH247723   3.697   5.753   2.174 -0.0703  0.1181  0.4150
 7843TIP3    H147724   3.720   5.662   2.194  2.0941  0.6649  0.6108
 7843TIP3    H247725   3.768   5.784   2.119 -0.4874  1.8742  0.8105
 7844TIP3   OH247726   0.744   3.434   3.286 -0.7710 -0.1879  0.4356
 7844TIP3    H147727   0.726   3.439   3.380  0.1887  2.8823  0.5880
 7844TIP3    H247728   0.683   3.497   3.247 -1.5001 -1.7741 -1.1231
 7845TIP3   OH247729   6.982   1.299   1.898  0.0162 -0.0025  0.0756
 7845TIP3    H147730   6.890   1.324   1.892  0.1304  0.7490  1.2232
 7845TIP3    H247731   6.987   1.245   1.977  0.6362  0.3060  0.2507
 7846TIP3   OH247732   2.692   4.906   2.978 -0.3364  0.1795  0.3780
 7846TIP3    H147733   2.602   4.930   2.956 -0.8676 -1.4375  0.6270
 7846TIP3    H247734   2.686   4.814   3.003  1.4980 -0.1230 -0.1739
 7847TIP3   OH247735   3.194   4.079   1.147 -0.1660 -0.0665 -0.1079
 7847TIP3    H147736   3.145   4.154   1.182 -0.6611 -0.3157 -0.2620
 7847TIP3    H247737   3.180   4.085   1.052 -1.1659 -1.0133 -0.0343
 7848TIP3   OH247738   4.374   5.786   1.475 -0.2974 -0.2018 -0.2614
 7848TIP3    H147739   4.397   5.802   1.567  1.7513 -2.6382 -0.2385
 7848TIP3    H247740   4.311   5.713   1.480 -1.4921  0.7603 -0.7680
 7849TIP3   OH247741   0.170   6.247   0.958  0.8110  0.1606  0.6180
 7849TIP3    H147742   0.205   6.220   1.043 -0.2179  0.6288  1.2028
 7849TIP3    H247743   0.245   6.288   0.913  1.7037 -1.2462  0.7540
 7850TIP3   OH247744   1.076   5.269   0.939 -0.2946 -0.3141 -0.1500
 7850TIP3    H147745   1.138   5.311   0.879 -0.3238 -1.1969 -0.8008
 7850TIP3    H247746   1.129   5.250   1.017 -0.2147  0.6631  0.0530
 7851TIP3   OH247747   0.194   4.406   0.527 -0.4919 -0.2330 -0.2224
 7851TIP3    H147748   0.117   4.418   0.472 -0.5225  0.0820 -0.1112
 7851TIP3    H247749   0.193   4.314   0.551 -0.8141 -0.2360 -0.2498
 7852TIP3   OH247750   6.844   1.100   1.628 -0.6566 -0.1817  0.1466
 7852TIP3    H147751   6.777   1.094   1.559  0.4787 -2.9284 -0.8715
 7852TIP3    H247752   6.886   1.185   1.613 -0.8772 -0.4120 -2.2069
 7853TIP3   OH247753   1.782   3.049   2.726  0.5310 -0.2636 -0.2909
 7853TIP3    H147754   1.811   3.056   2.635  0.3469 -0.7192 -0.3897
 7853TIP3    H247755   1.844   3.104   2.775  1.7479 -1.4066 -0.4662
 7854TIP3   OH247756   5.111   0.592   3.227  0.4909 -0.0965  0.5939
 7854TIP3    H147757   5.057   0.662   3.263  1.1713  0.0013  1.4803
 7854TIP3    H247758   5.182   0.582   3.291  2.6380  1.1010 -1.4322
 7855TIP3   OH247759   0.197   7.105   2.850 -0.7118  0.6071 -0.6873
 7855TIP3    H147760   0.207   7.009   2.854 -0.0047  0.6951  2.1315
 7855TIP3    H247761   0.274   7.138   2.897 -1.0969  2.5640 -1.3828
 7856TIP3   OH247762   5.967   5.074   2.331 -0.4661 -0.6842  0.2115
 7856TIP3    H147763   5.875   5.091   2.353 -0.9906 -0.1245 -2.1942
 7856TIP3    H247764   6.003   5.161   2.312  0.6857 -0.8648  1.4113
 7857TIP3   OH247765   4.688   1.791   1.183  0.1938  0.4489 -0.1251
 7857TIP3    H147766   4.719   1.720   1.238 -1.7888 -1.0197 -0.7902
 7857TIP3    H247767   4.643   1.851   1.243 -0.9840 -0.5690  0.0438
 7858TIP3   OH247768   7.595   2.430   0.487 -0.0977 -0.4002 -0.0714
 7858TIP3    H147769   7.655   2.505   0.485  0.6661 -1.0120 -1.3324
 7858TIP3    H247770   7.644   2.359   0.446 -1.0890 -1.3942  0.4076
 7859TIP3   OH247771   7.403   4.208   1.006 -0.1631  0.5137  0.1406
 7859TIP3    H147772   7.368   4.296   1.024 -0.1099  0.8561 -1.3076
 7859TIP3    H247773   7.373   4.187   0.918  2.1832  0.3024 -0.7025
 7860TIP3   OH247774   5.199   3.954   1.172 -0.3758 -0.0593  0.1506
 7860TIP3    H147775   5.218   3.958   1.079  2.0099  2.6265  0.6336
 7860TIP3    H247776   5.149   4.034   1.190 -0.6241 -0.4373  1.2239
 7861TIP3   OH247777   5.977   5.770   1.336  0.0497 -1.0162 -0.0833
 7861TIP3    H147778   6.048   5.813   1.288  0.7266 -1.6190  0.3445
 7861TIP3    H247779   6.010   5.762   1.426 -1.3788  0.5298  0.6351
 7862TIP3   OH247780   1.656   4.366   3.020 -0.2958  0.1829 -0.2857
 7862TIP3    H147781   1.667   4.298   3.087 -1.5875  0.3560  0.1144
 7862TIP3    H247782   1.683   4.323   2.939  2.0066  0.1849  0.4038
 7863TIP3   OH247783   0.540   1.863   1.640  0.5292 -0.1064  0.4675
 7863TIP3    H147784   0.602   1.839   1.710  2.0603  2.0748 -0.0219
 7863TIP3    H247785   0.462   1.894   1.687  1.2107  0.5271  1.2220
 7864TIP3   OH247786   6.088   0.200   1.112  0.1124  0.1603 -0.4832
 7864TIP3    H147787   6.013   0.189   1.170 -0.5325  0.2601 -1.2870
 7864TIP3    H247788   6.082   0.127   1.051 -0.3300  1.1351 -1.6345
 7865TIP3   OH247789   1.928   4.165   1.541 -0.6835 -0.5001 -0.2690
 7865TIP3    H147790   1.955   4.080   1.505  3.5498  0.0040  1.1089
 7865TIP3    H247791   1.927   4.151   1.635 -0.9651  0.7265 -0.0767
 7866TIP3   OH247792   4.689   1.320   1.224 -0.1136 -0.0326  0.4535
 7866TIP3    H147793   4.596   1.299   1.215 -0.9117  1.1054  4.1841
 7866TIP3    H247794   4.730   1.281   1.147 -3.6197 -0.7168 -1.2788
 7867TIP3   OH247795   4.264   3.038   1.957 -0.6012  0.0027 -0.1031
 7867TIP3    H147796   4.313   3.089   2.022 -0.5738 -0.5826  0.3460
 7867TIP3    H247797   4.234   2.961   2.005 -1.4087  0.0328 -0.5462
 7868TIP3   OH247798   5.288   4.618   1.972 -0.3813  0.3626 -0.3247
 7868TIP3    H147799   5.290   4.525   1.952  0.7948 -0.0414  1.4674
 7868TIP3    H247800   5.204   4.632   2.014 -1.1061  0.4044 -1.7279
 7869TIP3   OH247801   7.583   1.515   2.686 -0.1093 -0.1279 -0.0002
 7869TIP3    H147802   7.668   1.485   2.718 -0.3791 -1.0211 -0.0926
 7869TIP3    H247803   7.570   1.468   2.604 -1.0489 -0.6071  0.4099
 7870TIP3   OH247804   6.596   1.779   2.853 -0.2065 -0.1281  0.2855
 7870TIP3    H147805   6.546   1.707   2.892 -1.1778 -0.8167 -2.0546
 7870TIP3    H247806   6.647   1.814   2.925 -0.4716 -2.5062  1.7506
 7871TIP3   OH247807   1.960   4.304   1.102  0.0317 -0.2642  0.0659
 7871TIP3    H147808   2.041   4.264   1.134  0.8469  1.8228  0.7971
 7871TIP3    H247809   1.959   4.284   1.009  0.3355 -2.0149  0.4085
 7872TIP3   OH247810   1.575   5.266   1.474 -0.5496  0.4930 -0.3836
 7872TIP3    H147811   1.657   5.293   1.516 -0.1885 -0.3204 -0.5375
 7872TIP3    H247812   1.535   5.206   1.537  1.1972 -2.7636 -2.0731
 7873TIP3   OH247813   5.555   1.040   0.897  0.2813 -0.7161 -0.4943
 7873TIP3    H147814   5.645   1.044   0.866  0.0025 -1.5523 -1.4577
 7873TIP3    H247815   5.505   1.092   0.834 -0.2495 -2.2065 -1.3501
 7874TIP3   OH247816   3.131   2.575   2.130  0.3342 -0.4491 -0.2296
 7874TIP3    H147817   3.142   2.528   2.213  0.5437  0.0769  0.0442
 7874TIP3    H247818   3.198   2.643   2.131 -0.2041  0.1013 -0.4448
 7875TIP3   OH247819   7.102   2.512   1.496 -0.0732 -0.4697 -0.1578
 7875TIP3    H147820   7.109   2.545   1.586  0.9607  2.4192 -1.1830
 7875TIP3    H247821   7.111   2.418   1.505 -0.2385 -0.3142  2.7873
 7876TIP3   OH247822   6.312   0.027   1.181 -0.1726 -0.0769 -0.0601
 7876TIP3    H147823   6.256  -0.011   1.113 -0.3631  0.0714  0.0142
 7876TIP3    H247824   6.384  -0.036   1.191 -1.1519 -1.0840  0.9723
 7877TIP3   OH247825   1.294   6.848   1.545  0.2399  0.3927 -0.2811
 7877TIP3    H147826   1.385   6.840   1.516  0.2408 -0.8163  0.0215
 7877TIP3    H247827   1.255   6.762   1.528 -0.0476 -0.0461  2.3206
 7878TIP3   OH247828   0.113   6.615   0.736  0.1404  0.2192 -0.1769
 7878TIP3    H147829   0.050   6.594   0.667 -0.7696  2.1854 -0.0026
 7878TIP3    H247830   0.197   6.588   0.700 -0.5710 -0.7302 -1.1843
 7879TIP3   OH247831   4.393   6.318   2.193  0.1799  0.2458  0.4781
 7879TIP3    H147832   4.420   6.290   2.280 -1.7141 -0.8613  0.7555
 7879TIP3    H247833   4.319   6.376   2.208 -1.1406 -1.1445 -0.4145
 7880TIP3   OH247834   1.141   3.107   3.671 -0.1108  0.7073  0.4562
 7880TIP3    H147835   1.188   3.146   3.596 -1.3196  4.0929  1.2801
 7880TIP3    H247836   1.117   3.019   3.641  2.5976  0.5603 -1.7154
 7881TIP3   OH247837   7.161   6.890   0.753  0.6945  0.0919  0.2486
 7881TIP3    H147838   7.197   6.943   0.682  1.2940  1.0441  1.2357
 7881TIP3    H247839   7.160   6.948   0.829  0.9538 -1.1718  1.2621
 7882TIP3   OH247840   4.614   1.871   3.213 -0.1749 -0.4684 -0.1249
 7882TIP3    H147841   4.658   1.808   3.271  1.8363  0.3847 -0.6436
 7882TIP3    H247842   4.595   1.946   3.270  1.4862  0.2265 -0.4058
 7883TIP3   OH247843   5.113   2.620   1.761  0.6357  0.0628  0.1536
 7883TIP3    H147844   5.166   2.559   1.711 -0.5162  0.3938 -1.5673
 7883TIP3    H247845   5.040   2.641   1.703 -1.4862 -0.5088  2.4726
 7884TIP3   OH247846   4.636   3.495   1.565  0.3305 -0.0601 -0.2654
 7884TIP3    H147847   4.627   3.416   1.619  1.7708 -0.4849 -0.5839
 7884TIP3    H247848   4.657   3.462   1.478  4.4930  0.5641  0.2674
 7885TIP3   OH247849   0.793   5.838   0.612  0.2489 -0.2319  0.0879
 7885TIP3    H147850   0.783   5.823   0.518 -2.3281  1.1653  0.0731
 7885TIP3    H247851   0.760   5.758   0.652 -1.8762  0.4658 -0.1858
 7886TIP3   OH247852   3.563   7.632   1.529  0.2061  0.4867 -0.1471
 7886TIP3    H147853   3.539   7.561   1.469 -0.4586 -2.0357  2.8417
 7886TIP3    H247854   3.480   7.676   1.547  0.2152  0.5305 -0.2119
 7887TIP3   OH247855   1.776   1.892   0.612 -0.3537  0.3297  0.9277
 7887TIP3    H147856   1.829   1.896   0.691  2.2053 -2.4437 -0.4402
 7887TIP3    H247857   1.788   1.978   0.570  1.7440  0.3814  1.5177
 7888TIP3   OH247858   5.950   4.100   0.866 -0.4966  0.3370  0.1033
 7888TIP3    H147859   5.872   4.050   0.889 -0.4482 -0.6323 -1.6668
 7888TIP3    H247860   5.960   4.087   0.772  0.8228  1.8635 -0.0081
 7889TIP3   OH247861   0.055   7.448   2.993 -0.3621  0.3196  0.4083
 7889TIP3    H147862   0.145   7.438   3.025 -0.2369  0.5004  0.1121
 7889TIP3    H247863   0.003   7.391   3.050  0.2473 -1.5312 -0.8313
 7890TIP3   OH247864   5.586   7.378   1.949  0.0819  0.1882  0.1638
 7890TIP3    H147865   5.662   7.386   1.891  1.2725 -1.3041  1.4301
 7890TIP3    H247866   5.540   7.300   1.918  2.5680 -2.6833  3.0658
 7891TIP3   OH247867   5.936   4.336   1.026 -0.7415 -0.3094  0.5973
 7891TIP3    H147868   5.905   4.258   0.980  0.0272 -0.1813 -0.1690
 7891TIP3    H247869   5.976   4.302   1.106  2.3103 -1.0711 -1.0939
 7892TIP3   OH247870   6.374   6.300   3.364  0.5875  0.0090 -0.2926
 7892TIP3    H147871   6.351   6.376   3.416  3.0870 -0.2792  1.4293
 7892TIP3    H247872   6.409   6.336   3.283 -0.5113  0.5792 -0.5279
 7893TIP3   OH247873   4.807   4.588   0.774 -0.0105  0.5411  0.4083
 7893TIP3    H147874   4.866   4.512   0.766 -0.8160 -0.1269  0.6358
 7893TIP3    H247875   4.721   4.553   0.750 -0.1806  1.7047 -0.7527
 7894TIP3   OH247876   6.635   1.294   2.268  0.4642  0.0351  0.2766
 7894TIP3    H147877   6.603   1.243   2.194  0.8727 -0.1256  0.2047
 7894TIP3    H247878   6.638   1.232   2.341  0.8150 -0.0085  0.2275
 7895TIP3   OH247879   7.600   0.261   2.002 -0.1195 -0.0158 -0.7092
 7895TIP3    H147880   7.566   0.316   1.932  0.5678 -1.3102 -2.1115
 7895TIP3    H247881   7.679   0.222   1.966  1.0823  0.3873  1.3142
 7896TIP3   OH247882   3.629   7.506   2.140 -0.1708 -0.4326  0.1049
 7896TIP3    H147883   3.607   7.421   2.101  1.3871 -0.6458 -0.3880
 7896TIP3    H247884   3.676   7.484   2.220 -0.9614 -0.0050  0.6967
 7897TIP3   OH247885   1.992   4.701   3.089 -0.9555  0.1780 -0.1405
 7897TIP3    H147886   2.000   4.628   3.027 -2.1801  0.1779 -0.3203
 7897TIP3    H247887   1.909   4.743   3.065 -1.0767  0.6279  1.0331
 7898TIP3   OH247888   2.106   2.370   2.369  0.0489 -0.1791 -0.0094
 7898TIP3    H147889   2.033   2.308   2.369 -0.2115  0.0979 -0.9661
 7898TIP3    H247890   2.168   2.333   2.305  1.0402 -0.7272  1.2329
 7899TIP3   OH247891   4.044   5.299   2.497  0.0306 -0.5671 -0.2830
 7899TIP3    H147892   4.093   5.303   2.414 -0.0148 -1.6014 -0.3721
 7899TIP3    H247893   3.953   5.288   2.470 -0.1239  0.2055 -0.0990
 7900TIP3   OH247894   2.797   6.102   2.027 -0.1670  0.1303 -0.2566
 7900TIP3    H147895   2.827   6.193   2.027 -0.2335  0.1576  0.1720
 7900TIP3    H247896   2.728   6.099   1.962  1.2785 -0.1178 -1.8643
 7901TIP3   OH247897   5.649   4.211   2.275 -0.1237  0.0204 -0.0334
 7901TIP3    H147898   5.685   4.285   2.325  0.2964  0.7402 -1.3421
 7901TIP3    H247899   5.575   4.181   2.327 -0.7017  1.7972  0.2317
 7902TIP3   OH247900   2.699   0.123   2.767 -0.2696  0.1684  0.2732
 7902TIP3    H147901   2.612   0.138   2.804  0.3139  1.6220  1.1410
 7902TIP3    H247902   2.731   0.044   2.812 -1.0934 -0.3218  0.0091
 7903TIP3   OH247903   5.466   0.587   0.851  0.1144  0.2853 -0.0928
 7903TIP3    H147904   5.380   0.564   0.815  0.6680 -1.2697 -0.5391
 7903TIP3    H247905   5.510   0.634   0.780 -0.3680  1.1255  0.1529
 7904TIP3   OH247906   0.695   3.759   1.507 -0.4284 -0.2365 -0.1877
 7904TIP3    H147907   0.655   3.761   1.420  0.9214 -1.4759 -0.8920
 7904TIP3    H247908   0.780   3.801   1.496  0.1872 -1.3181  0.2695
 7905TIP3   OH247909   2.602   0.936   1.852  0.5078 -0.0471 -0.0070
 7905TIP3    H147910   2.521   0.891   1.876  0.4592 -0.3978 -0.7842
 7905TIP3    H247911   2.573   1.006   1.792  0.6299  0.7424  0.8376
 7906TIP3   OH247912   1.359   2.485   1.140  0.5231  0.4176 -0.3223
 7906TIP3    H147913   1.416   2.460   1.212 -0.3738 -0.0190  0.2503
 7906TIP3    H247914   1.368   2.413   1.076 -0.9136 -0.6979  0.6665
 7907TIP3   OH247915   1.078   2.363   8.958 -0.5964  0.2366 -0.2535
 7907TIP3    H147916   1.106   2.392   9.045  0.8937  1.3612 -1.0597
 7907TIP3    H247917   1.038   2.441   8.919 -2.2900 -0.5620 -0.2154
 7908TIP3   OH247918   3.729   5.211   0.982  0.0299  0.1212  0.4193
 7908TIP3    H147919   3.815   5.225   1.022  0.5090  0.9191 -0.8536
 7908TIP3    H247920   3.679   5.289   1.005  0.7743  1.2979 -1.6494
 7909TIP3   OH247921   7.239   1.371   0.907 -0.3797  0.4480 -0.3570
 7909TIP3    H147922   7.281   1.456   0.893 -0.9200  0.5301 -1.5171
 7909TIP3    H247923   7.217   1.339   0.820  1.3866 -1.7243 -0.1100
 7910TIP3   OH247924   3.945   5.661   3.126 -0.0769 -0.3592  0.6587
 7910TIP3    H147925   4.028   5.614   3.123 -0.3366 -0.7841  0.0028
 7910TIP3    H247926   3.969   5.753   3.141  0.4483 -0.6319  1.5340
 7911TIP3   OH247927   3.775   2.251   2.103 -0.1252  0.3271  0.6323
 7911TIP3    H147928   3.847   2.304   2.138  0.8649 -0.0289 -0.7627
 7911TIP3    H247929   3.780   2.264   2.008 -2.9361  1.5825  0.5324
 7912TIP3   OH247930   6.195   5.210   2.085  0.4244 -0.2868  0.5333
 7912TIP3    H147931   6.159   5.161   2.011 -1.8203  0.0234  1.3361
 7912TIP3    H247932   6.269   5.158   2.114  1.5455 -0.2901 -2.0532
 7913TIP3   OH247933   1.556   2.283   0.460  0.3633  0.2583  0.5884
 7913TIP3    H147934   1.472   2.242   0.481  0.4422 -0.4970 -0.4786
 7913TIP3    H247935   1.533   2.365   0.417  0.1003 -0.6998 -1.2071
 7914TIP3   OH247936   3.780   4.531   0.978 -0.4432 -0.1780 -0.2852
 7914TIP3    H147937   3.807   4.595   1.044  1.9277 -0.8906 -0.4703
 7914TIP3    H247938   3.694   4.501   1.008 -1.3071  2.5200  0.1860
 7915TIP3   OH247939   2.996   0.813   0.688 -0.7170  0.0085  0.4602
 7915TIP3    H147940   2.961   0.849   0.770 -1.3399 -1.4530  0.8641
 7915TIP3    H247941   3.016   0.891   0.636  1.1137  1.0476  2.5268
 7916TIP3   OH247942   0.842   1.658   2.726  0.1570  0.1062  0.0216
 7916TIP3    H147943   0.833   1.629   2.817 -0.1718  0.7933  0.2111
 7916TIP3    H247944   0.935   1.648   2.707  0.4281  0.9685  0.7883
 7917TIP3   OH247945   5.905   3.871   1.273 -0.3399 -0.2365 -0.5953
 7917TIP3    H147946   5.948   3.825   1.201  1.6768 -0.2526  0.5421
 7917TIP3    H247947   5.904   3.807   1.344  1.1153  0.9324  0.5363
 7918TIP3   OH247948   3.252   6.799   2.796  0.4644 -0.0933 -0.5060
 7918TIP3    H147949   3.339   6.764   2.816  0.6806  0.2842 -0.7814
 7918TIP3    H247950   3.206   6.799   2.880  0.2317 -1.6440 -0.5934
 7919TIP3   OH247951   4.428   3.982   1.233  0.3515 -0.0875 -0.0120
 7919TIP3    H147952   4.338   4.004   1.256 -0.2541 -1.8776 -0.5102
 7919TIP3    H247953   4.452   4.048   1.168 -1.1352 -0.4313 -0.9708
 7920TIP3   OH247954   6.107   1.664   1.264 -0.2902 -0.3093  0.5834
 7920TIP3    H147955   6.173   1.709   1.316  0.7468 -2.3733  1.1575
 7920TIP3    H247956   6.122   1.571   1.281 -2.1461 -0.9175 -0.7510
 7921TIP3   OH247957   3.791   0.737   1.029  0.5327  0.2650 -0.0200
 7921TIP3    H147958   3.838   0.770   1.106 -1.9794 -1.3749  2.4526
 7921TIP3    H247959   3.702   0.772   1.039 -0.0048 -0.4814 -1.8752
 7922TIP3   OH247960   3.446   7.085   1.900 -0.0541 -0.2149 -0.5973
 7922TIP3    H147961   3.427   7.169   1.942 -1.0708  0.1301 -1.7157
 7922TIP3    H247962   3.514   7.046   1.956  0.0197  1.0764  0.2656
 7923TIP3   OH247963   2.788   6.046   1.583 -0.6420 -1.0849  0.0211
 7923TIP3    H147964   2.869   6.040   1.633 -0.3584  2.8307  0.3514
 7923TIP3    H247965   2.817   6.053   1.492 -0.4035  1.4694  0.2263
 7924TIP3   OH247966   5.961   2.569   1.961 -0.4280 -0.5107  0.2471
 7924TIP3    H147967   6.004   2.496   1.916 -4.1641 -1.7516 -1.7476
 7924TIP3    H247968   5.910   2.613   1.892 -0.2105  2.5586  1.8636
 7925TIP3   OH247969   5.970   0.766   2.303  0.2834 -0.4426 -0.5510
 7925TIP3    H147970   5.999   0.850   2.338 -0.6800 -0.2820 -0.1046
 7925TIP3    H247971   6.051   0.718   2.286  0.8308 -0.2922  1.3529
 7926TIP3   OH247972   4.226   6.931   2.785  0.0325 -0.2077  0.0504
 7926TIP3    H147973   4.230   6.851   2.837  2.2434  0.3172  0.8009
 7926TIP3    H247974   4.274   6.909   2.705  1.1979  0.5087  0.5275
 7927TIP3   OH247975   4.975   2.607   2.486 -0.1700  0.6791 -0.1611
 7927TIP3    H147976   5.064   2.640   2.472 -0.3028  1.1271  0.0508
 7927TIP3    H247977   4.919   2.683   2.476 -0.5686  0.3285 -0.6403
 7928TIP3   OH247978   4.196   5.105   1.671  0.1579 -0.2141  0.0293
 7928TIP3    H147979   4.134   5.048   1.624  1.0555  0.0947 -1.5993
 7928TIP3    H247980   4.256   5.044   1.715 -0.4352 -0.5099  0.4445
 7929TIP3   OH247981   1.281   5.580   0.963 -0.1538  0.2177 -0.1402
 7929TIP3    H147982   1.231   5.530   0.898 -0.3196 -0.4719  0.4961
 7929TIP3    H247983   1.219   5.596   1.034  0.1975  0.3972  0.1313
 7930TIP3   OH247984   5.973   5.072   3.181 -0.1730  0.6372 -0.4533
 7930TIP3    H147985   6.024   5.150   3.161  0.7571  0.5690  1.4651
 7930TIP3    H247986   6.019   5.001   3.137  2.5334  0.3040  2.5891
 7931TIP3   OH247987   6.645   2.435   2.061 -0.5585 -0.1632 -0.2271
 7931TIP3    H147988   6.692   2.387   1.993  0.0528 -1.1324  0.8468
 7931TIP3    H247989   6.557   2.446   2.027 -0.0330  0.1369 -1.5317
 7932TIP3   OH247990   1.220   3.548   0.586  0.1065  0.1556  0.1849
 7932TIP3    H147991   1.182   3.466   0.554  1.4615 -0.0773 -0.9683
 7932TIP3    H247992   1.221   3.540   0.681 -0.1056 -1.0132  0.0972
 7933TIP3   OH247993   1.238   5.517   0.503  0.5798 -0.2489  0.1352
 7933TIP3    H147994   1.206   5.602   0.472 -0.6264 -0.8362 -0.2733
 7933TIP3    H247995   1.325   5.536   0.539  0.5637  1.0535 -0.4662
 7934TIP3   OH247996   5.632   2.973   2.529  0.0316 -0.1370  0.2875
 7934TIP3    H147997   5.556   2.946   2.477  1.3981 -0.9023 -1.4130
 7934TIP3    H247998   5.642   2.905   2.595 -1.5632  0.7026  1.4646
 7935TIP3   OH247999   2.501   4.137   1.160 -0.1394 -0.4478 -0.1113
 7935TIP3    H148000   2.416   4.098   1.140 -1.5274  2.0553  0.5047
 7935TIP3    H248001   2.508   4.134   1.255  0.1291 -0.0517 -0.1124
 7936TIP3   OH248002   7.522   6.740   2.847  0.0254 -0.4520  0.1286
 7936TIP3    H148003   7.600   6.723   2.793  0.4663  0.2872  0.5144
 7936TIP3    H248004   7.521   6.835   2.858 -1.9760 -0.2131 -1.4067
 7937TIP3   OH248005   2.544   0.946   2.153  0.1718 -0.2833 -0.5032
 7937TIP3    H148006   2.539   0.886   2.227  0.1721  0.0434 -0.2324
 7937TIP3    H248007   2.595   0.899   2.087  0.5923 -0.3898 -0.1079
 7938TIP3   OH248008   1.731   3.696   0.964  0.6425  0.0814  0.1261
 7938TIP3    H148009   1.818   3.717   0.998  1.1758  0.9102 -1.6136
 7938TIP3    H248010   1.681   3.777   0.974  1.4758  1.1029 -2.8970
 7939TIP3   OH248011   6.776   5.223   1.423  0.2875  0.1292  0.3310
 7939TIP3    H148012   6.813   5.292   1.366 -0.1885 -0.1956 -0.3812
 7939TIP3    H248013   6.853   5.180   1.460  0.6863 -0.7119 -1.3491
 7940TIP3   OH248014   3.679   2.791   1.360 -0.2740  0.2364 -0.1277
 7940TIP3    H148015   3.669   2.700   1.387  0.4180  0.2561  0.2148
 7940TIP3    H248016   3.638   2.842   1.429  2.3386  0.3375  1.4686
 7941TIP3   OH248017   2.103   6.434   0.361  0.1146  0.3762  0.0374
 7941TIP3    H148018   2.032   6.495   0.381  0.9788  0.9517  1.4354
 7941TIP3    H248019   2.151   6.475   0.289 -0.6511  0.2118 -0.5895
 7942TIP3   OH248020   4.560   2.220   0.837 -0.0655 -0.8109 -0.2829
 7942TIP3    H148021   4.583   2.281   0.767 -0.6267 -1.5616 -1.1407
 7942TIP3    H248022   4.465   2.227   0.846  0.1331  0.3371  1.4272
 7943TIP3   OH248023   5.561   6.403   1.518 -0.1248  0.0422  0.2749
 7943TIP3    H148024   5.608   6.479   1.551 -0.0894 -0.3630  1.1966
 7943TIP3    H248025   5.566   6.339   1.589 -2.2845  0.0741  0.5158
 7944TIP3   OH248026   5.074   3.099   1.499  0.3151 -0.3038  0.1023
 7944TIP3    H148027   5.033   3.141   1.424 -0.1280 -0.2471  0.3742
 7944TIP3    H248028   5.164   3.083   1.471  0.1093 -0.4295 -0.4952
 7945TIP3   OH248029   5.906   1.326   1.380  0.0303 -0.5157 -0.4128
 7945TIP3    H148030   5.958   1.350   1.303  1.5347  0.2464  0.7861
 7945TIP3    H248031   5.964   1.270   1.432  0.5360  1.9588  1.9240
 7946TIP3   OH248032   0.640   3.879   1.743  1.1128 -0.1921  0.2292
 7946TIP3    H148033   0.587   3.938   1.690  0.6885 -0.4685  0.3429
 7946TIP3    H248034   0.680   3.819   1.679 -0.6985 -1.5887  0.3002
 7947TIP3   OH248035   7.097   2.506   0.422 -0.2098 -0.4659  0.3542
 7947TIP3    H148036   7.142   2.437   0.472 -0.8664 -1.2657 -0.1262
 7947TIP3    H248037   7.121   2.489   0.331 -1.4415 -0.9056  0.0881
 7948TIP3   OH248038   1.745   0.857   1.068 -0.6280  0.3010  0.5379
 7948TIP3    H148039   1.663   0.898   1.040 -2.0451 -2.3436  0.4793
 7948TIP3    H248040   1.760   0.788   1.004  0.6585 -0.4481  1.6049
 7949TIP3   OH248041   1.235   4.544   3.202  0.0165  0.2262 -0.0573
 7949TIP3    H148042   1.326   4.529   3.177  0.0068  0.0484  0.0082
 7949TIP3    H248043   1.198   4.456   3.213 -0.3284  0.2935 -0.6723
 7950TIP3   OH248044   3.922   6.034   2.839  0.3771  0.2363  0.1190
 7950TIP3    H148045   3.839   6.054   2.796 -0.4681 -1.0903  1.0555
 7950TIP3    H248046   3.920   6.082   2.921  0.7016  0.4738 -0.0073
 7951TIP3   OH248047   3.730   3.306   1.611  0.2742  0.1372  0.1708
 7951TIP3    H148048   3.739   3.293   1.516 -0.6436  2.1063 -0.2346
 7951TIP3    H248049   3.780   3.385   1.629  2.1189 -1.2883  1.7403
 7952TIP3   OH248050   5.397   3.026   1.697 -0.0270 -0.3755 -0.0696
 7952TIP3    H148051   5.375   3.008   1.605 -1.3188 -2.7716  0.6393
 7952TIP3    H248052   5.312   3.032   1.741  0.5861 -0.7303  1.2097
 7953TIP3   OH248053   0.056   5.817   2.514 -0.0502  0.1975 -0.2719
 7953TIP3    H148054   0.150   5.798   2.523 -0.0756 -0.0637 -0.5436
 7953TIP3    H248055   0.052   5.885   2.447 -0.1642 -1.0441 -1.5918
 7954TIP3   OH248056   2.017   0.326   1.503 -0.4126  0.6697  0.2134
 7954TIP3    H148057   2.079   0.351   1.435 -1.3402  1.5918 -0.3086
 7954TIP3    H248058   2.044   0.376   1.580 -0.6320  1.2388 -0.0750
 7955TIP3   OH248059   0.080   7.468   2.088 -0.1353 -0.2558  0.1164
 7955TIP3    H148060   0.131   7.436   2.013  1.8065  3.2890 -0.3029
 7955TIP3    H248061   0.015   7.526   2.050 -1.7071 -1.3689  0.9954
 7956TIP3   OH248062   4.695   3.959   1.947  0.0625 -0.0677  0.1314
 7956TIP3    H148063   4.621   4.016   1.970 -0.4124 -0.8952  0.7314
 7956TIP3    H248064   4.663   3.906   1.874  0.8919  1.1868 -1.1772
 7957TIP3   OH248065   0.845   6.331   1.700 -0.9940  0.2317  0.4761
 7957TIP3    H148066   0.918   6.272   1.684  0.0194  1.0957  1.6519
 7957TIP3    H248067   0.836   6.382   1.620  1.5714  2.0087  1.1989
 7958TIP3   OH248068   6.496   3.157   1.497 -0.0446 -0.4399 -0.4192
 7958TIP3    H148069   6.485   3.199   1.412 -1.9032 -3.6377 -1.9515
 7958TIP3    H248070   6.573   3.101   1.486 -0.7940 -1.5119 -0.3302
 7959TIP3   OH248071   2.784   7.208   0.916  0.1651  0.1005 -0.4203
 7959TIP3    H148072   2.723   7.137   0.936  0.0016  0.1526 -0.7293
 7959TIP3    H248073   2.729   7.283   0.894  0.3388  0.1945 -0.5426
 7960TIP3   OH248074   2.190   5.569   1.403 -0.0789  0.0438  0.4354
 7960TIP3    H148075   2.155   5.506   1.340  1.3417  0.7704 -1.1529
 7960TIP3    H248076   2.137   5.556   1.482 -2.7171 -0.1110 -1.2251
 7961TIP3   OH248077   2.858   3.133   2.224  0.3417 -0.0540 -0.2459
 7961TIP3    H148078   2.948   3.102   2.237  0.7207  0.4688 -1.4460
 7961TIP3    H248079   2.848   3.136   2.128 -0.5378  1.0768 -0.1330
 7962TIP3   OH248080   6.693   1.750   0.684  0.8621 -0.3598  0.2420
 7962TIP3    H148081   6.786   1.735   0.671  0.6320 -1.8647  0.1976
 7962TIP3    H248082   6.680   1.742   0.779  0.6884 -0.7483  0.1883
 7963TIP3   OH248083   1.954   4.424   0.633 -0.3795 -0.3064 -0.3446
 7963TIP3    H148084   1.921   4.392   0.549  1.3854  1.9112 -1.9876
 7963TIP3    H248085   2.048   4.410   0.629  0.1179  2.4648 -0.0427
 7964TIP3   OH248086   4.389   2.700   1.486 -0.1881 -0.2136 -0.2757
 7964TIP3    H148087   4.316   2.734   1.538  0.8323 -0.2175  1.2502
 7964TIP3    H248088   4.400   2.763   1.416 -1.6125 -0.1869 -0.5062
 7965TIP3   OH248089   3.773   5.546   1.269 -0.2075 -0.2845  0.3150
 7965TIP3    H148090   3.734   5.480   1.326 -1.2846 -0.1857 -0.2767
 7965TIP3    H248091   3.867   5.541   1.287 -0.3087 -1.6815  0.5835
 7966TIP3   OH248092   1.810   4.083   1.214 -0.0839  0.0013  0.1967
 7966TIP3    H148093   1.753   4.081   1.291  0.9216  1.3946  1.0395
 7966TIP3    H248094   1.840   4.174   1.209  0.9643 -0.3806 -1.0288
 7967TIP3   OH248095   4.141   6.576   0.803 -0.2656  0.1661 -0.0743
 7967TIP3    H148096   4.212   6.520   0.833 -0.4907 -0.4286 -0.6472
 7967TIP3    H248097   4.062   6.538   0.842 -0.2103  1.3342  1.3034
 7968TIP3   OH248098   2.648   6.951   2.598  0.5323 -0.2478  0.1013
 7968TIP3    H148099   2.569   6.898   2.603  0.4147  0.0261  1.4709
 7968TIP3    H248100   2.653   6.978   2.506 -0.0601 -1.6002 -0.3525
 7969TIP3   OH248101   0.966   2.586   0.389  0.3846 -0.3960  0.6812
 7969TIP3    H148102   1.024   2.511   0.405  0.8012 -0.6667 -1.7349
 7969TIP3    H248103   0.880   2.546   0.376  0.7012 -0.5590 -1.1260
 7970TIP3   OH248104   6.930   0.874   2.141 -0.8460 -0.3102 -0.2385
 7970TIP3    H148105   7.017   0.835   2.140 -0.8964 -0.5357  1.5264
 7970TIP3    H248106   6.874   0.808   2.102 -0.5657 -1.1017  0.6648
 7971TIP3   OH248107   4.462   7.417   3.084 -0.3040 -0.1364  0.1634
 7971TIP3    H148108   4.546   7.462   3.089  0.3058 -1.1715 -0.3513
 7971TIP3    H248109   4.410   7.455   3.156  1.1342 -0.5257  1.4702
 7972TIP3   OH248110   3.578   4.987   0.971  0.9451 -0.2089 -0.2319
 7972TIP3    H148111   3.619   5.069   0.997  1.0737 -0.1371 -0.6624
 7972TIP3    H248112   3.621   4.963   0.889 -1.4256  1.0215 -1.9111
 7973TIP3   OH248113   6.773   1.974   1.030  0.1301  0.5031 -0.2794
 7973TIP3    H148114   6.745   1.886   1.053  0.3169  1.0259  2.1860
 7973TIP3    H248115   6.743   2.029   1.103  2.8366  1.9294 -0.1213
 7974TIP3   OH248116   0.243   4.571   3.250 -0.5316  0.0775 -0.2901
 7974TIP3    H148117   0.175   4.585   3.317 -0.1923  0.1819  0.0405
 7974TIP3    H248118   0.227   4.640   3.185  0.3729  1.2993  0.7140
 7975TIP3   OH248119   3.990   6.900   1.632  0.4821  0.4227 -0.2715
 7975TIP3    H148120   3.978   6.809   1.605 -0.3357  1.0780 -2.4025
 7975TIP3    H248121   3.910   6.921   1.680  0.7787 -0.0265  0.4393
 7976TIP3   OH248122   2.415   3.503   3.065  0.8172 -0.4932 -0.4639
 7976TIP3    H148123   2.383   3.418   3.096  1.3998 -0.7875 -0.6434
 7976TIP3    H248124   2.394   3.504   2.972  2.0064 -1.0363 -0.7664
 7977TIP3   OH248125   1.751   2.215   0.980  0.3538 -0.2497 -0.1384
 7977TIP3    H148126   1.831   2.168   1.004 -0.3501 -1.4552 -0.0883
 7977TIP3    H248127   1.683   2.176   1.034 -0.5315 -0.2154 -1.1950
 7978TIP3   OH248128   1.310   7.673   2.751 -0.0677  0.5771 -0.2582
 7978TIP3    H148129   1.401   7.643   2.738 -0.2323  0.3793 -1.0309
 7978TIP3    H248130   1.257   7.607   2.707 -0.6130  0.5293  0.4570
 7979TIP3   OH248131   4.426   0.331   1.477 -0.3479  0.1894  0.4504
 7979TIP3    H148132   4.484   0.406   1.464 -0.6251  0.3236 -0.0432
 7979TIP3    H248133   4.339   0.364   1.455 -0.3580 -0.4981 -0.5776
 7980TIP3   OH248134   2.837   4.160   2.239  0.6508  0.0337 -0.6625
 7980TIP3    H148135   2.810   4.240   2.195  2.0564  0.3773 -0.9572
 7980TIP3    H248136   2.811   4.172   2.330 -0.4499  0.1915 -0.9865
 7981TIP3   OH248137   3.699   7.300   1.855  0.1456  0.2572 -0.0873
 7981TIP3    H148138   3.624   7.272   1.908 -0.1695 -0.1389 -0.7231
 7981TIP3    H248139   3.689   7.394   1.845 -0.8641  0.0614 -1.0550
 7982TIP3   OH248140   7.465   3.356   3.732 -0.8415  0.0661 -0.1725
 7982TIP3    H148141   7.554   3.363   3.768 -1.1925  0.7972  0.5827
 7982TIP3    H248142   7.461   3.268   3.696 -0.1484 -0.3560  0.7237
 7983TIP3   OH248143   5.616   7.423   2.482 -0.7093 -0.2388 -0.4166
 7983TIP3    H148144   5.575   7.389   2.562 -0.5378  0.8159  0.1368
 7983TIP3    H248145   5.700   7.378   2.477  0.0041  0.8770  0.9173
 7984TIP3   OH248146   3.576   4.047   3.168  0.1871 -0.4918 -0.0435
 7984TIP3    H148147   3.642   3.988   3.204  0.1693 -0.6514 -0.2720
 7984TIP3    H248148   3.621   4.131   3.157  0.8309 -1.0208 -1.7582
 7985TIP3   OH248149   4.718   5.987   1.189 -0.1545 -0.0636  0.1657
 7985TIP3    H148150   4.632   5.977   1.231 -1.0396  1.5639 -1.1264
 7985TIP3    H248151   4.717   5.923   1.118 -0.6834  0.5381 -0.3851
 7986TIP3   OH248152   4.906   1.686   2.469 -0.2880  0.0467  0.1195
 7986TIP3    H148153   4.850   1.706   2.543  0.0804  0.4796  0.2837
 7986TIP3    H248154   4.973   1.627   2.504  0.5228  1.0969  0.4017
 7987TIP3   OH248155   5.745   2.668   0.903 -0.3120 -0.8875  0.1016
 7987TIP3    H148156   5.811   2.601   0.883  0.7138 -0.0197  0.4991
 7987TIP3    H248157   5.666   2.638   0.857  0.3213 -1.9974 -0.3059
 7988TIP3   OH248158   0.328   5.168   1.670 -0.4153  0.6622  0.1427
 7988TIP3    H148159   0.330   5.107   1.596 -1.5836  2.5639 -1.5670
 7988TIP3    H248160   0.239   5.161   1.705 -1.0382  2.2526 -0.9562
 7989TIP3   OH248161   1.969   5.825   0.523  0.1688 -0.6740  0.1097
 7989TIP3    H148162   2.048   5.878   0.511  0.5092 -1.0942  0.4606
 7989TIP3    H248163   2.000   5.734   0.515 -0.3727 -0.8288 -0.2878
 7990TIP3   OH248164   5.294   1.929   0.741  0.2527  0.3283 -0.0582
 7990TIP3    H148165   5.237   1.854   0.754 -0.1352  0.2829 -1.7971
 7990TIP3    H248166   5.282   1.983   0.819 -0.5166 -0.7281  0.5714
 7991TIP3   OH248167   7.292   3.456   1.368  0.0657  0.1414 -0.0473
 7991TIP3    H148168   7.344   3.460   1.448  0.9211  1.4259 -0.6347
 7991TIP3    H248169   7.357   3.455   1.298 -0.6800 -0.3269 -0.7544
 7992TIP3   OH248170   0.721   5.658   1.713  0.0485  0.1746  0.6210
 7992TIP3    H148171   0.642   5.706   1.738  0.0432  0.2766  0.4139
 7992TIP3    H248172   0.736   5.684   1.622  1.7933  2.1759  1.4061
 7993TIP3   OH248173   6.255   3.972   3.224  0.2583 -0.3848 -0.1200
 7993TIP3    H148174   6.194   4.004   3.157 -0.8619  0.3888  1.2207
 7993TIP3    H248175   6.206   3.979   3.306  0.6611 -3.6902  0.5314
 7994TIP3   OH248176   4.066   2.065   0.449  0.4311  0.2689 -0.2025
 7994TIP3    H148177   4.091   1.977   0.476 -0.4409  0.4142  1.1739
 7994TIP3    H248178   4.064   2.061   0.353 -0.1121 -1.3522 -0.1563
 7995TIP3   OH248179   6.886   3.349   2.421  0.1126  0.1106  0.3207
 7995TIP3    H148180   6.823   3.421   2.424 -0.7379 -0.5707 -0.4397
 7995TIP3    H248181   6.846   3.285   2.362  1.1575 -0.6941  0.4563
 7996TIP3   OH248182   5.824   4.794   1.235 -0.2473 -0.4861  0.4159
 7996TIP3    H148183   5.805   4.702   1.254 -0.7589 -0.9548 -2.0133
 7996TIP3    H248184   5.768   4.843   1.295 -1.4469 -1.7947  0.4230
 7997TIP3   OH248185   3.476   6.584   2.040  0.1739 -0.3887 -0.0735
 7997TIP3    H148186   3.517   6.670   2.029  0.9490 -0.8614 -1.0821
 7997TIP3    H248187   3.476   6.547   1.952  0.0552 -1.5096  0.3893
 7998TIP3   OH248188   6.076   6.210   2.718 -0.2893 -0.3280 -0.0974
 7998TIP3    H148189   6.161   6.180   2.752  1.0569  2.3941 -0.7213
 7998TIP3    H248190   6.057   6.289   2.770 -1.1047  0.5789 -1.7014
 7999TIP3   OH248191   6.058   4.233   2.670  0.2000 -0.8439 -0.2377
 7999TIP3    H148192   6.041   4.314   2.622  0.7609 -0.9162 -0.5684
 7999TIP3    H248193   6.001   4.239   2.747  0.2888 -0.0954 -0.2161
 8000TIP3   OH248194   2.727   2.819   2.100 -0.6377 -0.0512  0.4639
 8000TIP3    H148195   2.688   2.844   2.184 -0.2870  0.4268  0.4832
 8000TIP3    H248196   2.820   2.833   2.111 -0.1831 -2.8065  1.0055
 8001TIP3   OH248197   5.794   1.646   2.392  0.0954  0.0793 -0.4057
 8001TIP3    H148198   5.875   1.613   2.431  0.5081 -0.9048 -1.9812
 8001TIP3    H248199   5.737   1.664   2.466  0.5784 -2.3374  0.6608
 8002TIP3   OH248200   0.329   0.669   2.625 -0.2257 -0.0635  0.2118
 8002TIP3    H148201   0.411   0.703   2.660 -0.3111 -1.2115  1.5785
 8002TIP3    H248202   0.356   0.612   2.553  0.0605  0.8254 -0.4018
 8003TIP3   OH248203   1.370   0.872   1.104  0.7394  0.0428  0.2989
 8003TIP3    H148204   1.444   0.905   1.053  0.8024  0.7949  0.8677
 8003TIP3    H248205   1.391   0.780   1.119  1.4371  0.1820  0.2344
 8004TIP3   OH248206   4.439   1.508   0.589 -0.5427  0.1242 -0.4239
 8004TIP3    H148207   4.374   1.488   0.656  0.1647 -1.1401 -0.0664
 8004TIP3    H248208   4.481   1.589   0.619 -0.5414 -0.1858  0.4314
 8005TIP3   OH248209   0.141   5.234   0.936  0.1921 -0.1826  0.6416
 8005TIP3    H148210   0.234   5.231   0.915 -0.1596  0.3707 -1.1220
 8005TIP3    H248211   0.120   5.327   0.939 -1.1451 -0.1649 -3.3400
 8006TIP3   OH248212   6.331   2.346   1.188  0.2934 -0.0718 -0.4846
 8006TIP3    H148213   6.344   2.405   1.114  0.4387 -1.3000 -1.4737
 8006TIP3    H248214   6.241   2.363   1.217  0.5468  1.0771 -0.3180
 8007TIP3   OH248215   0.482   0.155   3.046  0.1113 -0.3146 -0.0485
 8007TIP3    H148216   0.535   0.078   3.027  0.8725 -0.3550  2.0423
 8007TIP3    H248217   0.525   0.226   2.997  0.3951 -0.8982 -0.6563
 8008TIP3   OH248218   4.406   3.283   0.903  0.1287  0.0321 -0.2101
 8008TIP3    H148219   4.364   3.254   0.984  2.1328  0.2176  0.9733
 8008TIP3    H248220   4.384   3.215   0.840 -1.5213 -0.0995  0.4481
 8009TIP3   OH248221   1.762   5.138   1.670 -0.1335 -0.0881 -0.5039
 8009TIP3    H148222   1.737   5.083   1.595  1.9206  0.7040 -1.8734
 8009TIP3    H248223   1.845   5.102   1.700 -0.4942  0.1565  0.8652
 8010TIP3   OH248224   5.242   5.320   0.598  0.1824 -0.4951 -0.3855
 8010TIP3    H148225   5.201   5.249   0.548  1.4599 -1.0848 -0.6278
 8010TIP3    H248226   5.191   5.398   0.574  0.2945 -0.8889 -2.0816
 8011TIP3   OH248227   0.041   5.032   1.125 -0.2693 -0.3116 -0.3626
 8011TIP3    H148228   0.109   5.079   1.171 -1.6769  0.5855  0.8923
 8011TIP3    H248229   0.022   5.086   1.048 -0.8847  0.4711  0.3190
 8012TIP3   OH248230   3.534   2.575   0.555  0.1827  0.1405 -0.1154
 8012TIP3    H148231   3.478   2.648   0.580  0.0980  0.1078 -0.2089
 8012TIP3    H248232   3.523   2.568   0.460 -0.8188 -0.8278  0.0516
 8013TIP3   OH248233   0.060   3.006   2.396  0.4526 -0.3127  0.0305
 8013TIP3    H148234   0.091   3.087   2.355  1.8069 -1.0926 -0.5521
 8013TIP3    H248235  -0.003   2.970   2.334  0.8700 -0.3871 -0.3589
 8014TIP3   OH248236   0.677   0.046   1.758  0.2239 -0.7484 -0.0045
 8014TIP3    H148237   0.674   0.044   1.662  0.7769  0.2514 -0.0588
 8014TIP3    H248238   0.645  -0.040   1.785 -0.0988 -0.9820 -1.0812
 8015TIP3   OH248239   7.156   2.095   2.577 -0.3780  0.3915 -0.0938
 8015TIP3    H148240   7.130   2.108   2.486 -0.1996 -0.0197 -0.2015
 8015TIP3    H248241   7.075   2.107   2.627 -0.6872 -0.4104 -0.3932
 8016TIP3   OH248242   5.404   1.119   1.888  0.5841 -0.2150 -0.0393
 8016TIP3    H148243   5.372   1.170   1.963  0.6879 -1.3340  0.7902
 8016TIP3    H248244   5.333   1.059   1.867  1.4331 -1.5614  0.7362
 8017TIP3   OH248245   0.256   5.627   1.146 -0.2356  0.1619  0.0200
 8017TIP3    H148246   0.303   5.614   1.064  0.0637 -0.6444  0.3191
 8017TIP3    H248247   0.165   5.608   1.124 -0.1366 -0.1910 -0.0924
 8018TIP3   OH248248   0.034   7.606   2.778  0.5410  0.3129 -0.5956
 8018TIP3    H148249  -0.053   7.645   2.786 -1.2433 -3.0290 -1.9657
 8018TIP3    H248250   0.052   7.569   2.864  1.3250  2.1689  0.0964
 8019TIP3   OH248251   5.716   3.734   3.561  0.1068 -0.3342  0.3749
 8019TIP3    H148252   5.635   3.684   3.568  0.8416 -1.4177  1.3902
 8019TIP3    H248253   5.778   3.675   3.518  0.2310  0.6844 -0.9331
 8020TIP3   OH248254   5.810   7.037   3.087  0.3878  0.3343 -0.1020
 8020TIP3    H148255   5.722   7.000   3.095  0.4019  0.5356  1.2717
 8020TIP3    H248256   5.869   6.961   3.089  0.3676  0.3083  1.8415
 8021TIP3   OH248257   7.575   7.266   2.141  0.3167  0.1219  0.1432
 8021TIP3    H148258   7.519   7.313   2.080 -0.1961  1.9025  1.8654
 8021TIP3    H248259   7.663   7.303   2.127 -0.0147  1.4060  1.2233
 8022TIP3   OH248260   0.911   7.437   1.846  0.0828 -0.1632  0.2028
 8022TIP3    H148261   0.931   7.471   1.934  2.4656 -1.0491  0.0746
 8022TIP3    H248262   0.824   7.472   1.827  0.3115  1.7141  2.0949
 8023TIP3   OH248263   1.620   2.540   1.645  0.4806 -0.6083 -0.0352
 8023TIP3    H148264   1.599   2.626   1.681  1.8102 -0.3870  0.2501
 8023TIP3    H248265   1.547   2.484   1.673 -0.1129  0.2950  0.2484
 8024TIP3   OH248266   2.651   4.752   2.503  0.2423 -0.4167  0.2345
 8024TIP3    H148267   2.645   4.812   2.577 -1.2833 -1.6674  1.1968
 8024TIP3    H248268   2.743   4.753   2.478  0.4634  1.3891  0.9779
 8025TIP3   OH248269   5.373   6.875   1.444 -0.4332  0.3665 -0.2866
 8025TIP3    H148270   5.380   6.964   1.409  0.1334  0.1664 -0.7063
 8025TIP3    H248271   5.285   6.846   1.420  0.1277  0.0158 -2.1070
 8026TIP3   OH248272   7.124   6.588   0.646  0.6993  0.9666  0.7713
 8026TIP3    H148273   7.040   6.543   0.651  0.8584  0.4547 -0.7995
 8026TIP3    H248274   7.102   6.681   0.658 -0.1730  0.8988 -0.2397
 8027TIP3   OH248275   4.674   6.717   2.474  0.6666 -0.4889  0.0571
 8027TIP3    H148276   4.674   6.754   2.385 -0.4946  0.5885  0.4709
 8027TIP3    H248277   4.690   6.624   2.461  0.2382 -0.4036 -1.3172
 8028TIP3   OH248278   1.220   1.064   1.911  0.4080 -0.5485  0.6197
 8028TIP3    H148279   1.276   1.017   1.973  2.5090  0.9020 -0.0476
 8028TIP3    H248280   1.281   1.122   1.864 -1.6444  0.9150 -0.3667
 8029TIP3   OH248281   0.467   3.598   1.898  0.0994  0.1925  0.2617
 8029TIP3    H148282   0.493   3.686   1.926 -1.6724  0.5817  0.7702
 8029TIP3    H248283   0.500   3.591   1.808  1.2551  0.9270  0.6058
 8030TIP3   OH248284   0.381   2.445   3.152 -0.0723 -0.3563 -0.5655
 8030TIP3    H148285   0.396   2.539   3.163 -1.7754 -0.1962  0.7786
 8030TIP3    H248286   0.427   2.423   3.071  0.3062  1.6428 -0.9517
 8031TIP3   OH248287   3.996   0.298   1.739 -0.1131 -0.5765 -0.0296
 8031TIP3    H148288   4.013   0.204   1.738 -2.2090 -1.0014 -1.6905
 8031TIP3    H248289   3.926   0.311   1.675 -2.9842  1.4756  3.1288
 8032TIP3   OH248290   1.110   0.186   0.891  0.0259  0.3503  0.2269
 8032TIP3    H148291   1.018   0.210   0.895 -0.4004 -1.2309  0.6523
 8032TIP3    H248292   1.134   0.194   0.799 -0.6608  0.3403  0.0470
 8033TIP3   OH248293   0.288   5.757   2.421  0.3230 -0.6895  0.1380
 8033TIP3    H148294   0.302   5.772   2.328  0.8403 -1.6920  0.0368
 8033TIP3    H248295   0.376   5.741   2.456  0.1149 -0.4923  0.7632
 8034TIP3   OH248296   6.191   7.310   1.436  0.0644 -0.1024  0.3126
 8034TIP3    H148297   6.206   7.403   1.418 -0.9643 -0.0646 -0.4333
 8034TIP3    H248298   6.199   7.267   1.351 -1.2696 -0.4326  0.3295
 8035TIP3   OH248299   5.292   0.441   1.100  0.3097  0.1449 -0.5031
 8035TIP3    H148300   5.210   0.488   1.117  0.3225  0.0777 -0.2591
 8035TIP3    H248301   5.360   0.499   1.134  0.3526  0.1281 -0.5611
 8036TIP3   OH248302   3.854   5.493   0.790 -0.2191  0.0504 -0.0641
 8036TIP3    H148303   3.834   5.425   0.725 -0.7541  1.0265 -0.9568
 8036TIP3    H248304   3.873   5.444   0.871 -1.0202 -1.1327 -0.5606
 8037TIP3   OH248305   3.075   2.700   3.208 -0.2727  0.2047  0.0174
 8037TIP3    H148306   3.077   2.731   3.118  0.0747  0.7446  0.2042
 8037TIP3    H248307   3.126   2.618   3.206  0.9886  0.9575 -0.0190
 8038TIP3   OH248308   1.849   1.611   0.563 -0.0333 -0.3210 -0.0032
 8038TIP3    H148309   1.823   1.701   0.584 -0.2210 -0.7169  1.5682
 8038TIP3    H248310   1.944   1.612   0.564 -0.0295 -0.0629 -0.3830
 8039TIP3   OH248311   2.451   7.528   1.580 -0.4252 -0.1139 -0.2155
 8039TIP3    H148312   2.459   7.587   1.654 -0.2522 -0.0669 -0.2713
 8039TIP3    H248313   2.483   7.444   1.612  1.3016  0.3019 -0.7208
 8040TIP3   OH248314   6.985   6.327   2.968 -0.0362  0.4055 -0.9067
 8040TIP3    H148315   6.950   6.335   3.057  0.1375  1.4827 -0.9153
 8040TIP3    H248316   7.067   6.279   2.979 -0.7251 -0.7564 -0.6899
 8041TIP3   OH248317   1.144   6.690   2.332 -0.5271 -0.7107 -0.0418
 8041TIP3    H148318   1.225   6.639   2.330 -0.7686 -1.1174  0.3333
 8041TIP3    H248319   1.113   6.691   2.241  1.4044  1.9206 -0.7923
 8042TIP3   OH248320   6.779   3.572   2.931 -0.1236 -0.6707  0.2329
 8042TIP3    H148321   6.748   3.662   2.925  2.1965  0.1111 -0.9267
 8042TIP3    H248322   6.874   3.579   2.936  0.0409 -2.9480  3.4218
 8043TIP3   OH248323   4.808   5.344   1.593  0.5071 -0.2902  0.4314
 8043TIP3    H148324   4.847   5.429   1.572 -0.7656 -0.2130 -1.9766
 8043TIP3    H248325   4.848   5.283   1.532 -0.7783 -0.8081  0.0598
 8044TIP3   OH248326   0.361   5.910   2.022  0.4072  0.3793 -0.5336
 8044TIP3    H148327   0.289   5.949   1.972 -2.4066 -1.9192  1.4225
 8044TIP3    H248328   0.395   5.983   2.075 -2.2805  1.0756  0.3856
 8045TIP3   OH248329   7.125   0.582   2.764  0.2549  0.2776  0.1086
 8045TIP3    H148330   7.197   0.645   2.767  0.4988  0.1735 -2.0559
 8045TIP3    H248331   7.097   0.581   2.673 -1.0761 -1.2903  0.4715
 8046TIP3   OH248332   6.131   3.873   0.938 -0.1801 -0.4069 -0.1016
 8046TIP3    H148333   6.049   3.849   0.894  0.1483 -1.1067 -0.3551
 8046TIP3    H248334   6.140   3.967   0.924 -0.7786 -0.3826 -0.3495
 8047TIP3   OH248335   4.965   0.274   0.735  0.1936 -0.0998 -0.0117
 8047TIP3    H148336   5.048   0.321   0.727  0.6632 -0.8232  0.5064
 8047TIP3    H248337   4.965   0.239   0.824 -0.9390  0.3768  0.1945
 8048TIP3   OH248338   4.762   7.366   1.713 -0.5862 -0.0067 -0.5704
 8048TIP3    H148339   4.811   7.370   1.631  0.2976  0.4252 -0.0350
 8048TIP3    H248340   4.677   7.329   1.689  0.7062 -2.8148 -1.1733
 8049TIP3   OH248341   0.558   4.032   2.008 -0.7208 -1.0036 -0.2718
 8049TIP3    H148342   0.502   4.095   1.962  0.6096  0.7344  0.3779
 8049TIP3    H248343   0.591   3.974   1.940 -0.3919  0.2573 -1.2067
 8050TIP3   OH248344   1.958   2.888   2.496  0.3176  0.1889 -0.3368
 8050TIP3    H148345   1.938   2.980   2.511 -0.3627  0.0761 -0.5043
 8050TIP3    H248346   1.888   2.857   2.438  0.2443 -0.5535  0.1266
 8051TIP3   OH248347   1.262   4.608   0.816 -0.4092 -0.0719  0.8767
 8051TIP3    H148348   1.246   4.537   0.754  0.9251  0.2295  0.1316
 8051TIP3    H248349   1.350   4.591   0.850 -0.9061  0.0761  2.2973
 8052TIP3   OH248350   6.619   6.677   2.539 -0.6773  0.0400 -0.3135
 8052TIP3    H148351   6.685   6.610   2.555 -0.8779  0.2169  1.4273
 8052TIP3    H248352   6.659   6.736   2.475  1.2365  0.6579  1.3668
 8053TIP3   OH248353   0.518   0.446   1.368 -0.1536  0.3542  0.4261
 8053TIP3    H148354   0.486   0.523   1.321 -0.9502  0.7183  1.5403
 8053TIP3    H248355   0.606   0.470   1.396  0.4596  0.0195 -1.0966
 8054TIP3   OH248356   6.532   4.424   2.570  0.3857 -0.4553 -0.0194
 8054TIP3    H148357   6.614   4.401   2.616  0.6807  0.3136 -0.1390
 8054TIP3    H248358   6.484   4.477   2.634 -0.7887 -2.2593  0.6669
 8055TIP3   OH248359   0.182   2.780   0.899  0.0303 -0.0395  0.4071
 8055TIP3    H148360   0.105   2.769   0.844  0.4893 -1.0951 -0.0518
 8055TIP3    H248361   0.166   2.861   0.947 -1.8867 -0.7926  1.1575
 8056TIP3   OH248362   7.597   0.888   1.335 -0.4897 -0.3617 -0.4125
 8056TIP3    H148363   7.639   0.973   1.320  0.1098 -0.4070  0.8208
 8056TIP3    H248364   7.587   0.850   1.248  1.3203 -0.0051 -0.8143
 8057TIP3   OH248365   7.275   0.090   1.267  0.4822  0.3493  0.0404
 8057TIP3    H148366   7.309   0.030   1.201 -1.2997  0.7064 -1.2614
 8057TIP3    H248367   7.190   0.054   1.292 -0.4298  2.0498 -0.4318
 8058TIP3   OH248368   1.637   2.628   0.770 -0.3358  0.2121  0.4642
 8058TIP3    H148369   1.690   2.706   0.754  0.1371 -0.3287 -0.7167
 8058TIP3    H248370   1.697   2.567   0.815  0.3110 -0.6600 -1.4834
 8059TIP3   OH248371   6.522   3.526   2.635 -0.2859 -0.0343  0.3024
 8059TIP3    H148372   6.494   3.580   2.710 -0.0603  0.3347  0.1248
 8059TIP3    H248373   6.470   3.446   2.643  1.6722 -1.2299  2.4568
 8060TIP3   OH248374   6.803   3.612   2.081  0.4470  0.1081  0.3766
 8060TIP3    H148375   6.754   3.532   2.063  0.4567  0.4156 -1.1530
 8060TIP3    H248376   6.894   3.588   2.063  0.3489  0.6862 -1.0263
 8061TIP3   OH248377   2.404   2.633   0.803 -0.1048  0.0337 -0.5073
 8061TIP3    H148378   2.407   2.671   0.891 -0.3980  0.7097 -0.7806
 8061TIP3    H248379   2.490   2.594   0.790  0.0424  0.1964 -0.0372
 8062TIP3   OH248380   4.943   3.535   1.485  0.6057 -0.1036 -0.6293
 8062TIP3    H148381   4.865   3.544   1.430  0.9331 -0.0142 -1.0907
 8062TIP3    H248382   5.015   3.562   1.428  0.7541  1.9317  0.4550
 8063TIP3   OH248383   0.834   2.089   1.571 -0.3782 -0.1971  0.3546
 8063TIP3    H148384   0.791   2.106   1.655 -1.3917 -0.2219 -0.1383
 8063TIP3    H248385   0.781   2.137   1.507 -0.6049 -1.4919 -0.4658
 8064TIP3   OH248386   4.723   5.136   2.833  0.1311  0.0304  0.7197
 8064TIP3    H148387   4.781   5.210   2.849  2.2751 -1.0495 -1.4353
 8064TIP3    H248388   4.777   5.059   2.850 -0.8426 -1.0326 -0.7462
 8065TIP3   OH248389   4.332   4.281   0.621 -0.1491  0.4556 -0.0167
 8065TIP3    H148390   4.263   4.241   0.675 -0.4014  0.5745 -0.2485
 8065TIP3    H248391   4.352   4.214   0.556 -1.1374  0.9893 -0.9028
 8066TIP3   OH248392   1.059   1.772   0.920  0.5167  0.0091  0.0283
 8066TIP3    H148393   1.122   1.837   0.890  0.2009 -0.4050 -1.6884
 8066TIP3    H248394   1.056   1.782   1.015  0.7730  2.2030 -0.1490
 8067TIP3   OH248395   2.437   7.085   2.991 -0.1745 -0.0682 -0.2492
 8067TIP3    H148396   2.348   7.050   2.994  0.5904 -2.1661 -0.2388
 8067TIP3    H248397   2.428   7.176   3.021 -2.3488 -0.0797 -0.6946
 8068TIP3   OH248398   2.236   1.309   0.936 -0.0029  1.3208 -0.4999
 8068TIP3    H148399   2.155   1.294   0.985  0.3033 -0.3632 -0.4686
 8068TIP3    H248400   2.294   1.352   0.999  0.3581 -0.7277  0.6716
 8069TIP3   OH248401   6.928   7.444   1.219 -0.0960  0.3390 -0.1868
 8069TIP3    H148402   6.916   7.520   1.161  1.1035  1.1550  0.5965
 8069TIP3    H248403   7.003   7.467   1.274 -0.0611 -1.1930  0.4544
 8070TIP3   OH248404   4.431   0.725   0.695 -0.0111 -0.4916 -0.0908
 8070TIP3    H148405   4.388   0.675   0.765 -1.3136 -1.5208 -1.5704
 8070TIP3    H248406   4.360   0.759   0.642  0.9478  0.8428 -0.5668
 8071TIP3   OH248407   1.641   4.140   1.523  0.2237  0.0024  0.0631
 8071TIP3    H148408   1.609   4.229   1.513  1.0972  0.3143 -0.0014
 8071TIP3    H248409   1.736   4.148   1.526  0.3782 -1.0234 -1.0824
 8072TIP3   OH248410   7.216   5.880   1.542  0.0427  0.0106 -0.1043
 8072TIP3    H148411   7.212   5.821   1.616 -1.7591  1.0365  0.6797
 8072TIP3    H248412   7.287   5.940   1.563 -2.0674  1.9260  2.1879
 8073TIP3   OH248413   5.449   7.264   3.238 -0.0998 -0.3877 -0.0813
 8073TIP3    H148414   5.525   7.214   3.207 -0.1433  0.3572 -1.4778
 8073TIP3    H248415   5.461   7.269   3.333  0.5461 -1.9729 -0.0383
 8074TIP3   OH248416   5.637   5.102   1.766  0.5065 -0.3703 -0.1048
 8074TIP3    H148417   5.703   5.090   1.835 -0.4292 -1.0356  0.7177
 8074TIP3    H248418   5.594   5.016   1.759 -0.5113  0.1378 -0.3597
 8075TIP3   OH248419   5.067   6.168   1.769  0.2983 -0.0440 -0.2888
 8075TIP3    H148420   5.087   6.252   1.811  1.0162 -0.3293 -0.0391
 8075TIP3    H248421   5.138   6.110   1.798 -0.9071 -1.1067  0.6354
 8076TIP3   OH248422   3.973   5.904   3.189 -0.1391  0.2029  0.2872
 8076TIP3    H148423   3.972   5.925   3.282  0.8520  1.0912  0.1210
 8076TIP3    H248424   3.954   5.987   3.145 -1.1772 -0.3285 -0.2988
 8077TIP3   OH248425   3.137   4.893   2.153  0.2784 -0.2427 -0.0497
 8077TIP3    H148426   3.108   4.976   2.117 -0.3024 -0.0288  0.8875
 8077TIP3    H248427   3.148   4.909   2.247 -0.6073 -1.4138  0.2842
 8078TIP3   OH248428   0.235   1.772   2.293 -0.0353  0.1550  0.2548
 8078TIP3    H148429   0.151   1.727   2.290 -0.3232  0.6756  0.4345
 8078TIP3    H248430   0.243   1.814   2.207 -1.1317  2.1792  1.0573
 8079TIP3   OH248431   5.440   5.681   2.103  0.5788 -0.9257 -0.5931
 8079TIP3    H148432   5.481   5.756   2.146  1.2862  0.1450 -2.9860
 8079TIP3    H248433   5.351   5.680   2.137  0.6875  0.7180 -0.1638
 8080TIP3   OH248434   4.178   5.554   3.072  0.2727  0.8760 -0.3973
 8080TIP3    H148435   4.179   5.541   3.167  0.0761  0.3291 -0.4669
 8080TIP3    H248436   4.239   5.489   3.038  1.0389  1.6747 -0.5825
 8081TIP3   OH248437   6.408   6.539   1.950 -0.7436 -0.5683 -0.1900
 8081TIP3    H148438   6.415   6.573   2.039  2.8871 -0.6596 -0.3089
 8081TIP3    H248439   6.488   6.489   1.937 -0.9514 -0.2245 -3.6611
 8082TIP3   OH248440   7.444   3.707   1.268 -0.0383 -0.2840 -0.0875
 8082TIP3    H148441   7.485   3.779   1.218  0.1407 -1.6449 -2.0223
 8082TIP3    H248442   7.487   3.628   1.236  0.1303 -1.2719  2.3616
 8083TIP3   OH248443   3.099   3.129   1.801  0.3102  0.0476  0.1728
 8083TIP3    H148444   3.189   3.161   1.797 -0.1654  2.0440  2.8789
 8083TIP3    H248445   3.057   3.168   1.724  1.2079  0.9724  0.1301
 8084TIP3   OH248446   5.526   2.275   0.672 -0.3613  0.3181  0.0212
 8084TIP3    H148447   5.518   2.329   0.751 -1.7457 -0.0544  0.1634
 8084TIP3    H248448   5.471   2.319   0.607 -2.3071 -1.3496  0.4209
 8085TIP3   OH248449   5.570   3.040   3.255 -0.1076 -0.3984 -0.0780
 8085TIP3    H148450   5.526   3.075   3.178  1.7334  1.1937 -0.4944
 8085TIP3    H248451   5.605   2.955   3.226 -0.7970 -0.5501 -0.4839
 8086TIP3   OH248452   0.358   5.226   1.984  0.0594 -0.4220  0.7877
 8086TIP3    H148453   0.357   5.209   1.890 -0.9802 -0.5481  0.8130
 8086TIP3    H248454   0.423   5.295   1.995 -1.0376  0.8487 -0.2644
 8087TIP3   OH248455   4.853   0.353   2.603 -0.4572 -0.2209  0.0346
 8087TIP3    H148456   4.839   0.350   2.697  0.6207  2.5227  0.3938
 8087TIP3    H248457   4.781   0.406   2.569  0.6654  1.2590 -0.1911
 8088TIP3   OH248458   0.019   6.826   0.878  0.1315 -0.4107  0.0478
 8088TIP3    H148459   0.028   6.737   0.843 -1.3126  0.3493 -2.5379
 8088TIP3    H248460   0.109   6.859   0.883  0.5421 -1.3327 -0.8938
 8089TIP3   OH248461   5.669   3.239   0.737 -0.0565 -0.6284  0.3898
 8089TIP3    H148462   5.662   3.147   0.762  1.4505 -1.7799 -2.7820
 8089TIP3    H248463   5.617   3.244   0.656  0.3754  1.1760  0.2022
 8090TIP3   OH248464   4.007   3.187   1.301  0.2199  0.0091  0.2006
 8090TIP3    H148465   4.082   3.151   1.348  0.3680 -0.1982 -0.1901
 8090TIP3    H248466   3.997   3.130   1.225  0.1299  0.4783 -0.1453
 8091TIP3   OH248467   0.110   1.251   1.707  0.3553 -0.2167 -0.1808
 8091TIP3    H148468   0.135   1.160   1.721  1.0882 -0.0810 -0.5580
 8091TIP3    H248469   0.154   1.300   1.777  0.6424 -0.0542 -0.4703
 8092TIP3   OH248470   2.938   4.079   1.820  0.2989 -0.1141 -0.3076
 8092TIP3    H148471   2.901   4.025   1.750 -0.8365 -0.0310  0.2117
 8092TIP3    H248472   2.889   4.161   1.816 -1.0066 -0.7218  1.6599
 8093TIP3   OH248473   4.085   4.285   2.718 -0.1233  0.3612 -0.7548
 8093TIP3    H148474   4.082   4.210   2.776  1.3822  0.9252  0.1024
 8093TIP3    H248475   4.055   4.251   2.633 -1.4787 -0.6765  0.0930
 8094TIP3   OH248476   5.307   1.588   0.570  0.2832  0.4843  0.1694
 8094TIP3    H148477   5.334   1.520   0.509  0.2284  2.6940 -2.5056
 8094TIP3    H248478   5.212   1.593   0.561  0.4714  2.3907 -1.4962
 8095TIP3   OH248479   1.195   0.550   0.971  0.6161 -0.6432 -0.9867
 8095TIP3    H148480   1.164   0.592   1.051 -0.0424  1.8971 -2.4718
 8095TIP3    H248481   1.221   0.462   0.998  1.5184  0.4892  2.2287
 8096TIP3   OH248482   1.908   4.234   0.826 -0.0454 -0.2463 -0.4439
 8096TIP3    H148483   1.836   4.185   0.785 -0.7944 -0.4000  0.9957
 8096TIP3    H248484   1.929   4.302   0.762 -1.0986 -0.5476 -1.1456
 8097TIP3   OH248485   2.759   3.136   0.897  0.4123  0.3412 -0.3092
 8097TIP3    H148486   2.846   3.099   0.912  0.3811 -0.2132 -1.3499
 8097TIP3    H248487   2.775   3.230   0.883  0.9715  0.1123 -1.3664
 8098TIP3   OH248488   6.832   0.713   1.362  0.1792 -0.1264 -0.3753
 8098TIP3    H148489   6.845   0.805   1.384 -0.4384 -0.1145 -0.0303
 8098TIP3    H248490   6.906   0.691   1.305  0.0774  0.7108 -0.8548
 8099TIP3   OH248491   6.811   1.057   2.849 -0.0642 -0.8550 -0.0313
 8099TIP3    H148492   6.814   0.967   2.816 -2.2098 -1.3084  0.8355
 8099TIP3    H248493   6.754   1.103   2.788  0.7446 -0.1378 -0.2714
 8100TIP3   OH248494   3.875   3.396   2.148 -0.1309  0.2228 -0.5515
 8100TIP3    H148495   3.796   3.356   2.112 -0.4288 -0.9995  1.3755
 8100TIP3    H248496   3.846   3.443   2.226  0.9352  0.3705 -0.2239
 8101TIP3   OH248497   1.808   2.158   0.539 -0.4980  0.5524 -0.1039
 8101TIP3    H148498   1.839   2.225   0.601 -0.3738  2.0207 -1.6644
 8101TIP3    H248499   1.745   2.205   0.484 -2.1133 -1.2174  0.1328
 8102TIP3   OH248500   3.640   0.289   1.889 -0.4640 -0.5145  0.4471
 8102TIP3    H148501   3.580   0.222   1.920  0.1158 -1.0760  0.3680
 8102TIP3    H248502   3.703   0.242   1.834  0.4758 -0.0503  1.1090
 8103TIP3   OH248503   7.001   1.719   0.686  0.1492  0.3067  0.7399
 8103TIP3    H148504   7.011   1.802   0.733  2.4250  0.2030  0.5707
 8103TIP3    H248505   7.088   1.703   0.648 -0.5396 -1.6232 -0.1334
 8104TIP3   OH248506   1.088   0.991   1.167  0.0111 -0.7317 -0.4815
 8104TIP3    H148507   1.160   0.932   1.144 -0.0895 -1.4117  0.8571
 8104TIP3    H248508   1.105   1.070   1.115  1.2478 -1.1936 -0.8301
 8105TIP3   OH248509   5.149   6.087   2.099 -0.2554  0.0876 -0.5284
 8105TIP3    H148510   5.180   6.046   2.019  1.2940 -1.4633  0.7834
 8105TIP3    H248511   5.084   6.025   2.134 -1.3881  1.0491 -0.8618
 8106TIP3   OH248512   0.678   0.130   1.478  0.5385  0.2923 -0.0343
 8106TIP3    H148513   0.670   0.037   1.456  2.4238  0.2202 -0.6051
 8106TIP3    H248514   0.635   0.175   1.405  0.9332 -0.1156 -0.5316
 8107TIP3   OH248515   6.784   4.793   1.623 -0.0036 -0.5133 -0.2334
 8107TIP3    H148516   6.704   4.802   1.571 -0.3001 -2.8127 -0.3156
 8107TIP3    H248517   6.851   4.770   1.559 -0.1568 -2.3918  0.2216
 8108TIP3   OH248518   0.155   0.698   2.395 -0.1171  0.8166 -0.1299
 8108TIP3    H148519   0.181   0.723   2.484  0.5741  0.7013 -0.2950
 8108TIP3    H248520   0.160   0.780   2.345 -2.8194  1.4155  0.4276
 8109TIP3   OH248521   7.163   3.997   3.207 -0.4759  0.3598  0.1748
 8109TIP3    H148522   7.104   3.960   3.273 -1.4551  1.4532 -0.0518
 8109TIP3    H248523   7.181   3.924   3.148 -0.6927 -0.2847  0.8768
 8110TIP3   OH248524   5.949   0.507   2.031 -0.2421 -0.2941 -0.6828
 8110TIP3    H148525   5.975   0.415   2.033  0.4266 -0.1016  1.4968
 8110TIP3    H248526   5.869   0.508   1.979 -0.7229 -2.2332 -0.0597
 8111TIP3   OH248527   3.231   7.560   2.739  0.1886 -0.3923  0.4770
 8111TIP3    H148528   3.318   7.521   2.728  0.8937  0.4455  2.6305
 8111TIP3    H248529   3.218   7.612   2.659  1.5800 -0.6769  0.0298
 8112TIP3   OH248530   1.124   0.647   0.724  1.2034  0.2339  0.6857
 8112TIP3    H148531   1.156   0.615   0.808  0.9809  1.3513  1.2280
 8112TIP3    H248532   1.035   0.676   0.742  0.1440 -2.0028 -0.5917
 8113TIP3   OH248533   2.470   3.105   0.748  0.1267 -0.1925  0.1166
 8113TIP3    H148534   2.384   3.082   0.713  0.8628 -1.6253 -0.8720
 8113TIP3    H248535   2.469   3.072   0.838  0.1055 -1.5059 -0.3413
 8114TIP3   OH248536   5.480   7.528   2.136 -0.1913  0.8360 -0.3008
 8114TIP3    H148537   5.501   7.493   2.049 -1.7196  0.1858 -0.4459
 8114TIP3    H248538   5.466   7.450   2.190 -0.6078  1.2343  0.1762
 8115TIP3   OH248539   7.128   2.674   1.069 -0.4551  0.5115 -0.5023
 8115TIP3    H148540   7.209   2.633   1.102 -0.0966  1.2414 -0.4525
 8115TIP3    H248541   7.158   2.754   1.027 -1.0945  0.4355 -1.1106
 8116TIP3   OH248542   7.303   1.847   0.983  0.3033  0.2907 -0.4611
 8116TIP3    H148543   7.370   1.852   1.052  0.7869  0.0837 -0.9036
 8116TIP3    H248544   7.331   1.911   0.918  0.0044  0.2860 -0.5961
 8117TIP3   OH248545   4.884   4.949   1.713 -0.6265 -0.1197 -0.0556
 8117TIP3    H148546   4.893   5.044   1.709  1.3886 -0.2793 -0.4315
 8117TIP3    H248547   4.973   4.917   1.727 -1.1564 -1.9921 -0.6397
 8118TIP3   OH248548   3.975   7.030   0.317  0.2889 -0.6453 -0.6762
 8118TIP3    H148549   3.900   7.013   0.260  0.3075  0.3493 -1.0149
 8118TIP3    H248550   3.939   7.081   0.390  0.4104 -1.2467 -0.1882
 8119TIP3   OH248551   0.174   0.722   1.318  0.0203  0.4203  0.3381
 8119TIP3    H148552   0.122   0.801   1.302  0.7424  0.7276 -0.5501
 8119TIP3    H248553   0.155   0.665   1.244 -0.5263 -0.2700  0.9980
 8120TIP3   OH248554   3.869   3.776   2.276  0.7516 -0.8550  0.1297
 8120TIP3    H148555   3.911   3.743   2.197 -1.5655 -2.7078 -0.4243
 8120TIP3    H248556   3.779   3.746   2.270 -0.5188  2.2426  1.6352
 8121TIP3   OH248557   3.698   7.339   1.110 -0.1689 -0.0334  0.2804
 8121TIP3    H148558   3.650   7.258   1.128  1.3443 -1.3012 -1.1271
 8121TIP3    H248559   3.743   7.359   1.192 -0.6009 -0.5805  0.6561
 8122TIP3   OH248560   0.543   6.609   7.275  0.4288 -0.3650  0.2625
 8122TIP3    H148561   0.538   6.703   7.256  0.9871 -0.2771  0.5225
 8122TIP3    H248562   0.510   6.567   7.196 -1.3990  0.0666  0.7430
 8123TIP3   OH248563   3.206   3.754   1.265 -0.0719  0.2833 -0.4748
 8123TIP3    H148564   3.300   3.748   1.246 -0.2655  0.7780 -1.6880
 8123TIP3    H248565   3.174   3.665   1.253  0.9125 -0.9898  4.2803
 8124TIP3   OH248566   1.888   6.845   1.929  0.8828 -0.2399 -0.1421
 8124TIP3    H148567   1.955   6.911   1.947  1.1912 -0.1395 -1.5557
 8124TIP3    H248568   1.838   6.881   1.856  0.8110 -1.4012 -0.6829
 8125TIP3   OH248569   1.531   5.480   3.364  0.0274 -0.3893  0.7383
 8125TIP3    H148570   1.620   5.508   3.385 -0.4264 -0.1941  2.5630
 8125TIP3    H248571   1.490   5.557   3.326 -0.1884  0.4660  2.5831
 8126TIP3   OH248572   0.018   1.291   2.110 -0.2430 -0.3399 -0.6105
 8126TIP3    H148573  -0.044   1.289   2.037  0.7576 -0.6017 -1.4912
 8126TIP3    H248574  -0.003   1.214   2.162 -0.7395 -0.3493 -0.8210
 8127TIP3   OH248575   3.509   2.883   1.544  0.0687 -0.0483 -0.4705
 8127TIP3    H148576   3.421   2.862   1.512 -0.3469 -0.7772  1.0652
 8127TIP3    H248577   3.495   2.960   1.601  0.3193 -0.5168  0.2327
 8128TIP3   OH248578   2.040   0.010   1.250  0.4834  0.5207  0.4348
 8128TIP3    H148579   2.007  -0.023   1.166  0.8766  0.1521  0.4249
 8128TIP3    H248580   2.111  -0.050   1.274 -0.5530 -0.2635  1.7382
 8129TIP3   OH248581   1.566   5.857   1.634  0.6051 -0.3736 -0.3493
 8129TIP3    H148582   1.511   5.786   1.600  1.4358 -1.3691  0.3087
 8129TIP3    H248583   1.638   5.863   1.571  0.4294  0.0355 -0.5140
 8130TIP3   OH248584   4.744   1.565   1.345  0.3255 -0.2577  0.3143
 8130TIP3    H148585   4.714   1.488   1.297 -0.3275 -0.7458  1.4661
 8130TIP3    H248586   4.758   1.533   1.434  1.9390  0.5237  0.3648
 8131TIP3   OH248587   5.447   3.593   3.530 -0.5408 -0.2428 -0.0321
 8131TIP3    H148588   5.398   3.580   3.449 -0.6134 -0.8205  0.1002
 8131TIP3    H248589   5.494   3.510   3.544  2.3718  1.0291 -1.4013
 8132TIP3   OH248590   0.921   4.937   2.964 -0.1428 -0.0380  0.6045
 8132TIP3    H148591   0.962   4.912   2.881 -0.2695 -0.0948  0.5594
 8132TIP3    H248592   0.861   4.865   2.984 -0.0918 -0.0392  0.7596
 8133TIP3   OH248593   3.648   0.154   1.061 -0.0318 -0.1858  0.0754
 8133TIP3    H148594   3.574   0.176   1.005  0.7855  1.0667 -0.5547
 8133TIP3    H248595   3.701   0.094   1.009  1.4229  2.0021 -1.1326
 8134TIP3   OH248596   6.037   6.832   7.839 -0.0151 -0.4295  0.2202
 8134TIP3    H148597   5.974   6.859   7.906  0.4392 -1.8461  1.2647
 8134TIP3    H248598   6.123   6.853   7.877  0.2060  1.0762 -1.0024
 8135TIP3   OH248599   3.204   6.611   1.570 -1.0662  0.5954  0.1618
 8135TIP3    H148600   3.171   6.694   1.606 -1.2412  1.8592 -2.6513
 8135TIP3    H248601   3.245   6.567   1.644 -1.7442  2.7985  1.9446
 8136TIP3   OH248602   3.919   1.680   0.760  0.2181  0.1922 -0.3273
 8136TIP3    H148603   3.853   1.667   0.828 -1.9414  1.9674 -1.9299
 8136TIP3    H248604   4.001   1.694   0.808 -1.2497  1.6440  1.9276
 8137TIP3   OH248605   0.142   4.973   2.306  0.2711 -0.1925  0.0825
 8137TIP3    H148606   0.146   4.881   2.332  1.7499 -0.4563 -0.9365
 8137TIP3    H248607   0.188   4.975   2.222 -1.0124  1.2406 -0.6394
 8138TIP3   OH248608   4.819   4.540   2.396  0.3293  1.1220  0.1420
 8138TIP3    H148609   4.859   4.541   2.483 -1.4518 -1.4043  1.1272
 8138TIP3    H248610   4.732   4.575   2.410  0.2093  1.1814 -0.7332
 8139TIP3   OH248611   6.517   0.887   0.876 -0.3031 -0.0578  0.3063
 8139TIP3    H148612   6.605   0.901   0.840 -0.6191  1.9735  0.1753
 8139TIP3    H248613   6.532   0.843   0.960  0.8544  0.3887  0.3601
 8140TIP3   OH248614   1.387   7.294   0.874 -0.1457 -0.6947  0.9935
 8140TIP3    H148615   1.301   7.258   0.896  0.4070 -1.2316  2.3724
 8140TIP3    H248616   1.427   7.228   0.817 -1.1866  0.2295 -0.8881
 8141TIP3   OH248617   6.527   5.144   1.403 -0.6814  0.6518  0.2694
 8141TIP3    H148618   6.475   5.161   1.481  1.1557  0.2612  1.6445
 8141TIP3    H248619   6.614   5.178   1.423 -0.1248  0.4749 -1.5915
 8142TIP3   OH248620   5.905   4.403   2.233  0.2583  0.1781 -0.2322
 8142TIP3    H148621   5.889   4.319   2.188  1.9911 -0.5688  0.4442
 8142TIP3    H248622   5.938   4.461   2.164 -1.2136  0.4282 -0.7634
 8143TIP3   OH248623   0.043   5.860   1.087 -0.0527  0.4728 -0.5235
 8143TIP3    H148624   0.029   5.776   1.044  0.8773  0.9506 -1.8017
 8143TIP3    H248625  -0.004   5.923   1.032 -0.4508  0.8534  0.2318
 8144TIP3   OH248626   3.003   1.909   0.584 -0.2020  0.0592  0.0695
 8144TIP3    H148627   3.083   1.858   0.569  1.3118  1.9368  1.2891
 8144TIP3    H248628   3.033   1.989   0.626 -2.7666  0.7959  0.6877
 8145TIP3   OH248629   7.349   4.880   1.326  0.3246 -0.5319 -0.2396
 8145TIP3    H148630   7.309   4.838   1.402 -0.5335 -0.4468 -0.6263
 8145TIP3    H248631   7.321   4.827   1.251 -0.6525  0.6037 -0.7152
 8146TIP3   OH248632   5.136   7.278   0.964  0.0888  0.4434 -0.4533
 8146TIP3    H148633   5.118   7.358   1.014  1.8018  0.2858  0.4583
 8146TIP3    H248634   5.054   7.228   0.969  0.5593 -0.2060  3.4502
 8147TIP3   OH248635   3.113   6.513   1.313 -0.2019 -0.1081  0.7664
 8147TIP3    H148636   3.118   6.569   1.390 -0.6678  0.4636  0.3928
 8147TIP3    H248637   3.032   6.540   1.268 -0.1506 -0.7041  0.2883
 8148TIP3   OH248638   3.915   4.490   2.399 -0.6936 -0.3281  0.2484
 8148TIP3    H148639   3.994   4.436   2.393  1.5161  2.6930  0.1246
 8148TIP3    H248640   3.879   4.490   2.310 -0.2742 -0.8920  0.0737
 8149TIP3   OH248641   2.065   4.677   0.704  0.2140 -0.1505  0.3771
 8149TIP3    H148642   2.084   4.692   0.612  0.6071  1.3161  0.6787
 8149TIP3    H248643   2.019   4.593   0.705 -0.8858  0.3754 -1.2789
 8150TIP3   OH248644   3.264   0.206   1.301 -0.0465  0.4328 -0.1882
 8150TIP3    H148645   3.195   0.153   1.341  0.9250  0.5263  1.6952
 8150TIP3    H248646   3.229   0.295   1.304 -1.2644  0.1291 -2.4720
 8151TIP3   OH248647   3.362   4.659   1.805  0.0483  0.3536  0.4114
 8151TIP3    H148648   3.345   4.577   1.758  3.0751 -1.2495  1.7991
 8151TIP3    H248649   3.313   4.652   1.886  0.7271 -0.3963  0.7706
 8152TIP3   OH248650   1.870   4.849   2.812 -0.4377  0.3616 -0.0842
 8152TIP3    H148651   1.929   4.916   2.849  0.7404 -0.9683  0.5440
 8152TIP3    H248652   1.782   4.887   2.821  0.1991  1.8423  0.1927
 8153TIP3   OH248653   1.089   5.249   0.481 -0.4404  0.2354  0.2318
 8153TIP3    H148654   1.143   5.326   0.462  1.5586 -0.9646  0.7732
 8153TIP3    H248655   1.146   5.190   0.530 -1.8884 -1.6164 -0.1564
 8154TIP3   OH248656   0.360   5.256   0.692 -0.1242 -0.1987  0.4627
 8154TIP3    H148657   0.355   5.185   0.628 -2.8713  0.0411  0.2814
 8154TIP3    H248658   0.372   5.212   0.776 -0.5959 -0.8094  0.2170
 8155TIP3   OH248659   3.115   5.774   0.567 -0.1426 -0.1360  0.3263
 8155TIP3    H148660   3.040   5.769   0.626  0.5145 -0.2839  1.1640
 8155TIP3    H248661   3.122   5.686   0.530  0.4647 -0.5192  1.3247
 8156TIP3   OH248662   4.176   1.341   1.222  0.0151  0.3065  0.5592
 8156TIP3    H148663   4.160   1.349   1.128 -0.3451  1.5088  0.7121
 8156TIP3    H248664   4.153   1.426   1.258  2.3755  0.6519  1.4394
 8157TIP3   OH248665   2.014   7.209   0.655  0.4004  0.2939  0.7199
 8157TIP3    H148666   2.075   7.150   0.611  0.2432 -0.0923  1.0078
 8157TIP3    H248667   2.052   7.296   0.645  1.6616 -0.0712  1.9824
 8158TIP3   OH248668   4.546   1.498   1.757  0.2624  0.1028  0.0055
 8158TIP3    H148669   4.554   1.520   1.664 -1.4262 -0.0097 -0.2130
 8158TIP3    H248670   4.546   1.403   1.759  0.8608  0.1075  0.1830
 8159TIP3   OH248671   4.936   4.935   2.899  0.1955 -0.2494 -0.4349
 8159TIP3    H148672   4.991   4.915   2.824  1.2567 -0.3155  0.3312
 8159TIP3    H248673   4.917   4.850   2.938 -0.9048 -0.2675 -1.0000
 8160TIP3   OH248674   1.906   4.232   3.338  0.0314 -0.4321 -0.1838
 8160TIP3    H148675   1.938   4.142   3.333 -1.0516 -0.8660  0.4534
 8160TIP3    H248676   1.837   4.236   3.272  0.3852  0.0710 -0.5292
 8161TIP3   OH248677   2.828   1.494   1.654 -0.1304 -0.3700 -0.2840
 8161TIP3    H148678   2.864   1.578   1.683  0.3232 -0.7043  0.1565
 8161TIP3    H248679   2.852   1.433   1.724 -1.3968 -0.6543 -0.0715
 8162TIP3   OH248680   0.629   6.618   1.105 -0.2945 -0.3089 -0.4320
 8162TIP3    H148681   0.546   6.583   1.136 -0.9996 -0.1841 -2.0888
 8162TIP3    H248682   0.652   6.565   1.028 -0.1367  1.2197 -1.5021
 8163TIP3   OH248683   2.369   1.643   1.987  0.0287 -0.1107  0.1319
 8163TIP3    H148684   2.437   1.599   1.936 -0.4882  0.2803 -0.9195
 8163TIP3    H248685   2.327   1.573   2.036  0.0238 -0.6158 -0.5835
 8164TIP3   OH248686   4.986   2.233   2.713  0.3855 -0.3258 -0.1244
 8164TIP3    H148687   4.954   2.323   2.710  1.7137  0.1478 -0.7942
 8164TIP3    H248688   5.076   2.240   2.744  0.8058 -1.3182 -1.0410
 8165TIP3   OH248689   4.194   1.071   1.141 -0.1159 -0.2485  0.3019
 8165TIP3    H148690   4.148   1.122   1.074 -2.5705 -1.5113  0.8966
 8165TIP3    H248691   4.191   0.981   1.109  0.0851 -0.6446  1.3551
 8166TIP3   OH248692   5.992   5.628   2.833 -0.5251 -0.3960  0.1220
 8166TIP3    H148693   6.046   5.573   2.889 -0.7566  0.2008  0.9490
 8166TIP3    H248694   5.964   5.570   2.762 -0.4329 -1.2350  0.7564
 8167TIP3   OH248695   7.290   4.356   1.270 -0.5247 -0.6572  0.0662
 8167TIP3    H148696   7.260   4.329   1.356 -1.4438  1.6319  0.5328
 8167TIP3    H248697   7.346   4.432   1.286  0.5448 -1.1042 -1.2773
 8168TIP3   OH248698   7.141   4.104   1.153 -0.4667 -0.2445  0.8598
 8168TIP3    H148699   7.178   4.189   1.126  0.5268 -0.8674  0.1906
 8168TIP3    H248700   7.103   4.069   1.073  0.5623 -1.1416  0.7493
 8169TIP3   OH248701   0.042   4.180   2.105  0.1590 -0.0326  0.2623
 8169TIP3    H148702   0.055   4.274   2.112  0.1164 -0.0458  0.5329
 8169TIP3    H248703  -0.043   4.171   2.062  0.1390  0.0500  0.2851
 8170TIP3   OH248704   2.638   4.663   0.751 -0.0733  0.0894 -0.2754
 8170TIP3    H148705   2.551   4.625   0.742 -0.3016  0.2594  0.9909
 8170TIP3    H248706   2.646   4.683   0.844  1.7126 -0.8878 -0.1594
 8171TIP3   OH248707   1.114   3.078   1.511 -0.4325 -0.1870  0.6478
 8171TIP3    H148708   1.138   3.170   1.522 -2.1549  0.3655 -0.0130
 8171TIP3    H248709   1.190   3.038   1.468 -0.0536  1.1411  0.0440
 8172TIP3   OH248710   4.961   0.553   2.423  0.0884  0.1814  0.1650
 8172TIP3    H148711   4.934   0.491   2.490 -0.6822  0.4662  0.1277
 8172TIP3    H248712   4.905   0.534   2.348  0.3526  0.4347 -0.1029
 8173TIP3   OH248713   1.590   1.469   2.206 -0.2183 -0.0675 -0.6105
 8173TIP3    H148714   1.619   1.528   2.136 -1.2283  1.4303  0.1859
 8173TIP3    H248715   1.524   1.518   2.254 -1.0154 -1.8188  0.1938
 8174TIP3   OH248716   7.408   1.204   1.604  0.6890 -0.6734  0.3322
 8174TIP3    H148717   7.467   1.278   1.590 -0.4554 -0.0919 -1.8794
 8174TIP3    H248718   7.328   1.244   1.639 -0.1700 -0.6932 -1.4787
 8175TIP3   OH248719   7.052   0.191   0.311  0.1080  0.1024 -0.3895
 8175TIP3    H148720   6.964   0.200   0.348 -0.1258 -1.9077 -0.3341
 8175TIP3    H248721   7.038   0.186   0.216 -0.2804 -3.4852 -0.2649
 8176TIP3   OH248722   5.367   3.366   2.483  0.0016 -0.3985 -0.1797
 8176TIP3    H148723   5.331   3.410   2.406  0.5237 -0.0734 -0.2422
 8176TIP3    H248724   5.318   3.283   2.489 -0.5880 -0.0726 -0.3939
 8177TIP3   OH248725   1.271   0.306   1.106  0.8956  0.0647 -0.7950
 8177TIP3    H148726   1.226   0.246   1.047 -1.6887  0.6579  0.4379
 8177TIP3    H248727   1.364   0.293   1.087  0.3038 -2.1082 -2.6440
 8178TIP3   OH248728   4.660   0.463   3.587 -0.4500 -0.0150 -0.3863
 8178TIP3    H148729   4.613   0.412   3.653 -1.8869  1.3840 -0.2552
 8178TIP3    H248730   4.625   0.433   3.504 -0.8463  0.3229 -0.3427
 8179TIP3   OH248731   2.948   4.753   0.825 -0.2719 -0.3190 -0.2242
 8179TIP3    H148732   2.971   4.762   0.917 -0.3429  2.1008 -0.3911
 8179TIP3    H248733   3.032   4.750   0.779 -0.2298  0.4552 -0.2123
 8180TIP3   OH248734   5.604   5.829   1.097 -0.6224  0.4993 -0.5784
 8180TIP3    H148735   5.510   5.831   1.079 -0.4601 -1.0944 -1.7537
 8180TIP3    H248736   5.635   5.748   1.057  0.8232 -0.3268  1.9862
 8181TIP3   OH248737   6.937   2.985   2.320 -0.2146  0.3691  0.3647
 8181TIP3    H148738   6.996   2.909   2.313  0.6260  1.1719 -2.8121
 8181TIP3    H248739   6.901   2.979   2.409  2.6008 -1.6712  1.5319
 8182TIP3   OH248740   4.074   1.023   0.814  0.3662  0.5066 -0.3335
 8182TIP3    H148741   3.985   1.012   0.848 -0.7032  0.6458 -2.8759
 8182TIP3    H248742   4.071   1.102   0.761  1.8737  0.2233 -0.9062
 8183TIP3   OH248743   2.326   6.995   1.085 -0.5662 -0.8301 -0.1497
 8183TIP3    H148744   2.276   7.010   1.166 -0.1218  0.9248 -0.1764
 8183TIP3    H248745   2.310   7.073   1.032 -0.5757 -1.8092 -1.6474
 8184TIP3   OH248746   5.717   5.199   2.287  0.3949  0.0747 -0.1751
 8184TIP3    H148747   5.642   5.148   2.319  0.0374  0.8796  0.3088
 8184TIP3    H248748   5.678   5.278   2.252  1.0549  0.7615  0.5998
 8185TIP3   OH248749   4.993   0.064   2.977 -0.4508 -0.3930  0.1554
 8185TIP3    H148750   4.910   0.041   2.936 -0.8021 -0.8942  1.0998
 8185TIP3    H248751   5.006  -0.005   3.043  1.3253 -1.0269 -0.7991
 8186TIP3   OH248752   3.139   2.784   1.574 -0.3081 -0.1584 -0.4647
 8186TIP3    H148753   3.180   2.863   1.539 -0.4167  0.5375  0.8953
 8186TIP3    H248754   3.060   2.772   1.522  1.3218 -1.2951 -2.8830
 8187TIP3   OH248755   5.985   1.141   1.598  0.6598 -0.4930 -0.0141
 8187TIP3    H148756   5.975   1.117   1.690  1.8138 -0.0065  0.2474
 8187TIP3    H248757   5.946   1.068   1.550 -1.8016  0.1542  0.8637
 8188TIP3   OH248758   3.080   6.071   0.855 -0.2535  0.4068 -0.2633
 8188TIP3    H148759   3.168   6.049   0.886 -0.1303  0.3350 -0.6617
 8188TIP3    H248760   3.034   5.987   0.852 -0.0081  0.2938 -1.0765
 8189TIP3   OH248761   0.077   1.993   1.288 -0.3331  0.3524  0.6275
 8189TIP3    H148762   0.141   1.932   1.324  1.1454  0.2404 -1.9893
 8189TIP3    H248763   0.077   2.066   1.351  3.6694  1.1319 -0.0156
 8190TIP3   OH248764   5.897   7.266   2.454 -0.5798 -0.5573 -0.6083
 8190TIP3    H148765   5.956   7.278   2.528 -1.4067 -1.4083  0.2316
 8190TIP3    H248766   5.948   7.289   2.377  0.7298 -0.9456  0.1221
 8191TIP3   OH248767   5.956   2.228   1.272  0.2249  0.9249  0.0235
 8191TIP3    H148768   6.026   2.293   1.281  0.4140  0.9049 -1.1305
 8191TIP3    H248769   5.961   2.200   1.180 -0.1974 -0.3256  0.3554
 8192TIP3   OH248770   4.501   1.415   3.183  0.0530 -0.3044 -0.6185
 8192TIP3    H148771   4.589   1.414   3.219  0.1630 -0.7655 -0.8927
 8192TIP3    H248772   4.510   1.380   3.094 -0.2905  0.3548 -0.9196
 8193TIP3   OH248773   5.163   1.165   0.742 -0.6496 -0.4808  0.2294
 8193TIP3    H148774   5.137   1.097   0.804 -0.2882 -0.2248  0.6673
 8193TIP3    H248775   5.250   1.139   0.713 -0.1654  0.1903  1.0040
 8194TIP3   OH248776   4.423   1.673   2.680  0.6290  0.1733  0.2744
 8194TIP3    H148777   4.338   1.650   2.717 -0.4018  0.1182 -1.9216
 8194TIP3    H248778   4.442   1.760   2.715 -1.1399  0.8812 -0.4066
 8195TIP3   OH248779   3.902   2.067   0.729 -0.6169  0.3189  0.6272
 8195TIP3    H148780   3.954   2.069   0.649 -1.2303 -2.3751  0.0621
 8195TIP3    H248781   3.962   2.095   0.798  0.3515  1.2460 -0.5565
 8196TIP3   OH248782   4.009   4.441   1.343 -0.1566 -0.4749  0.2306
 8196TIP3    H148783   4.096   4.473   1.365 -0.2880 -0.0280  0.1138
 8196TIP3    H248784   3.972   4.508   1.285 -0.8766 -0.2658  0.9065
 8197TIP3   OH248785   1.316   4.667   1.155 -0.0989  0.2473  0.3061
 8197TIP3    H148786   1.403   4.630   1.162 -0.0590 -0.2351 -1.9447
 8197TIP3    H248787   1.259   4.591   1.140 -0.5412  0.7476 -0.6186
 8198TIP3   OH248788   4.827   7.447   2.192 -0.3835  0.0930  0.1404
 8198TIP3    H148789   4.845   7.540   2.190 -1.8107  0.3946  0.1374
 8198TIP3    H248790   4.833   7.423   2.284 -2.5060  0.7592  0.5115
 8199TIP3   OH248791   7.361   6.621   0.502  0.1131  0.0179  0.4486
 8199TIP3    H148792   7.353   6.710   0.467  0.4337 -0.9584 -2.3495
 8199TIP3    H248793   7.270   6.595   0.519 -0.1476  0.2620 -0.4735
 8200TIP3   OH248794   0.155   0.986   1.772 -0.0230 -0.2532  0.0428
 8200TIP3    H148795   0.111   0.941   1.845  0.3256  0.6632  0.8490
 8200TIP3    H248796   0.125   0.941   1.694 -0.7262 -1.0124  0.7312
 8201TIP3   OH248797   3.333   6.855   1.141  0.6560 -0.6851  0.6394
 8201TIP3    H148798   3.296   6.800   1.071  1.8926 -1.5226  0.6184
 8201TIP3    H248799   3.337   6.943   1.103 -0.6837 -0.6885  0.4238
 8202TIP3   OH248800   3.042   2.983   2.979  0.3014 -0.1053  0.0758
 8202TIP3    H148801   3.096   2.924   2.926 -0.6229 -0.6107 -0.3251
 8202TIP3    H248802   3.105   3.045   3.017  1.3819 -1.6800  0.9800
 8203TIP3   OH248803   0.117   4.417   0.935 -0.3461  0.3928  0.6772
 8203TIP3    H148804   0.203   4.376   0.923 -1.3639 -1.0462 -2.8825
 8203TIP3    H248805   0.110   4.480   0.864 -2.6912 -0.4612  0.0496
 8204TIP3   OH248806   5.566   1.124   2.558 -0.0908 -0.1271  0.2997
 8204TIP3    H148807   5.559   1.150   2.466 -0.7198 -0.0478  0.3696
 8204TIP3    H248808   5.576   1.206   2.606 -1.0727 -0.0744  0.4242
 8205TIP3   OH248809   4.838   1.808   2.736  0.3852 -0.2180  0.1026
 8205TIP3    H148810   4.828   1.798   2.831 -0.0017 -1.2813 -0.0304
 8205TIP3    H248811   4.802   1.894   2.717 -1.7892 -0.9322  0.6465
 8206TIP3   OH248812   1.618   6.845   1.694 -0.4810 -0.2239 -0.6712
 8206TIP3    H148813   1.704   6.877   1.666  0.1380 -0.3230  0.9707
 8206TIP3    H248814   1.565   6.924   1.703 -0.2070 -0.0452 -0.6022
 8207TIP3   OH248815   0.400   6.737   1.199  0.0093 -0.6484 -0.3809
 8207TIP3    H148816   0.323   6.775   1.242 -0.6750 -1.5772 -0.7639
 8207TIP3    H248817   0.364   6.688   1.125  0.8630 -2.0826  0.1241
 8208TIP3   OH248818   1.603   4.643   1.568  0.3592  0.3867  0.1383
 8208TIP3    H148819   1.522   4.693   1.561  0.5965  0.9208  0.9713
 8208TIP3    H248820   1.638   4.667   1.654 -0.5061 -2.6971  1.5113
 8209TIP3   OH248821   5.608   4.567   1.932 -0.2161 -0.4642 -0.2813
 8209TIP3    H148822   5.520   4.605   1.931 -0.0952 -0.1845 -0.7188
 8209TIP3    H248823   5.605   4.501   2.002 -0.3041  0.6236  0.7615
 8210TIP3   OH248824   4.667   5.729   1.061 -0.0312  0.0787  0.2833
 8210TIP3    H148825   4.623   5.712   1.144 -1.8773  0.8284 -0.4978
 8210TIP3    H248826   4.679   5.642   1.021 -2.3479 -0.0706 -0.2148
 8211TIP3   OH248827   1.045   2.752   2.294 -0.1859  0.0376 -0.5326
 8211TIP3    H148828   1.016   2.755   2.385  0.5919  0.1200 -0.2844
 8211TIP3    H248829   1.067   2.660   2.278 -0.3581  0.0163 -0.6491
 8212TIP3   OH248830   0.552   7.054   0.812  0.2235 -0.3185 -0.2302
 8212TIP3    H148831   0.605   7.016   0.742  0.8971  0.5725 -0.2192
 8212TIP3    H248832   0.554   6.989   0.882 -1.0539 -1.5501 -1.2694
 8213TIP3   OH248833   0.430   0.685   1.256 -0.5761 -0.2267  0.2681
 8213TIP3    H148834   0.487   0.760   1.272 -0.2687 -0.4299  0.1446
 8213TIP3    H248835   0.342   0.716   1.277 -0.4318  0.1215  0.3605
 8214TIP3   OH248836   7.048   0.297   0.639  0.6322 -0.1104  0.0410
 8214TIP3    H148837   6.983   0.297   0.568  1.4972  0.2748 -0.7673
 8214TIP3    H248838   7.044   0.208   0.675 -0.8632  0.1181  0.5128
 8215TIP3   OH248839   2.999   5.865   2.645 -0.3222 -0.6553  0.0189
 8215TIP3    H148840   2.951   5.785   2.667 -2.2099  0.7764  1.2904
 8215TIP3    H248841   2.933   5.933   2.638  1.2623  0.8943 -0.7556
 8216TIP3   OH248842   5.019   6.280   2.230 -0.0174  0.2853 -0.9286
 8216TIP3    H148843   5.007   6.355   2.171 -0.2860  0.5228 -0.5740
 8216TIP3    H248844   5.060   6.213   2.175  0.4755  0.7836 -1.1780
 8217TIP3   OH248845   7.562   4.634   3.168  0.0211  0.0921 -0.4432
 8217TIP3    H148846   7.621   4.707   3.147  2.2343 -0.9686  1.6126
 8217TIP3    H248847   7.478   4.660   3.131  1.3285  2.5135 -1.9781
 8218TIP3   OH248848   6.467   4.642   1.157 -0.7648 -0.3704 -0.1285
 8218TIP3    H148849   6.422   4.705   1.214  0.0469  0.1264 -0.0252
 8218TIP3    H248850   6.444   4.556   1.193 -1.0215 -0.0982  0.3717
 8219TIP3   OH248851   3.793   7.048   2.190  0.0272  0.1809 -0.0517
 8219TIP3    H148852   3.873   7.072   2.144  0.0803 -1.2220 -0.7141
 8219TIP3    H248853   3.759   6.972   2.144 -1.4358  0.4397  0.5210
 8220TIP3   OH248854   6.935   4.620   1.410 -0.4117  0.3434 -0.4929
 8220TIP3    H148855   6.968   4.674   1.338  3.2157  0.8846  1.3491
 8220TIP3    H248856   6.854   4.582   1.376  0.6507  1.1951 -4.5093
 8221TIP3   OH248857   5.815   5.612   3.174 -1.1249 -0.2867 -0.4419
 8221TIP3    H148858   5.720   5.618   3.164 -1.4073 -0.5348  1.6061
 8221TIP3    H248859   5.828   5.535   3.229  0.2301  0.0567 -0.2478
 8222TIP3   OH248860   0.058   2.618   2.336  0.1036 -0.2753 -0.1037
 8222TIP3    H148861  -0.015   2.561   2.359 -0.9866  1.1179  0.0172
 8222TIP3    H248862   0.123   2.604   2.405  0.3089 -2.0990 -0.6307
 8223TIP3   OH248863   7.447   5.315   2.897  0.0927  0.1913  0.1274
 8223TIP3    H148864   7.369   5.282   2.941  0.1787  0.2193  0.2994
 8223TIP3    H248865   7.507   5.338   2.967 -0.8522  3.0143  0.1577
 8224TIP3   OH248866   0.627   5.463   1.368 -0.1053  0.7924 -0.0847
 8224TIP3    H148867   0.681   5.542   1.375 -1.0030  1.3334  1.0763
 8224TIP3    H248868   0.540   5.496   1.344 -0.2910  0.0661 -0.4489
 8225TIP3   OH248869   2.017   4.975   1.778 -0.0458 -0.1997 -0.7545
 8225TIP3    H148870   2.010   5.050   1.837  0.1622 -1.2017  0.5683
 8225TIP3    H248871   2.018   4.899   1.835 -0.5602 -1.2507 -2.0964
 8226TIP3   OH248872   0.213   6.342   1.785 -0.4359  0.0971 -0.3294
 8226TIP3    H148873   0.249   6.411   1.730 -0.0147  0.1899  0.0491
 8226TIP3    H248874   0.287   6.282   1.799  0.0289  1.0311  1.6365
 8227TIP3   OH248875   7.318   1.722   0.574  0.2914 -0.5585 -0.0258
 8227TIP3    H148876   7.400   1.760   0.544 -0.5169  2.6619  1.4234
 8227TIP3    H248877   7.339   1.683   0.659  0.4084 -0.0312  0.1911
 8228TIP3   OH248878   3.287   2.182   1.992  0.1535 -0.5199  0.5576
 8228TIP3    H148879   3.315   2.261   1.946 -0.5418  0.2748  1.4474
 8228TIP3    H248880   3.247   2.128   1.924 -0.6711  0.5396  0.1599
 8229TIP3   OH248881   3.488   6.889   1.386  0.4864  0.4140  0.1271
 8229TIP3    H148882   3.423   6.867   1.318  0.9240  0.1838 -0.2213
 8229TIP3    H248883   3.558   6.933   1.338  1.6579 -1.3475  0.1072
 8230TIP3   OH248884   1.874   0.613   1.493  0.5046 -0.2450 -0.5709
 8230TIP3    H148885   1.848   0.530   1.533  2.3998 -0.7114 -0.2241
 8230TIP3    H248886   1.801   0.635   1.434  0.2204 -2.4686 -1.1379
 8231TIP3   OH248887   3.361   4.005   1.661  0.4861  0.5890  0.2967
 8231TIP3    H148888   3.330   3.996   1.571  0.2499  0.4206  0.3928
 8231TIP3    H248889   3.422   4.078   1.658  0.0152  0.9802  0.1165
 8232TIP3   OH248890   4.604   6.416   1.625 -0.2558 -0.1920  0.2756
 8232TIP3    H148891   4.590   6.344   1.564  2.3587  0.5706 -1.4109
 8232TIP3    H248892   4.694   6.404   1.656 -0.3017  1.4614  1.1687
 8233TIP3   OH248893   1.769   0.447   1.982 -0.0390 -0.2494 -0.0824
 8233TIP3    H148894   1.702   0.403   1.931  1.0119 -0.5347 -1.2734
 8233TIP3    H248895   1.810   0.377   2.034  0.8275 -0.5139 -1.0747
 8234TIP3   OH248896   7.497   1.294   1.949 -0.7071  0.1498 -0.2929
 8234TIP3    H148897   7.494   1.362   1.882  1.0307  0.9460  0.3868
 8234TIP3    H248898   7.420   1.310   2.003  0.1728  2.2380  0.4309
 8235TIP3   OH248899   1.030   1.761   3.366  0.0749  0.4409  0.5955
 8235TIP3    H148900   1.122   1.742   3.385 -0.2300 -0.9080  0.7930
 8235TIP3    H248901   1.033   1.837   3.308  1.2840  0.7717  1.0564
 8236TIP3   OH248902   4.526   7.029   0.500 -0.4545 -0.7695  0.1211
 8236TIP3    H148903   4.577   7.105   0.526 -0.1483 -0.8536 -0.2167
 8236TIP3    H248904   4.435   7.052   0.521 -0.2219 -0.8319  1.2179
 8237TIP3   OH248905   0.893   0.345   2.619  0.0448 -0.6068  0.2914
 8237TIP3    H148906   0.913   0.252   2.632 -0.0764 -0.8710 -1.2407
 8237TIP3    H248907   0.819   0.346   2.557 -0.9790  0.4850  1.4717
 8238TIP3   OH248908   0.890   1.220   1.911 -0.5525  0.2282 -0.2487
 8238TIP3    H148909   0.893   1.285   1.982  1.4075 -0.0347 -0.0568
 8238TIP3    H248910   0.823   1.157   1.940  0.7524 -0.3154  1.8293
 8239TIP3   OH248911   3.077   5.618   2.391 -0.5126  0.0620 -0.1073
 8239TIP3    H148912   3.024   5.617   2.471  0.9808  2.0588  0.9997
 8239TIP3    H248913   3.166   5.635   2.421  0.2738 -0.1738 -2.1352
 8240TIP3   OH248914   3.052   2.306   1.289 -0.3621  0.0912 -0.0783
 8240TIP3    H148915   3.113   2.295   1.361 -0.3920  1.5137  0.1913
 8240TIP3    H248916   3.103   2.287   1.210 -0.6701 -2.8530  0.3099
 8241TIP3   OH248917   2.937   7.010   2.612  0.0349 -0.4445 -0.1100
 8241TIP3    H148918   2.877   7.070   2.567  1.7720 -0.2036 -2.2973
 8241TIP3    H248919   2.882   6.935   2.635 -1.0051 -0.7196 -2.9904
 8242TIP3   OH248920   6.553   6.986   2.563  0.4514 -0.4592  0.0614
 8242TIP3    H148921   6.474   6.933   2.570  0.2820 -0.1100  0.9216
 8242TIP3    H248922   6.562   7.004   2.469 -1.4536  0.9226  0.0878
 8243TIP3   OH248923   4.874   3.912   1.217 -0.0986  0.2764  0.0173
 8243TIP3    H148924   4.885   3.979   1.149 -1.4924  1.6104  1.0346
 8243TIP3    H248925   4.882   3.829   1.170  3.1070  1.0314 -1.0597
 8244TIP3   OH248926   2.006   4.299   2.831 -0.2810 -0.4977 -0.2596
 8244TIP3    H148927   2.044   4.355   2.764 -1.1036 -0.7247 -0.9357
 8244TIP3    H248928   1.911   4.309   2.821 -0.4329  0.0796  1.4019
 8245TIP3   OH248929   7.659   1.386   2.955 -0.1478  0.0349 -0.1715
 8245TIP3    H148930   7.746   1.424   2.945  0.2596 -0.1290  2.0723
 8245TIP3    H248931   7.623   1.431   3.032 -0.7140 -2.1968  0.9344
 8246TIP3   OH248932   0.996   5.607   2.482 -0.0882  0.2690 -0.0305
 8246TIP3    H148933   1.076   5.601   2.535  0.0934 -0.5696 -0.3861
 8246TIP3    H248934   0.996   5.696   2.448 -0.1506  0.7905  1.2869
 8247TIP3   OH248935   7.190   3.113   1.899 -0.1780 -0.5732 -0.1542
 8247TIP3    H148936   7.251   3.107   1.973 -0.2142 -1.2815 -0.1711
 8247TIP3    H248937   7.241   3.154   1.829  0.0159 -0.3752  0.1040
 8248TIP3   OH248938   0.925   4.107   3.081  0.0325 -0.2654 -0.4712
 8248TIP3    H148939   1.018   4.089   3.070  0.1890  0.4323 -0.3564
 8248TIP3    H248940   0.895   4.043   3.145  1.0005  1.0607  1.4076
 8249TIP3   OH248941   6.869   6.269   0.929 -0.0242  0.6440 -0.3238
 8249TIP3    H148942   6.871   6.197   0.992  2.1228  0.6207 -0.3355
 8249TIP3    H248943   6.936   6.330   0.960 -0.7006  1.8683 -1.1971
 8250TIP3   OH248944   1.234   3.010   1.201  0.2325 -0.2887 -0.4743
 8250TIP3    H148945   1.264   2.920   1.214 -0.5516 -0.3851  0.8711
 8250TIP3    H248946   1.139   3.002   1.190  0.3514  0.2293 -2.2240
 8251TIP3   OH248947   0.633   0.308   2.885 -1.2118 -0.4620  0.0453
 8251TIP3    H148948   0.616   0.392   2.842 -1.7585  0.0997  1.3273
 8251TIP3    H248949   0.681   0.257   2.819 -0.3515  1.0537 -0.5440
 8252TIP3   OH248950   4.066   2.784   0.680 -0.0228  0.1180  0.5926
 8252TIP3    H148951   4.080   2.739   0.764 -1.0526  2.2625  2.0141
 8252TIP3    H248952   4.000   2.851   0.700  0.3309  1.2553 -1.7442
 8253TIP3   OH248953   7.200   0.652   0.741 -0.5280 -0.0847  0.2279
 8253TIP3    H148954   7.236   0.582   0.687  0.9355  0.0398  0.9815
 8253TIP3    H248955   7.183   0.611   0.826 -3.5330 -0.4757 -0.4393
 8254TIP3   OH248956   1.619   0.069   2.144 -0.5459 -0.5849 -0.7174
 8254TIP3    H148957   1.561   0.130   2.100  0.5261  0.4952 -0.6708
 8254TIP3    H248958   1.570   0.042   2.222 -0.7959  0.6886 -0.4174
 8255TIP3   OH248959   5.840   5.390   3.330 -0.0909  0.7353  0.0493
 8255TIP3    H148960   5.767   5.343   3.371 -0.8298  0.2304 -1.7664
 8255TIP3    H248961   5.909   5.388   3.396 -0.9037 -0.8574  0.9207
 8256TIP3   OH248962   7.526   0.599   2.116  0.8508 -0.2214  0.0922
 8256TIP3    H148963   7.530   0.560   2.029 -0.9117 -0.6437  0.1762
 8256TIP3    H248964   7.492   0.687   2.101  1.1478 -0.0717  0.2924
 8257TIP3   OH248965   6.663   4.483   0.838  0.3834  0.1970  0.2063
 8257TIP3    H148966   6.716   4.416   0.794 -1.7233 -1.2792 -0.2412
 8257TIP3    H248967   6.576   4.475   0.799  0.0840  3.4414 -0.0559
 8258TIP3   OH248968   5.061   6.018   0.605  0.5147 -0.1083  0.0144
 8258TIP3    H148969   5.085   5.959   0.534  1.9375 -0.0184  0.3904
 8258TIP3    H248970   5.143   6.058   0.632  0.1094 -0.5516  2.0977
 8259TIP3   OH248971   2.800   3.373   1.235  0.3365  0.2625 -0.0708
 8259TIP3    H148972   2.832   3.286   1.257  0.2221  0.0419 -0.7448
 8259TIP3    H248973   2.709   3.373   1.264  1.3054  1.5030  3.5318
 8260TIP3   OH248974   0.935   7.578   1.549  0.9436 -0.4029  0.3983
 8260TIP3    H148975   0.943   7.670   1.577  4.2924 -0.3328 -0.2662
 8260TIP3    H248976   0.980   7.529   1.618  0.5932 -1.3429 -0.0380
 8261TIP3   OH248977   6.880   0.811   2.725 -0.2050 -0.5646  0.1075
 8261TIP3    H148978   6.950   0.849   2.672 -0.6312  0.1008  0.0100
 8261TIP3    H248979   6.811   0.790   2.663 -0.6588  0.1070  0.3588
 8262TIP3   OH248980   1.081   3.384   1.477  0.1067 -0.1296  0.1189
 8262TIP3    H148981   0.989   3.386   1.449  0.2772 -0.3602 -0.4781
 8262TIP3    H248982   1.105   3.476   1.487 -0.1686 -0.0651  0.1985
 8263TIP3   OH248983   1.936   5.675   1.337 -0.3282  0.0263 -0.1122
 8263TIP3    H148984   1.960   5.656   1.427 -2.0091  0.5000  0.4591
 8263TIP3    H248985   1.951   5.592   1.290  0.3460 -0.2803  0.6390
 8264TIP3   OH248986   3.792   7.254   0.774  0.2731  0.1961  0.1494
 8264TIP3    H148987   3.704   7.286   0.752 -0.1358 -1.1394 -0.2247
 8264TIP3    H248988   3.779   7.164   0.801  1.6439 -0.3239 -0.8253
 8265TIP3   OH248989   4.363   4.096   2.440  0.3805  0.1376 -0.0859
 8265TIP3    H148990   4.342   4.028   2.376 -0.0271 -1.5635  1.7776
 8265TIP3    H248991   4.441   4.064   2.485  0.4736  1.1525  0.5151
 8266TIP3   OH248992   6.319   2.397   2.515  0.1649  0.5882  0.0765
 8266TIP3    H148993   6.410   2.426   2.520 -0.0640  1.5454 -0.8734
 8266TIP3    H248994   6.283   2.443   2.439 -1.0815  0.1419  0.3649
 8267TIP3   OH248995   7.243   3.522   1.882  0.1108  0.2945 -0.3228
 8267TIP3    H148996   7.196   3.471   1.816  0.0513  0.2023 -0.2099
 8267TIP3    H248997   7.255   3.608   1.842 -1.1986  0.6965  0.0922
 8268TIP3   OH248998   7.258   7.045   1.811  0.6662  0.2132  0.2038
 8268TIP3    H148999   7.313   6.970   1.788 -1.1712 -1.3493  0.6390
 8268TIP3    H249000   7.217   7.072   1.729  0.4385 -0.0329  0.2340
 8269TIP3   OH249001   1.170   2.608   1.995  0.7094 -0.1025  0.2982
 8269TIP3    H149002   1.191   2.649   1.912 -0.4404  1.8023  0.8727
 8269TIP3    H249003   1.227   2.652   2.059 -0.4827  0.5942  0.9181
 8270TIP3   OH249004   3.894   3.389   0.535  0.0064 -0.1184 -0.0753
 8270TIP3    H149005   3.928   3.471   0.500  0.9930 -0.9049 -1.0448
 8270TIP3    H249006   3.952   3.367   0.607 -0.7932  0.4580  0.7721
 8271TIP3   OH249007   2.291   1.493   2.666  0.0126 -0.5972  0.4198
 8271TIP3    H149008   2.250   1.516   2.583  0.1791 -0.9983  0.2217
 8271TIP3    H249009   2.364   1.555   2.675 -0.8878  0.4101  0.9926
 8272TIP3   OH249010   3.216   2.559   1.686 -0.4847  0.0218 -0.2756
 8272TIP3    H149011   3.264   2.589   1.763  1.0564  1.1446 -1.6009
 8272TIP3    H249012   3.179   2.638   1.648 -3.0375 -0.7542  0.3862
 8273TIP3   OH249013   2.076   2.412   1.121 -0.0274  0.0295 -0.1713
 8273TIP3    H149014   2.147   2.421   1.058 -0.3241 -0.6151 -0.6072
 8273TIP3    H249015   2.036   2.327   1.100  1.1575 -1.2105  2.1805
 8274TIP3   OH249016   1.059   2.561   1.144 -0.1366 -0.6605 -0.0916
 8274TIP3    H149017   1.059   2.498   1.072  0.0303 -0.8548  0.0791
 8274TIP3    H249018   1.146   2.554   1.183 -0.4237 -0.9841  0.5059
 8275TIP3   OH249019   2.957   5.890   2.335 -0.2692 -0.1555  0.5601
 8275TIP3    H149020   3.033   5.898   2.276 -0.0233  0.1797  0.9154
 8275TIP3    H249021   2.995   5.868   2.420 -0.5185  0.6323  0.8841
 8276TIP3   OH249022   2.093   4.963   2.635  0.0533  0.3173  0.2692
 8276TIP3    H149023   2.061   5.006   2.715 -0.3117  0.3981  0.0823
 8276TIP3    H249024   2.083   5.030   2.567 -0.3361  0.0036  0.0127
 8277TIP3   OH249025   6.124   7.628   0.942 -0.0884  0.3444  0.4011
 8277TIP3    H149026   6.085   7.563   1.000  0.1075  0.5405  0.7558
 8277TIP3    H249027   6.050   7.667   0.896 -0.3771  1.1213  1.4943
 8278TIP3   OH249028   6.442   5.705   3.402  0.3444 -0.2926 -0.1242
 8278TIP3    H149029   6.374   5.641   3.379  1.1648 -1.4859  0.6384
 8278TIP3    H249030   6.415   5.786   3.358 -0.6118 -1.2178 -1.3172
 8279TIP3   OH249031   7.314   5.123   2.663 -0.0645  0.2081 -0.5414
 8279TIP3    H149032   7.289   5.033   2.686  1.3611  0.2100  1.1993
 8279TIP3    H249033   7.387   5.113   2.603  1.7189  0.0928  1.5026
 8280TIP3   OH249034   0.309   6.222   1.183 -0.1541  0.0223 -0.5690
 8280TIP3    H149035   0.268   6.207   1.269 -0.7229  0.7565 -0.7014
 8280TIP3    H249036   0.399   6.193   1.195  0.0867  1.1660  0.6298
 8281TIP3   OH249037   0.875   3.970   1.458  0.3262 -0.8058  0.1730
 8281TIP3    H149038   0.957   4.005   1.423 -1.3668  0.3091 -3.1743
 8281TIP3    H249039   0.856   4.026   1.534  1.6271  0.2971 -0.2598
 8282TIP3   OH249040   1.072   7.275   2.383  0.0540 -0.1584 -0.8399
 8282TIP3    H149041   0.987   7.303   2.416 -0.3514  0.2987 -2.1941
 8282TIP3    H249042   1.055   7.192   2.339  0.8552 -1.5195  1.2519
 8283TIP3   OH249043   4.928   3.106   1.741  0.0618  0.3067 -0.0234
 8283TIP3    H149044   4.847   3.069   1.706  1.2460 -0.8965 -1.6278
 8283TIP3    H249045   4.993   3.092   1.673  1.6594  1.2218  1.2196
 8284TIP3   OH249046   2.057   1.228   0.616  0.0052  0.5000 -0.0814
 8284TIP3    H149047   1.989   1.242   0.550  0.2548  1.0528 -0.2274
 8284TIP3    H249048   2.101   1.313   0.624  0.7576  0.1182 -0.0775
 8285TIP3   OH249049   6.451   5.436   2.290  0.0882 -0.2261 -0.0704
 8285TIP3    H149050   6.411   5.513   2.329  0.6392 -0.5707  1.2106
 8285TIP3    H249051   6.380   5.372   2.284  0.0399 -0.2392  0.5702
 8286TIP3   OH249052   2.111   6.128   0.945 -0.4774  0.0329  0.1256
 8286TIP3    H149053   2.108   6.068   1.019 -1.2293  0.3577  0.3608
 8286TIP3    H249054   2.036   6.104   0.890  0.6959 -0.9480 -1.1279
 8287TIP3   OH249055   5.570   5.323   0.903  0.2689  0.3112 -0.3013
 8287TIP3    H149056   5.577   5.376   0.982 -0.8726 -1.0096  0.7402
 8287TIP3    H249057   5.477   5.301   0.896  0.6317 -1.2447 -0.8690
 8288TIP3   OH249058   4.241   3.460   1.804 -0.3082  0.1033  0.1576
 8288TIP3    H149059   4.191   3.474   1.885 -0.8001 -0.1541 -0.0968
 8288TIP3    H249060   4.205   3.379   1.768  0.5641 -0.2936  0.1670
 8289TIP3   OH249061   6.080   3.837   1.940 -0.0613 -0.1600 -0.1873
 8289TIP3    H149062   5.987   3.856   1.927  0.0778 -0.2189 -1.3172
 8289TIP3    H249063   6.125   3.916   1.910  0.2875 -0.3698 -0.2224
 8290TIP3   OH249064   4.426   7.315   1.022 -0.0528  0.6083  0.1992
 8290TIP3    H149065   4.443   7.386   1.084  0.6915 -0.0778  0.8102
 8290TIP3    H249066   4.332   7.298   1.030 -0.0753  0.9337  0.6933
 8291TIP3   OH249067   2.645   2.743   1.144  0.1056  0.1626 -0.1476
 8291TIP3    H149068   2.652   2.687   1.221 -2.2395 -0.5137 -0.3521
 8291TIP3    H249069   2.734   2.748   1.110  0.9591 -0.6249  1.8200
 8292TIP3   OH249070   7.535   0.387   2.511  0.1736  0.4654  0.2876
 8292TIP3    H149071   7.532   0.406   2.418 -1.1521 -0.4793  0.1219
 8292TIP3    H249072   7.564   0.296   2.517 -1.4443 -0.0476  0.6992
 8293TIP3   OH249073   1.584   7.436   1.287  0.0698 -0.2121 -0.2679
 8293TIP3    H149074   1.551   7.453   1.375  1.0248  1.1561 -0.1321
 8293TIP3    H249075   1.664   7.385   1.301  0.6330  0.6411 -0.2621
 8294TIP3   OH249076   3.565   1.777   1.736  0.7746  0.0928  0.4019
 8294TIP3    H149077   3.576   1.792   1.830  1.1162  0.3409  0.3241
 8294TIP3    H249078   3.621   1.701   1.717 -0.9610 -1.3683  0.7980
 8295TIP3   OH249079   6.246   5.437   1.109  0.2102  0.0054 -0.0459
 8295TIP3    H149080   6.283   5.492   1.040  1.4639  1.0729  1.3996
 8295TIP3    H249081   6.279   5.475   1.191 -1.5185 -0.9772  1.1837
 8296TIP3   OH249082   5.697   5.362   1.839  0.3778 -0.1979  0.6162
 8296TIP3    H149083   5.741   5.377   1.755  0.1288  1.7231  0.7825
 8296TIP3    H249084   5.652   5.278   1.828  1.2401 -0.5201 -0.7659
 8297TIP3   OH249085   5.387   6.621   2.149 -0.1078  0.0623  0.2922
 8297TIP3    H149086   5.421   6.595   2.064  0.0991 -0.2988  0.4810
 8297TIP3    H249087   5.317   6.558   2.168  0.7183 -0.6827  0.9664
 8298TIP3   OH249088   0.449   2.923   1.280 -0.3257 -0.0554  0.3120
 8298TIP3    H149089   0.444   2.835   1.243  1.0474 -0.9442  2.0737
 8298TIP3    H249090   0.376   2.927   1.342 -1.5025  0.7548 -1.0804
 8299TIP3   OH249091   2.663   3.339   3.125  0.6803  0.3383 -0.2313
 8299TIP3    H149092   2.584   3.349   3.179 -0.0545  0.6045 -1.3269
 8299TIP3    H249093   2.700   3.428   3.120  0.5330  0.3848 -0.4870
 8300TIP3   OH249094   5.876   3.061   0.343 -0.9080  0.2670 -0.4229
 8300TIP3    H149095   5.888   3.095   0.254  0.8963  0.5899 -0.1000
 8300TIP3    H249096   5.939   2.989   0.349 -1.2645  0.0226  0.4944
 8301TIP3   OH249097   7.320   6.230   1.739 -0.0573 -0.1961 -1.0190
 8301TIP3    H149098   7.253   6.293   1.768 -0.8739 -1.7942  0.7890
 8301TIP3    H249099   7.383   6.229   1.811  0.0764 -1.2428 -1.1405
 8302TIP3   OH249100   3.345   7.193   1.307  0.2982  0.3641  0.3166
 8302TIP3    H149101   3.271   7.167   1.361  0.1119 -1.4149 -0.7191
 8302TIP3    H249102   3.417   7.138   1.336  0.7547  0.8433  0.1295
 8303TIP3   OH249103   6.485   1.691   2.561 -0.0165  0.1169  0.5199
 8303TIP3    H149104   6.557   1.632   2.535 -1.4160 -0.7778 -1.6222
 8303TIP3    H249105   6.511   1.776   2.527  0.5974  0.0700  0.8554
 8304TIP3   OH249106   6.675   4.738   0.961 -0.1612 -0.7909  0.1647
 8304TIP3    H149107   6.623   4.698   1.031  0.5535 -1.4199  0.3401
 8304TIP3    H249108   6.659   4.684   0.885 -0.9860 -0.0711 -0.1931
 8305TIP3   OH249109   6.622   7.278   2.598 -0.4093  0.1609 -0.4521
 8305TIP3    H149110   6.622   7.185   2.622  1.8128 -0.5063 -2.6153
 8305TIP3    H249111   6.539   7.291   2.552  0.1189 -1.3444 -1.9416
 8306TIP3   OH249112   0.559   0.232   1.915 -0.7825 -0.2546 -0.3538
 8306TIP3    H149113   0.590   0.159   1.861  0.1051 -0.0949 -0.0832
 8306TIP3    H249114   0.609   0.308   1.884  0.6851 -0.3857  1.4633
 8307TIP3   OH249115   0.710   5.820   0.949  0.2907 -0.5166 -0.2200
 8307TIP3    H149116   0.707   5.769   0.868  0.8451 -2.7656  1.1024
 8307TIP3    H249117   0.754   5.902   0.923 -0.5976 -0.6519 -2.4016
 8308TIP3   OH249118   4.998   5.048   2.087 -0.4368 -0.1333  0.0610
 8308TIP3    H149119   5.079   5.035   2.135  0.5985 -0.4251 -1.7068
 8308TIP3    H249120   4.937   5.082   2.153  0.6905 -1.2117  1.7280
 8309TIP3   OH249121   6.963   2.609   1.861  0.6460 -0.0728  0.1596
 8309TIP3    H149122   7.014   2.654   1.794  2.3879  0.3107  1.6477
 8309TIP3    H249123   7.027   2.585   1.928 -1.0454 -0.1391  1.8519
 8310TIP3   OH249124   7.021   4.544   1.655 -0.0377  0.1088 -0.3351
 8310TIP3    H149125   7.002   4.566   1.564  0.3037 -1.5884 -0.8432
 8310TIP3    H249126   6.950   4.485   1.682 -0.8435  1.5754  0.9336
 8311TIP3   OH249127   7.193   1.629   1.547 -0.3407 -0.5001 -0.1861
 8311TIP3    H149128   7.278   1.583   1.545  1.2736  2.2124  0.8372
 8311TIP3    H249129   7.176   1.650   1.455 -0.9537 -2.6924 -0.6437
 8312TIP3   OH249130   2.576   5.024   2.194 -0.1544 -0.0413 -0.1187
 8312TIP3    H149131   2.635   4.953   2.168 -0.0440 -0.4717  1.2102
 8312TIP3    H249132   2.615   5.103   2.156  0.1884 -0.5732 -0.9023
 8313TIP3   OH249133   1.453   3.591   1.629 -0.2639 -0.0504  0.0734
 8313TIP3    H149134   1.411   3.676   1.618 -0.1210 -0.0732 -0.7333
 8313TIP3    H249135   1.424   3.539   1.553  0.4081 -0.3954  0.0395
 8314TIP3   OH249136   4.832   0.060   1.469 -0.2860  0.1798 -0.2273
 8314TIP3    H149137   4.831   0.061   1.565 -0.2361 -0.5093 -0.2101
 8314TIP3    H249138   4.744   0.031   1.445 -0.2428  0.1777 -0.3858
 8315TIP3   OH249139   0.434   0.982   0.472 -0.0592 -0.2043 -0.0805
 8315TIP3    H149140   0.487   0.941   0.404 -1.8339 -0.7852 -1.1824
 8315TIP3    H249141   0.378   0.912   0.505 -1.1715  0.6827 -0.0139
 8316TIP3   OH249142   1.314   3.740   2.831  0.3341  0.2321  0.6161
 8316TIP3    H149143   1.239   3.684   2.849 -0.3461  0.4748 -1.2277
 8316TIP3    H249144   1.390   3.681   2.834 -0.0313 -0.1914  1.5793
 8317TIP3   OH249145   7.675   0.697   2.628  0.3070  0.8682  0.1381
 8317TIP3    H149146   7.735   0.648   2.684 -0.1799 -0.1271 -0.1793
 8317TIP3    H249147   7.653   0.775   2.678  0.0449  0.1044  1.2638
 8318TIP3   OH249148   4.645   3.094   1.982 -0.4487 -0.0081 -0.6704
 8318TIP3    H149149   4.713   3.034   2.013 -0.8248  0.2891  0.7820
 8318TIP3    H249150   4.693   3.175   1.961 -0.3235  0.1876  0.3095
 8319TIP3   OH249151   6.110   4.706   1.624 -0.4078 -0.3190 -0.3976
 8319TIP3    H149152   6.030   4.735   1.668 -0.9495 -1.0661 -0.8754
 8319TIP3    H249153   6.090   4.715   1.531  0.7070  1.1979 -0.5300
 8320TIP3   OH249154   6.163   1.852   0.853  0.3486  0.5959  0.1159
 8320TIP3    H149155   6.220   1.811   0.788 -0.9232  0.9248 -1.2570
 8320TIP3    H249156   6.117   1.779   0.895 -1.8375  0.4470 -2.2508
 8321TIP3   OH249157   6.419   1.277   0.707 -0.0686 -0.4468 -0.1685
 8321TIP3    H149158   6.500   1.325   0.724 -1.2175  1.7711 -0.5850
 8321TIP3    H249159   6.399   1.234   0.790  0.9971 -0.2093  0.2344
 8322TIP3   OH249160   4.899   2.819   1.241 -0.1166 -0.4057  0.2579
 8322TIP3    H149161   4.849   2.756   1.189 -0.9384  1.4496 -1.3500
 8322TIP3    H249162   4.832   2.877   1.278  0.6451 -0.0677  1.1468
 8323TIP3   OH249163   7.264   4.001   1.789 -0.2549  0.6234  0.4485
 8323TIP3    H149164   7.221   4.072   1.742 -1.0821  1.4330  2.3303
 8323TIP3    H249165   7.343   3.982   1.738 -1.2051  1.2762 -1.3455
 8324TIP3   OH249166   0.964   0.230   1.342 -0.0459  0.2158 -0.4571
 8324TIP3    H149167   0.885   0.218   1.395 -0.0326  3.1011  0.4110
 8324TIP3    H249168   0.987   0.142   1.312 -2.7266 -0.9050  0.4764
 8325TIP3   OH249169   0.126   1.813   2.028 -0.1323  0.0194  0.1841
 8325TIP3    H149170   0.055   1.864   2.067 -0.2802 -1.2507  1.7344
 8325TIP3    H249171   0.082   1.754   1.966 -0.4124 -0.4761  0.8350
 8326TIP3   OH249172   4.292   7.679   0.859  0.2023  0.0778  0.0890
 8326TIP3    H149173   4.349   7.753   0.839 -1.5399  1.7323  0.8633
 8326TIP3    H249174   4.330   7.638   0.936  3.4565 -2.4795 -2.5883
 8327TIP3   OH249175   2.058   2.858   1.953 -0.7009 -0.0585 -0.3109
 8327TIP3    H149176   2.064   2.781   1.896 -0.1596 -1.5515  1.6117
 8327TIP3    H249177   1.964   2.877   1.958 -0.8990 -0.9746 -0.3641
 8328TIP3   OH249178   4.369   2.863   0.902  0.0652 -0.3425 -0.1066
 8328TIP3    H149179   4.390   2.947   0.941 -0.2575 -0.8402  1.2007
 8328TIP3    H249180   4.350   2.882   0.810 -3.7763  1.6669  0.8687
 8329TIP3   OH249181   4.154   7.075   1.806 -0.4935 -0.2559  0.1203
 8329TIP3    H149182   4.089   7.008   1.825  0.3905 -1.0865  0.3002
 8329TIP3    H249183   4.236   7.027   1.793  0.2136  0.7912  0.4635
 8330TIP3   OH249184   4.042   4.675   1.197 -0.1829 -0.5808  0.2924
 8330TIP3    H149185   3.956   4.714   1.182 -0.5215 -1.3961  0.0517
 8330TIP3    H249186   4.098   4.749   1.221 -1.0601 -0.0938  0.9298
 8331TIP3   OH249187   4.843   5.691   0.548  0.2834  0.3688  0.1394
 8331TIP3    H149188   4.852   5.625   0.617 -1.6941 -0.2051 -0.0802
 8331TIP3    H249189   4.750   5.714   0.550  0.8668  3.0500  0.1015
 8332TIP3   OH249190   4.044   1.955   1.548  0.5662 -0.3542  0.6992
 8332TIP3    H149191   4.078   2.043   1.539 -0.1770 -0.0968  0.2850
 8332TIP3    H249192   4.121   1.898   1.544  1.0096  0.2471  0.5949
 8333TIP3   OH249193   4.664   7.457   1.953  0.2451  0.5766 -0.0353
 8333TIP3    H149194   4.712   7.421   1.879  0.0393 -2.4638  1.1794
 8333TIP3    H249195   4.727   7.460   2.025 -0.3347  0.5312  0.4891
 8334TIP3   OH249196   2.345   4.574   0.786  0.6226 -0.7003  0.1628
 8334TIP3    H149197   2.333   4.551   0.878  0.7240  0.9206  0.6002
 8334TIP3    H249198   2.309   4.662   0.777  0.8451 -0.7244 -1.2951
 8335TIP3   OH249199   6.787   0.557   1.046  0.2417  0.4664 -0.6562
 8335TIP3    H149200   6.866   0.607   1.067  0.5757 -0.2001 -0.2866
 8335TIP3    H249201   6.815   0.494   0.980  0.7557 -1.6743  1.4595
 8336TIP3   OH249202   1.678   0.446   7.558  0.8289  0.2612  0.2211
 8336TIP3    H149203   1.764   0.481   7.582  0.9019 -0.2449  0.7180
 8336TIP3    H249204   1.616   0.498   7.610  1.0173 -1.1682  1.9880
 8337TIP3   OH249205   2.901   5.033   2.349 -0.0978 -0.2248 -0.2171
 8337TIP3    H149206   2.904   5.037   2.253 -0.1911  2.5769 -0.1738
 8337TIP3    H249207   2.991   5.017   2.375 -0.0861 -1.1140 -0.7456
 8338TIP3   OH249208   0.205   2.092   2.776  0.0265 -0.1813 -0.0415
 8338TIP3    H149209   0.222   2.143   2.855  1.3268  1.3313 -1.2215
 8338TIP3    H249210   0.175   2.157   2.712  1.2168 -0.9342 -1.4389
 8339TIP3   OH249211   1.170   6.295   1.760  0.3065  0.2840 -0.1698
 8339TIP3    H149212   1.178   6.386   1.786  0.1044  0.3017 -0.1711
 8339TIP3    H249213   1.251   6.254   1.790  0.6985  0.6051 -0.7564
 8340TIP3   OH249214   2.764   0.632   1.296  0.3285 -0.4028  0.1932
 8340TIP3    H149215   2.689   0.691   1.288 -1.3411 -2.5705 -1.4536
 8340TIP3    H249216   2.785   0.606   1.206  2.3218 -0.7559  0.7138
 8341TIP3   OH249217   2.548   4.946   0.935  0.7541 -0.2656 -0.0643
 8341TIP3    H149218   2.488   4.999   0.881  0.3400  0.0858  0.7151
 8341TIP3    H249219   2.507   4.946   1.022  0.0850 -2.9053 -0.3027
 8342TIP3   OH249220   6.307   1.472   1.039 -0.0328 -0.0260  0.7706
 8342TIP3    H149221   6.375   1.455   1.103 -0.0978  0.7375  1.0464
 8342TIP3    H249222   6.343   1.540   0.982 -1.2719  1.8532  2.1093
 8343TIP3   OH249223   0.007   7.587   2.338 -0.5749 -0.8120  0.1002
 8343TIP3    H149224   0.021   7.557   2.249 -2.0394 -0.8864 -0.1295
 8343TIP3    H249225   0.024   7.511   2.393 -1.2283 -1.2152 -0.2488
 8344TIP3   OH249226   0.200   0.556   0.597  0.2788  0.0962  0.0390
 8344TIP3    H149227   0.111   0.531   0.573 -0.1512  1.3300  0.2495
 8344TIP3    H249228   0.256   0.500   0.544 -0.6183 -0.6776 -0.1220
 8345TIP3   OH249229   3.942   5.492   1.527 -0.0544  0.4057  0.2779
 8345TIP3    H149230   3.863   5.438   1.521 -0.2695  0.6393  1.0022
 8345TIP3    H249231   4.000   5.443   1.586 -0.1911  0.8935  0.8177
 8346TIP3   OH249232   5.684   2.014   1.117 -0.0543 -0.3337 -0.1187
 8346TIP3    H149233   5.724   1.943   1.067 -2.9282 -2.1780 -0.0177
 8346TIP3    H249234   5.720   2.006   1.205  1.5394  0.0011 -0.7068
 8347TIP3   OH249235   4.590   0.037   1.249  0.2689  0.3231 -0.0933
 8347TIP3    H149236   4.649  -0.038   1.245  0.8663  0.7342  0.6458
 8347TIP3    H249237   4.555   0.036   1.338 -1.5893 -0.4467 -0.7818
 8348TIP3   OH249238   7.183   3.100   7.154 -0.2451 -0.0425  0.5612
 8348TIP3    H149239   7.177   3.038   7.081  1.1612  0.1811  0.2310
 8348TIP3    H249240   7.105   3.155   7.144 -0.9102 -1.0243  0.1852
 8349TIP3   OH249241   4.869   1.041   1.228 -0.6455 -0.1325  0.8976
 8349TIP3    H149242   4.878   1.072   1.138 -1.3141 -1.1470  0.4695
 8349TIP3    H249243   4.805   1.100   1.268 -2.4909 -1.3480 -0.1306
 8350TIP3   OH249244   5.997   6.847   3.063 -0.3211 -0.0875 -0.0323
 8350TIP3    H149245   6.066   6.829   2.999 -1.3280 -1.3603 -0.7926
 8350TIP3    H249246   6.024   6.798   3.141 -0.4448 -0.7459 -0.3938
 8351TIP3   OH249247   5.605   7.081   2.820 -0.6753 -0.1686  0.5829
 8351TIP3    H149248   5.627   7.046   2.733  2.6787 -0.0979  1.3006
 8351TIP3    H249249   5.605   7.005   2.877 -2.2966 -0.1244  0.7039
 8352TIP3   OH249250   3.486   5.477   2.449  0.3510  0.3314  0.0831
 8352TIP3    H149251   3.441   5.392   2.458 -0.3726  0.6879 -0.0788
 8352TIP3    H249252   3.559   5.459   2.390 -1.2512  0.3224 -2.0350
 8353TIP3   OH249253   0.029   1.724   1.459  0.2607  0.0267 -0.2510
 8353TIP3    H149254   0.098   1.779   1.496 -1.1916  0.1642  2.4793
 8353TIP3    H249255  -0.052   1.766   1.486 -0.9326 -0.6895 -2.5276
 8354TIP3   OH249256   6.837   5.664   1.374  0.2687 -0.0655 -0.2138
 8354TIP3    H149257   6.877   5.750   1.359  0.1359 -0.1023 -0.8080
 8354TIP3    H249258   6.775   5.678   1.445 -0.2961  0.5028 -0.8092
 8355TIP3   OH249259   2.041   4.544   1.706  0.5498 -0.6462 -0.4331
 8355TIP3    H149260   2.126   4.509   1.731  0.1969 -1.3669 -0.2257
 8355TIP3    H249261   2.030   4.622   1.760  0.6083 -1.1589  0.3235
 8356TIP3   OH249262   5.694   0.418   2.649  0.7731 -0.1245  0.3721
 8356TIP3    H149263   5.776   0.404   2.601 -0.7785  0.6732 -2.7990
 8356TIP3    H249264   5.639   0.345   2.621 -1.2565  2.0654 -1.7916
 8357TIP3   OH249265   3.840   1.508   1.170  0.3753 -0.3202 -0.2986
 8357TIP3    H149266   3.863   1.456   1.093  1.2139 -0.4226  0.0065
 8357TIP3    H249267   3.819   1.595   1.136  2.0571  0.0228 -0.5385
 8358TIP3   OH249268   1.950   3.226   2.841  0.3250  0.4866  0.4679
 8358TIP3    H149269   1.934   3.310   2.885 -0.1959  0.7927 -0.2771
 8358TIP3    H249270   2.029   3.191   2.882  0.0029  0.8919  1.4475
 8359TIP3   OH249271   5.347   3.778   2.705  0.5912 -0.0331  0.0113
 8359TIP3    H149272   5.398   3.698   2.690  1.6960  0.5516  0.5452
 8359TIP3    H249273   5.365   3.832   2.628 -0.9531 -0.6661 -0.8436
 8360TIP3   OH249274   0.158   3.039   1.339  0.0978 -0.0459  0.0975
 8360TIP3    H149275   0.083   3.098   1.349 -1.0764 -1.1451 -1.5103
 8360TIP3    H249276   0.144   2.972   1.406 -0.4857 -0.3212 -0.2809
 8361TIP3   OH249277   0.775   6.924   0.664  0.2055 -0.2571  0.3908
 8361TIP3    H149278   0.817   7.006   0.636 -1.9470  1.5134  1.9368
 8361TIP3    H249279   0.843   6.877   0.710  1.8798 -0.0246 -1.6729
 8362TIP3   OH249280   0.104   7.534   1.635  0.3436 -0.1573 -0.0550
 8362TIP3    H149281   0.096   7.445   1.602  0.0932 -0.9958  2.0956
 8362TIP3    H249282   0.164   7.527   1.709  0.0703  1.3988  0.3526
 8363TIP3   OH249283   2.573   1.721   1.726 -0.0341  0.0519  0.3067
 8363TIP3    H149284   2.481   1.708   1.706  0.2278 -1.1386 -0.2485
 8363TIP3    H249285   2.579   1.811   1.759 -1.0339  0.9868 -1.8910
 8364TIP3   OH249286   2.721   5.429   2.991 -0.2399 -0.2787  0.0501
 8364TIP3    H149287   2.806   5.388   3.005 -0.0673  0.6927  2.1736
 8364TIP3    H249288   2.669   5.403   3.067 -1.4986  0.0419 -0.6679
 8365TIP3   OH249289   2.248   2.773   0.612 -0.2729  0.4000 -0.4336
 8365TIP3    H149290   2.312   2.742   0.677 -0.1240  1.8016  0.1272
 8365TIP3    H249291   2.273   2.729   0.531 -1.2817 -2.4443  0.6863
 8366TIP3   OH249292   5.971   3.371   2.535 -0.3271  0.0731 -0.4270
 8366TIP3    H149293   5.898   3.398   2.591 -0.4941 -0.3199 -0.4463
 8366TIP3    H249294   6.025   3.449   2.526 -0.6889  0.3396 -0.3218
 8367TIP3   OH249295   6.769   3.403   3.188 -0.0031  0.1959  0.7118
 8367TIP3    H149296   6.759   3.481   3.134  1.9039  0.1790  0.2497
 8367TIP3    H249297   6.841   3.424   3.248 -1.3681 -0.1862  2.5522
 8368TIP3   OH249298   3.346   3.195   1.724  0.3408 -0.2495 -0.4490
 8368TIP3    H149299   3.357   3.289   1.709 -0.6104  0.1035  0.8615
 8368TIP3    H249300   3.433   3.159   1.714  0.5745  0.6121 -1.9244
 8369TIP3   OH249301   6.719   1.454   1.631  0.1554  0.5101  0.1277
 8369TIP3    H149302   6.681   1.386   1.575 -1.4413  1.2626  0.2486
 8369TIP3    H249303   6.703   1.423   1.721 -0.5359  1.0063  0.1824
 8370TIP3   OH249304   7.238   6.327   2.175  0.0248  0.4835  0.0197
 8370TIP3    H149305   7.172   6.269   2.138 -1.0301  0.5727  1.6156
 8370TIP3    H249306   7.298   6.269   2.221  0.1894  0.5075 -0.1658
 8371TIP3   OH249307   1.985   3.353   3.696 -0.1603  0.0029 -0.2093
 8371TIP3    H149308   2.006   3.268   3.736 -1.6190 -0.7940 -1.0429
 8371TIP3    H249309   1.927   3.395   3.759 -0.6409 -0.2768 -0.4598
 8372TIP3   OH249310   0.612   5.373   2.007 -0.2423 -0.8002 -0.2239
 8372TIP3    H149311   0.590   5.387   1.915  0.2465  1.7887 -0.0144
 8372TIP3    H249312   0.708   5.375   2.009 -0.2598  1.7028  0.6139
 8373TIP3   OH249313   0.946   6.315   2.261  0.3578 -0.6868  0.3676
 8373TIP3    H149314   0.899   6.399   2.266 -0.3828 -1.1214  0.8458
 8373TIP3    H249315   1.028   6.337   2.216  1.5651  0.9524  3.0683
 8374TIP3   OH249316   0.091   7.214   0.805  0.2017 -0.0485 -0.2410
 8374TIP3    H149317   0.102   7.303   0.770  1.6371  0.1739  0.6861
 8374TIP3    H249318   0.100   7.157   0.729 -0.2888  0.5709 -0.7810
 8375TIP3   OH249319   5.612   3.246   1.063 -0.5879 -0.4694 -0.5758
 8375TIP3    H149320   5.708   3.255   1.066 -0.6065 -0.4659  2.3241
 8375TIP3    H249321   5.584   3.321   1.010  0.9111  0.8201  0.3479
 8376TIP3   OH249322   6.687   7.668   1.491  0.2533 -0.5992 -0.3277
 8376TIP3    H149323   6.773   7.637   1.520  0.0448 -2.3423 -1.4076
 8376TIP3    H249324   6.628   7.645   1.563  0.1327 -2.6962 -1.0416
 8377TIP3   OH249325   6.670   2.784   2.480  0.4595  0.3904 -0.3701
 8377TIP3    H149326   6.632   2.706   2.440 -0.9966  0.1359  1.3523
 8377TIP3    H249327   6.666   2.851   2.412  3.1437 -1.3299 -2.4046
 8378TIP3   OH249328   3.779   5.239   0.728 -0.3190  0.1039  0.6278
 8378TIP3    H149329   3.692   5.231   0.688  0.4552  0.4662 -1.2475
 8378TIP3    H249330   3.764   5.222   0.821 -2.1355 -1.5086  0.1154
 8379TIP3   OH249331   0.900   5.038   1.272  0.0675  0.2507 -0.7225
 8379TIP3    H149332   0.971   5.101   1.257  0.0587  0.3297 -0.4295
 8379TIP3    H249333   0.822   5.083   1.238  0.0163  0.5102 -0.2753
 8380TIP3   OH249334   3.708   2.502   0.767 -0.0354 -0.5489  0.3650
 8380TIP3    H149335   3.690   2.408   0.762 -2.0326 -0.3087  1.7604
 8380TIP3    H249336   3.655   2.541   0.697  0.4006 -0.4195  0.1067
 8381TIP3   OH249337   3.506   4.568   1.015  0.2253  0.3065  0.5464
 8381TIP3    H149338   3.461   4.645   0.980  0.9540  0.2527 -0.5436
 8381TIP3    H249339   3.442   4.498   1.009 -0.3682  0.7603  1.3338
 8382TIP3   OH249340   0.178   1.446   1.901 -0.2155  0.3038  0.1277
 8382TIP3    H149341   0.167   1.521   1.843  0.5720  1.2337  1.1462
 8382TIP3    H249342   0.107   1.454   1.965 -0.7367 -0.3927 -0.3550
 8383TIP3   OH249343   5.422   4.100   0.565 -0.3645 -0.0401  0.9241
 8383TIP3    H149344   5.355   4.032   0.563 -0.3050 -0.0907  0.6167
 8383TIP3    H249345   5.379   4.178   0.531 -0.2728 -0.0674  0.7455
 8384TIP3   OH249346   5.744   7.463   1.695  0.6452  0.1376 -0.3937
 8384TIP3    H149347   5.669   7.522   1.704  0.9845  0.6522 -0.8628
 8384TIP3    H249348   5.780   7.483   1.608  0.9908 -0.4991 -0.4059
 8385TIP3   OH249349   1.450   2.396   0.892 -0.1339 -0.2369 -0.1349
 8385TIP3    H149350   1.397   2.441   0.827 -0.6127 -0.0144  0.4000
 8385TIP3    H249351   1.531   2.446   0.897 -0.6588  0.5884  0.4532
 8386TIP3   OH249352   4.765   4.907   2.455  0.0609  0.4598 -0.1625
 8386TIP3    H149353   4.721   4.890   2.539 -0.9323 -0.1786 -0.7941
 8386TIP3    H249354   4.832   4.838   2.450 -0.9901 -0.5539 -0.6482
 8387TIP3   OH249355   5.934   4.083   1.710 -0.0832 -0.9010 -0.0762
 8387TIP3    H149356   5.863   4.066   1.772  0.2710  1.0493  0.9331
 8387TIP3    H249357   5.891   4.087   1.625 -0.6583 -3.1043  0.0401
 8388TIP3   OH249358   4.995   1.036   2.544  0.4933  0.0977  0.2070
 8388TIP3    H149359   4.963   1.047   2.455  1.8662 -0.5083 -0.3880
 8388TIP3    H249360   4.944   0.963   2.580  0.5868 -0.2790 -0.4155
 8389TIP3   OH249361   5.108   2.200   3.349 -0.0332 -0.0011 -0.4681
 8389TIP3    H149362   5.146   2.273   3.300  0.9148 -0.3665 -0.2953
 8389TIP3    H249363   5.036   2.169   3.295  0.1885  0.4253 -1.0154
 8390TIP3   OH249364   6.117   0.303   1.634 -0.0099  0.2772 -0.2007
 8390TIP3    H149365   6.034   0.275   1.673  0.2930  1.8191  1.7394
 8390TIP3    H249366   6.144   0.229   1.580 -1.8702 -0.8906  0.3502
 8391TIP3   OH249367   5.823   2.083   2.439 -0.6085  0.0586 -0.2117
 8391TIP3    H149368   5.861   2.045   2.519 -0.5710 -0.9063 -0.6775
 8391TIP3    H249369   5.863   2.033   2.368 -1.3932  0.2392 -0.7906
 8392TIP3   OH249370   0.636   0.318   1.062  0.0152  0.3939  0.4610
 8392TIP3    H149371   0.698   0.352   0.998 -1.4656  0.3538 -1.0509
 8392TIP3    H249372   0.570   0.387   1.071 -0.2574  0.0433  1.3201
 8393TIP3   OH249373   6.667   7.609   0.998  0.3416  0.6376  0.2195
 8393TIP3    H149374   6.619   7.683   0.960  1.7305  1.6587  0.3703
 8393TIP3    H249375   6.754   7.644   1.017  0.6638 -0.7102  1.4391
 8394TIP3   OH249376   4.214   0.485   2.095 -0.0441  0.1436  0.0480
 8394TIP3    H149377   4.302   0.504   2.126 -0.7893  1.1087  1.6730
 8394TIP3    H249378   4.213   0.518   2.005  1.1432  0.4054  0.1126
 8395TIP3   OH249379   0.557   7.424   2.401  0.7200  0.6142  0.5914
 8395TIP3    H149380   0.461   7.420   2.399  0.6316  2.2266  0.4636
 8395TIP3    H249381   0.576   7.476   2.479  1.4546  1.1748  0.0413
 8396TIP3   OH249382   3.202   2.856   2.487 -0.1332  0.3346 -0.3173
 8396TIP3    H149383   3.204   2.949   2.465  0.8493  0.5205  0.4746
 8396TIP3    H249384   3.158   2.853   2.572  1.2020  0.2627  0.3983
 8397TIP3   OH249385   1.678   1.857   2.837  0.3516  0.0214  0.6784
 8397TIP3    H149386   1.588   1.880   2.860  0.4399 -0.6811  1.7853
 8397TIP3    H249387   1.729   1.884   2.914  1.2724  1.4821 -0.3919
 8398TIP3   OH249388   1.558   5.966   3.068 -0.2941  0.0864 -0.1482
 8398TIP3    H149389   1.566   6.056   3.100 -0.5484  0.4188 -0.9942
 8398TIP3    H249390   1.542   5.976   2.975  1.1315 -0.8689 -0.5190
 8399TIP3   OH249391   1.654   3.329   2.741  0.4640  0.3098 -0.0141
 8399TIP3    H149392   1.733   3.371   2.708  0.3181  0.3814 -0.2805
 8399TIP3    H249393   1.661   3.238   2.710  0.5795  0.2451  0.2051
 8400TIP3   OH249394   5.262   4.326   0.629 -0.2469 -0.1638 -0.0206
 8400TIP3    H149395   5.321   4.331   0.704 -1.1835  0.2861  0.6965
 8400TIP3    H249396   5.226   4.414   0.620  1.1317  0.2718 -2.0770
 8401TIP3   OH249397   0.762   4.942   2.522 -0.3558  0.8754  0.5895
 8401TIP3    H149398   0.771   4.876   2.591  2.7231 -0.0925 -0.5340
 8401TIP3    H249399   0.801   5.021   2.559 -1.9279  1.4441  1.1164
 8402TIP3   OH249400   7.402   4.350   3.310 -0.5365 -0.1481 -0.2137
 8402TIP3    H149401   7.352   4.416   3.261  1.0038  1.5690  0.4200
 8402TIP3    H249402   7.408   4.276   3.249 -1.3857  0.6861 -1.3795
 8403TIP3   OH249403   0.620   2.810   0.604  0.6086 -0.2011  0.2127
 8403TIP3    H149404   0.595   2.843   0.690  1.1520  2.1154 -0.4203
 8403TIP3    H249405   0.639   2.717   0.617  1.6715  0.2968  2.8051
 8404TIP3   OH249406   1.141   4.775   3.083 -0.2507 -0.3095  0.1289
 8404TIP3    H149407   1.048   4.799   3.077  0.1320  1.0274 -0.8276
 8404TIP3    H249408   1.142   4.700   3.143 -2.0878 -1.2355 -0.8980
 8405TIP3   OH249409   5.890   5.453   0.486  0.5557  0.2931 -0.1784
 8405TIP3    H149410   5.835   5.470   0.410  0.7403 -0.3347 -0.4616
 8405TIP3    H249411   5.888   5.357   0.496 -0.7884  0.4793  1.6101
 8406TIP3   OH249412   4.089   0.800   2.203  0.1624 -0.2572  0.0481
 8406TIP3    H149413   4.175   0.833   2.180  0.0663 -1.2318 -1.8621
 8406TIP3    H249414   4.040   0.801   2.121 -1.1595 -1.1683  0.7954
 8407TIP3   OH249415   7.270   0.224   1.917 -0.1200  0.1039 -0.4491
 8407TIP3    H149416   7.282   0.168   1.840  2.5108 -0.2334  0.1223
 8407TIP3    H249417   7.345   0.284   1.915 -1.2155  1.5909  0.6660
 8408TIP3   OH249418   2.162   0.018   1.555 -0.8296 -0.3412  0.4575
 8408TIP3    H149419   2.204   0.087   1.607 -3.3336  0.8523  1.0374
 8408TIP3    H249420   2.202  -0.063   1.587  0.0108  0.6014  1.9286
 8409TIP3   OH249421   0.673   6.088   2.764  0.4467 -0.1065  0.4541
 8409TIP3    H149422   0.602   6.151   2.755 -0.0677 -0.7791 -0.2402
 8409TIP3    H249423   0.631   6.007   2.792  0.7327 -0.8852 -1.2520
 8410TIP3   OH249424   2.042   2.614   0.770  0.5916  0.0643 -0.5166
 8410TIP3    H149425   1.963   2.659   0.740 -0.9204 -0.7920  1.8732
 8410TIP3    H249426   2.114   2.673   0.748 -0.7453  1.1213 -2.2720
 8411TIP3   OH249427   0.121   0.163   1.856 -0.0800 -0.0987 -0.1840
 8411TIP3    H149428   0.171   0.229   1.808 -1.6235  0.2031 -1.4552
 8411TIP3    H249429   0.137   0.082   1.808 -0.9639  0.0445 -0.7428
 8412TIP3   OH249430   3.657   3.581   1.887 -0.8351 -0.5417  0.0057
 8412TIP3    H149431   3.601   3.525   1.832 -1.2998 -0.4013  0.3295
 8412TIP3    H249432   3.746   3.562   1.858 -1.0347 -0.9556 -0.3462
 8413TIP3   OH249433   7.323   2.663   0.794 -0.1128 -0.4165 -0.0043
 8413TIP3    H149434   7.241   2.614   0.790 -0.1467 -0.2766 -1.3181
 8413TIP3    H249435   7.301   2.744   0.841 -1.0249  0.1462 -1.3357
 8414TIP3   OH249436   0.490   4.959   2.503  0.1331 -0.0870  0.7758
 8414TIP3    H149437   0.583   4.970   2.523  0.1807 -0.7593  0.9554
 8414TIP3    H249438   0.454   4.916   2.581  0.4623 -3.4800 -0.7494
 8415TIP3   OH249439   0.252   2.128   1.942  0.1795  0.2126 -0.5143
 8415TIP3    H149440   0.190   2.117   1.870 -1.2772 -0.5285  0.7939
 8415TIP3    H249441   0.297   2.210   1.922 -1.6965  1.1368 -1.1928
 8416TIP3   OH249442   6.894   6.031   1.059  0.2755  0.7279 -0.2861
 8416TIP3    H149443   6.946   5.970   1.112  0.5902  0.3256 -1.0397
 8416TIP3    H249444   6.837   5.975   1.007 -0.6901  1.1551  0.2716
 8417TIP3   OH249445   6.709   5.062   2.236  0.2964 -0.5381 -0.6607
 8417TIP3    H149446   6.760   5.118   2.178  1.8270 -1.2911 -0.1015
 8417TIP3    H249447   6.731   4.973   2.209 -1.3087 -0.9051 -0.8645
 8418TIP3   OH249448   1.037   0.319   1.970 -0.2030 -0.0069 -0.5387
 8418TIP3    H149449   1.060   0.411   1.978 -1.4090  0.2104  0.9912
 8418TIP3    H249450   0.999   0.311   1.882 -0.8839  1.1578 -0.3683
 8419TIP3   OH249451   3.742   3.291   1.323 -0.3177  0.6267 -0.5581
 8419TIP3    H149452   3.830   3.257   1.339 -0.1789  1.3261  0.2471
 8419TIP3    H249453   3.726   3.275   1.230 -0.4433 -2.0259 -0.1539
 8420TIP3   OH249454   5.664   3.179   1.863 -0.3341  0.8031  0.3095
 8420TIP3    H149455   5.738   3.238   1.849  0.3424  0.0614  0.6485
 8420TIP3    H249456   5.704   3.092   1.869 -1.3066  0.3050 -0.1941
 8421TIP3   OH249457   5.486   7.312   0.592 -0.2544 -0.2433  0.3056
 8421TIP3    H149458   5.482   7.388   0.534  2.5807 -0.0260  0.2527
 8421TIP3    H249459   5.449   7.344   0.675  0.4191  1.0569  0.1308
 8422TIP3   OH249460   5.862   7.451   1.434 -0.1589 -0.5822 -0.0232
 8422TIP3    H149461   5.823   7.442   1.347 -1.2411 -0.5461  0.4436
 8422TIP3    H249462   5.926   7.521   1.425 -0.7553 -0.1092 -0.6289
 8423TIP3   OH249463   3.496   5.228   0.655 -0.1859  0.2846 -0.0487
 8423TIP3    H149464   3.471   5.136   0.658 -0.5165  0.3382 -0.9485
 8423TIP3    H249465   3.427   5.270   0.604 -0.8701  1.3167  1.6190
 8424TIP3   OH249466   4.843   1.949   2.368 -0.3825  0.0349 -0.0097
 8424TIP3    H149467   4.887   1.875   2.410  1.4257 -0.2566 -2.2540
 8424TIP3    H249468   4.773   1.908   2.316 -1.2678  0.2125  1.0044
 8425TIP3   OH249469   2.137   3.501   1.571  0.1238 -0.1850 -0.1518
 8425TIP3    H149470   2.168   3.411   1.568 -0.1476 -0.2597 -1.7678
 8425TIP3    H249471   2.053   3.496   1.616 -0.8127 -1.0624 -1.9252
 8426TIP3   OH249472   4.857   3.132   1.292  0.1883 -0.0639 -0.0137
 8426TIP3    H149473   4.824   3.119   1.381 -0.6771 -0.2574 -0.3469
 8426TIP3    H249474   4.794   3.192   1.252 -0.5614 -1.4833 -1.0849
 8427TIP3   OH249475   7.187   1.129   1.104 -0.0583  0.3662 -0.1308
 8427TIP3    H149476   7.173   1.166   1.017  0.6296  1.5096  0.2318
 8427TIP3    H249477   7.196   1.205   1.162  2.2475 -0.3213  0.5069
 8428TIP3   OH249478   6.552   7.426   0.821  0.3947  0.5033  0.1468
 8428TIP3    H149479   6.457   7.423   0.831  0.3174  2.1883  0.1544
 8428TIP3    H249480   6.582   7.481   0.894  1.4146 -0.1737  0.2693
 8429TIP3   OH249481   2.447   7.224   2.674 -0.2766 -0.2831  0.3534
 8429TIP3    H149482   2.368   7.173   2.655 -0.7660  1.1964 -1.9285
 8429TIP3    H249483   2.519   7.162   2.657 -0.8923 -1.0592  0.4899
 8430TIP3   OH249484   5.427   3.234   0.399 -0.0534  0.1202  0.0718
 8430TIP3    H149485   5.398   3.142   0.395 -0.8965  0.4057 -0.9088
 8430TIP3    H249486   5.522   3.229   0.407  0.0102 -0.8399 -1.0766
 8431TIP3   OH249487   4.697   6.509   2.761  0.4136 -0.1512 -0.0378
 8431TIP3    H149488   4.603   6.517   2.745  0.4039  0.8713  0.4464
 8431TIP3    H249489   4.720   6.423   2.727 -0.3655  0.2698 -1.7809
 8432TIP3   OH249490   3.965   2.184   2.999  0.2592  0.1165  0.4714
 8432TIP3    H149491   3.880   2.200   2.959  1.1160 -1.3297 -2.1307
 8432TIP3    H249492   3.944   2.165   3.091 -2.3155 -0.9479 -0.2297
 8433TIP3   OH249493   4.717   4.209   1.181  0.0210 -0.0858 -0.6292
 8433TIP3    H149494   4.805   4.219   1.146  0.2700 -1.5204 -0.5064
 8433TIP3    H249495   4.730   4.186   1.273 -0.6438  4.6996  0.8996
 8434TIP3   OH249496   5.820   3.287   1.302 -0.0005  0.1512  0.0551
 8434TIP3    H149497   5.903   3.256   1.267  0.8916  1.4161  0.9505
 8434TIP3    H249498   5.816   3.379   1.275 -2.3902 -0.5141 -2.2295
 8435TIP3   OH249499   4.297   0.684   1.635 -0.2271 -0.3804  0.6556
 8435TIP3    H149500   4.252   0.764   1.660 -0.0473 -0.2747  0.6448
 8435TIP3    H249501   4.279   0.623   1.706 -1.4454 -0.7559  0.0447
 8436TIP3   OH249502   4.769   3.346   1.984  0.0491 -0.2173 -0.0151
 8436TIP3    H149503   4.724   3.388   2.058  2.3016  0.1449  1.2370
 8436TIP3    H249504   4.778   3.416   1.919 -0.2296 -0.0159  0.1589
 8437TIP3   OH249505   2.913   6.968   2.101 -0.4032 -0.2925  0.2257
 8437TIP3    H149506   2.972   6.921   2.043 -0.1747 -0.0168  0.2367
 8437TIP3    H249507   2.962   7.045   2.130 -0.9702  0.2509 -0.2254
 8438TIP3   OH249508   1.538   5.155   2.018  0.0909 -0.3313  0.1200
 8438TIP3    H149509   1.517   5.149   2.111  0.5846 -0.6441  0.2194
 8438TIP3    H249510   1.464   5.202   1.979  0.2686  0.5438  0.8046
 8439TIP3   OH249511   1.152   4.510   2.224  0.5849 -0.0850 -0.1513
 8439TIP3    H149512   1.227   4.451   2.213  0.7493 -0.0246  0.5865
 8439TIP3    H249513   1.081   4.466   2.179  0.7124 -0.8533  0.3712
 8440TIP3   OH249514   2.805   0.644   0.651 -0.1587  0.0238  0.2322
 8440TIP3    H149515   2.878   0.706   0.654  0.0633 -0.1625 -0.9780
 8440TIP3    H249516   2.730   0.697   0.625  0.0092 -0.1925 -0.7000
 8441TIP3   OH249517   3.054   6.776   1.941 -0.2862 -0.0362  0.1882
 8441TIP3    H149518   2.997   6.782   1.865  0.1991  0.2523 -0.1620
 8441TIP3    H249519   3.142   6.791   1.906 -0.2380  2.4371  1.1139
 8442TIP3   OH249520   6.248   0.933   1.764 -0.4757  0.2171  0.0923
 8442TIP3    H149521   6.226   0.981   1.683  2.4777  0.4392 -0.7011
 8442TIP3    H249522   6.343   0.920   1.759 -0.2973 -0.4361  3.2093
 8443TIP3   OH249523   3.384   5.600   1.186 -0.2970 -0.5667  0.2812
 8443TIP3    H149524   3.459   5.581   1.129 -1.7883 -0.8092 -1.7451
 8443TIP3    H249525   3.416   5.664   1.248  1.1538  0.6696 -1.6301
 8444TIP3   OH249526   4.131   3.390   3.127  0.2960 -0.4501  0.0896
 8444TIP3    H149527   4.140   3.480   3.156  0.4906  0.0102 -1.3122
 8444TIP3    H249528   4.036   3.377   3.118  0.2770 -0.3176  0.1024
 8445TIP3   OH249529   3.479   5.837   1.261  0.7984  0.5940  0.1622
 8445TIP3    H149530   3.472   5.931   1.278  0.1903  0.5012  0.4380
 8445TIP3    H249531   3.522   5.831   1.175  1.0184  1.1155  0.2352
 8446TIP3   OH249532   1.527   3.549   2.873  0.0600  0.7309 -0.2914
 8446TIP3    H149533   1.553   3.577   2.961 -0.7783 -1.9320  0.9116
 8446TIP3    H249534   1.602   3.500   2.840 -0.4465 -0.1820 -0.1114
 8447TIP3   OH249535   3.296   1.811   0.578  0.2069  0.4408 -0.2083
 8447TIP3    H149536   3.281   1.746   0.509 -1.7916  1.7366 -1.0760
 8447TIP3    H249537   3.289   1.761   0.660  1.1455 -0.8489 -0.8827
 8448TIP3   OH249538   5.488   6.631   3.039 -0.3669 -0.1816 -0.6918
 8448TIP3    H149539   5.533   6.626   3.123  0.1185  0.6782 -0.8787
 8448TIP3    H249540   5.449   6.719   3.038 -1.0204 -0.4694 -1.0452
 8449TIP3   OH249541   2.577   0.947   0.936  0.3328 -0.5285 -0.3019
 8449TIP3    H149542   2.616   0.978   1.018  1.9173 -1.0883 -0.8085
 8449TIP3    H249543   2.530   1.024   0.902 -1.4161 -0.6106  1.6673
 8450TIP3   OH249544   6.584   3.487   1.620 -0.2560 -0.5896  0.1372
 8450TIP3    H149545   6.502   3.464   1.576 -0.1349 -1.7826  0.4974
 8450TIP3    H249546   6.620   3.403   1.649  0.4230  0.0383  1.1761
 8451TIP3   OH249547   0.155   3.610   2.714  0.1718 -0.0430 -0.0684
 8451TIP3    H149548   0.142   3.705   2.713  1.1906  0.1118  0.3286
 8451TIP3    H249549   0.197   3.591   2.630  0.1730 -0.1219 -0.0498
 8452TIP3   OH249550   5.983   5.350   2.276 -0.0039  0.3112 -0.1724
 8452TIP3    H149551   5.946   5.364   2.190 -2.7734 -1.6429  0.5766
 8452TIP3    H249552   5.982   5.437   2.317 -1.1071  0.8106 -1.2051
 8453TIP3   OH249553   4.803   4.448   2.027 -0.1272  0.0324  0.6661
 8453TIP3    H149554   4.850   4.525   1.996  1.6009 -0.4100  2.0142
 8453TIP3    H249555   4.715   4.480   2.048  0.2026  1.3640  0.1099
 8454TIP3   OH249556   1.770   5.803   1.001 -0.0521 -0.2779  0.2621
 8454TIP3    H149557   1.837   5.739   1.023  0.3553  0.0037 -0.1485
 8454TIP3    H249558   1.774   5.868   1.072  0.2818 -0.1282  0.1081
 8455TIP3   OH249559   3.521   1.227   2.310 -0.2046  0.1556  0.1380
 8455TIP3    H149560   3.499   1.139   2.342  0.0008 -0.3468 -1.0536
 8455TIP3    H249561   3.440   1.258   2.269  0.0048  0.1146 -0.3116
 8456TIP3   OH249562   6.313   5.982   1.517 -0.0735  0.0767 -0.3637
 8456TIP3    H149563   6.357   6.067   1.524  0.7567 -0.3183 -0.6458
 8456TIP3    H249564   6.221   6.002   1.533  0.3710  0.7184  1.6889
 8457TIP3   OH249565   6.003   6.654   1.391 -0.4289 -0.6990  0.2178
 8457TIP3    H149566   6.080   6.700   1.358 -0.5996 -1.0046 -0.6401
 8457TIP3    H249567   5.994   6.683   1.482  0.8496 -0.8514  0.4159
 8458TIP3   OH249568   5.364   5.960   2.609 -0.5102  0.3080 -0.5631
 8458TIP3    H149569   5.290   6.014   2.582 -1.6266 -0.7538  0.3058
 8458TIP3    H249570   5.440   6.004   2.570 -1.6067  1.2099 -1.7982
 8459TIP3   OH249571   2.584   5.017   2.626 -0.0319  0.0618 -0.1167
 8459TIP3    H149572   2.522   4.993   2.694 -0.2039  0.3924 -0.1532
 8459TIP3    H249573   2.531   5.063   2.560  0.3081  0.6508  0.0134
 8460TIP3   OH249574   0.005   0.025   0.647  0.0417 -0.4881 -0.4941
 8460TIP3    H149575  -0.081   0.022   0.689 -0.1485  2.1685 -0.5617
 8460TIP3    H249576  -0.008   0.082   0.571  1.1666 -2.5319 -2.3313
 8461TIP3   OH249577   4.791   2.364   2.326 -0.2271  0.2628 -0.0723
 8461TIP3    H149578   4.789   2.303   2.253  1.3215 -1.8459  1.5179
 8461TIP3    H249579   4.877   2.406   2.321 -0.2313  0.3322  0.3507
 8462TIP3   OH249580   7.301   0.398   0.639  0.6406 -0.5351  0.3257
 8462TIP3    H149581   7.345   0.346   0.707  1.8348 -1.6449 -1.2262
 8462TIP3    H249582   7.215   0.358   0.630  0.1656  0.1156  1.6894
 8463TIP3   OH249583   4.350   3.937   3.239  0.2991  0.3710  0.5681
 8463TIP3    H149584   4.356   4.013   3.296 -0.7876  1.6261 -0.9026
 8463TIP3    H249585   4.261   3.940   3.205  1.1094  0.1009 -1.7237
 8464TIP3   OH249586   0.327   3.629   0.639 -0.4500  0.2932 -0.7832
 8464TIP3    H149587   0.306   3.537   0.656  0.5821 -0.2392 -2.2566
 8464TIP3    H249588   0.407   3.645   0.689 -1.5336  0.9327  0.8616
 8465TIP3   OH249589   5.442   0.930   1.552  0.5274  0.1986  0.0420
 8465TIP3    H149590   5.529   0.935   1.512  1.3367  0.3512  1.7527
 8465TIP3    H249591   5.454   0.878   1.631 -0.8625  0.5169  0.4943
 8466TIP3   OH249592   7.048   1.812   1.044 -0.2521  0.6550  0.4609
 8466TIP3    H149593   7.136   1.847   1.031 -0.3727  0.4588 -1.0899
 8466TIP3    H249594   7.013   1.861   1.118  1.2886  0.4622  1.3642
 8467TIP3   OH249595   3.145   7.538   3.165 -0.3629  0.0274  0.0337
 8467TIP3    H149596   3.194   7.515   3.086 -1.1847  0.1660 -0.5236
 8467TIP3    H249597   3.190   7.491   3.235 -0.1452 -0.7878 -0.6402
 8468TIP3   OH249598   2.394   2.602   3.057 -0.0882 -0.4764  0.0221
 8468TIP3    H149599   2.367   2.514   3.086  0.8833 -0.4593  1.0479
 8468TIP3    H249600   2.487   2.593   3.039  0.1262  0.4674  0.6377
 8469TIP3   OH249601   6.911   6.272   1.228 -0.1800 -0.1035 -0.2004
 8469TIP3    H149602   6.828   6.239   1.195 -0.7958  0.7624  0.4445
 8469TIP3    H249603   6.943   6.203   1.286 -1.6527  0.5343  1.4573
 8470TIP3   OH249604   0.339   7.288   1.675 -0.1453 -0.1299 -0.3756
 8470TIP3    H149605   0.261   7.294   1.620 -0.3714 -2.2799 -0.3826
 8470TIP3    H249606   0.405   7.247   1.619  1.3193  2.4005 -0.6296
 8471TIP3   OH249607   5.316   5.866   1.097  0.0787 -0.0417 -0.0305
 8471TIP3    H149608   5.261   5.793   1.070  0.4821 -0.2252 -0.3587
 8471TIP3    H249609   5.258   5.921   1.151 -0.2377 -0.5724  0.1775
 8472TIP3   OH249610   0.812   1.346   2.148  0.1453  0.4120  0.4706
 8472TIP3    H149611   0.878   1.311   2.208  1.0599  3.5285  1.5021
 8472TIP3    H249612   0.734   1.356   2.202 -0.4368 -0.8814 -0.0879
 8473TIP3   OH249613   7.252   3.546   0.564 -0.0909  0.1011 -0.3990
 8473TIP3    H149614   7.159   3.536   0.582  0.0992  0.7035  1.0466
 8473TIP3    H249615   7.262   3.519   0.472 -1.5140 -0.9287 -0.2868
 8474TIP3   OH249616   6.255   2.066   0.957  0.2352  0.0961 -0.7652
 8474TIP3    H149617   6.215   1.981   0.939  1.1308 -0.2317 -1.2754
 8474TIP3    H249618   6.310   2.052   1.034  3.4257 -0.8746 -2.9913
 8475TIP3   OH249619   7.243   5.735   0.988  0.1436 -0.2225  0.5919
 8475TIP3    H149620   7.206   5.649   0.967 -0.8766  0.2407  0.4393
 8475TIP3    H249621   7.317   5.744   0.928  0.1666 -0.9273  0.5067
 8476TIP3   OH249622   3.445   3.961   1.190  0.9189 -0.5170  0.2020
 8476TIP3    H149623   3.352   3.980   1.179  1.0951  0.9763  0.9730
 8476TIP3    H249624   3.448   3.871   1.221 -0.2675 -0.5974  0.1220
 8477TIP3   OH249625   5.460   0.125   2.809 -0.0630 -0.0647  0.1360
 8477TIP3    H149626   5.380   0.081   2.781  0.7316 -1.0936 -0.5857
 8477TIP3    H249627   5.435   0.217   2.818 -1.0664 -0.1859 -1.1182
 8478TIP3   OH249628   2.531   3.664   1.619  0.0194 -0.1538 -0.0138
 8478TIP3    H149629   2.448   3.712   1.613  0.6389  0.9819  0.3482
 8478TIP3    H249630   2.560   3.656   1.528 -0.8774 -1.3063 -0.2305
 8479TIP3   OH249631   3.768   6.729   2.337  0.3623 -0.0102  0.4227
 8479TIP3    H149632   3.852   6.766   2.363  0.5952 -0.6491  0.6060
 8479TIP3    H249633   3.742   6.778   2.259 -0.1341  1.6603  1.5860
 8480TIP3   OH249634   2.447   7.439   2.461  0.2043 -0.3549  0.0758
 8480TIP3    H149635   2.433   7.412   2.552 -3.2093 -0.9567 -0.4905
 8480TIP3    H249636   2.381   7.506   2.445  0.9698  0.0085 -1.8866
 8481TIP3   OH249637   5.315   6.870   2.244 -0.2468 -0.2419  0.2879
 8481TIP3    H149638   5.360   6.787   2.229  0.8495  0.5394 -0.9193
 8481TIP3    H249639   5.342   6.926   2.171 -2.6755  0.4933 -0.1663
 8482TIP3   OH249640   7.287   3.784   0.686 -0.6281 -0.1111 -0.9129
 8482TIP3    H149641   7.278   3.706   0.632  0.1014 -0.7906 -0.0799
 8482TIP3    H249642   7.338   3.845   0.633  0.0968 -0.7792 -0.9851
 8483TIP3   OH249643   7.496   1.864   1.919  0.1525 -0.0417 -0.1922
 8483TIP3    H149644   7.521   1.889   2.008  0.3431 -0.8091 -0.0269
 8483TIP3    H249645   7.409   1.826   1.928  0.5510 -0.9716 -0.1907
 8484TIP3   OH249646   2.749   4.234   2.519  0.5502  0.1819 -0.1325
 8484TIP3    H149647   2.789   4.230   2.605 -0.0549 -0.5768  0.1253
 8484TIP3    H249648   2.764   4.323   2.489  1.2697  0.2780  0.5117
 8485TIP3   OH249649   3.613   5.894   1.521  0.3859  0.5683  0.5984
 8485TIP3    H149650   3.578   5.950   1.590 -1.2666  0.7007 -0.2780
 8485TIP3    H249651   3.616   5.950   1.443  2.0257  0.3673  0.4893
 8486TIP3   OH249652   0.849   0.714   0.832  0.1142 -0.1893 -0.5926
 8486TIP3    H149653   0.766   0.722   0.785  0.3279  0.7571 -0.8179
 8486TIP3    H249654   0.825   0.723   0.924  0.1619  1.8239 -0.7460
 8487TIP3   OH249655   7.444   2.997   0.461 -0.0028 -0.5501  1.1047
 8487TIP3    H149656   7.509   2.937   0.423 -0.5615 -0.3019 -0.2951
 8487TIP3    H249657   7.483   3.084   0.450 -0.4459 -0.4215  0.4830
 8488TIP3   OH249658   4.781   1.130   3.589  0.2958 -0.6296 -0.3135
 8488TIP3    H149659   4.868   1.142   3.551  0.2803 -1.2060 -0.5477
 8488TIP3    H249660   4.739   1.215   3.581  1.0095 -0.2215  0.2460
 8489TIP3   OH249661   6.434   4.207   1.415  0.6064  0.0338 -0.2774
 8489TIP3    H149662   6.345   4.175   1.397  0.8813 -0.0254 -1.6410
 8489TIP3    H249663   6.484   4.129   1.436  0.4703 -0.0030 -0.0886
 8490TIP3   OH249664   2.935   5.283   3.202  0.4252 -0.4443 -0.0623
 8490TIP3    H149665   2.940   5.194   3.167  2.9811  0.3361 -2.0126
 8490TIP3    H249666   3.026   5.311   3.210 -0.2461  1.5418  1.8885
 8491TIP3   OH249667   4.839   6.832   1.077 -0.0684 -0.3006 -0.4351
 8491TIP3    H149668   4.861   6.741   1.096 -1.4350 -0.2815  1.5365
 8491TIP3    H249669   4.852   6.878   1.160 -1.1896  0.9268 -0.8948
 8492TIP3   OH249670   4.104   5.902   2.693  0.6119  0.1888  0.0425
 8492TIP3    H149671   4.115   5.961   2.619 -0.1570  0.2482 -0.0327
 8492TIP3    H249672   4.045   5.948   2.752 -3.9877 -2.2809 -2.1051
 8493TIP3   OH249673   4.772   4.775   1.910 -0.0329  0.1046 -0.2248
 8493TIP3    H149674   4.740   4.716   1.841 -0.1273 -1.0371  0.7634
 8493TIP3    H249675   4.805   4.851   1.863  0.4852 -0.9163 -1.5800
 8494TIP3   OH249676   3.861   2.405   3.162  0.2690 -0.2134 -0.4065
 8494TIP3    H149677   3.786   2.413   3.221  0.6462  0.1144  0.0460
 8494TIP3    H249678   3.923   2.349   3.210  1.1604  1.1913  0.1515
 8495TIP3   OH249679   7.319   3.817   2.530  0.2755  0.4286 -0.7581
 8495TIP3    H149680   7.311   3.726   2.557 -1.6103  1.0245  0.9792
 8495TIP3    H249681   7.309   3.815   2.435 -0.3902 -1.1341 -0.6925
 8496TIP3   OH249682   4.033   4.927   1.528  0.2209 -0.4944  0.3540
 8496TIP3    H149683   4.102   4.905   1.465  1.0718  0.9977  0.6941
 8496TIP3    H249684   3.953   4.891   1.491  0.5656  0.9000 -1.9667
 8497TIP3   OH249685   5.515   0.622   2.770 -0.0057 -0.0297 -0.1891
 8497TIP3    H149686   5.508   0.681   2.695 -1.4759 -0.8125 -0.7021
 8497TIP3    H249687   5.551   0.541   2.735  1.7127  0.4187  0.4553
 8498TIP3   OH249688   2.183   5.784   1.669  0.1717  0.7364  0.1319
 8498TIP3    H149689   2.232   5.708   1.636  0.6426  1.6288 -1.3132
 8498TIP3    H249690   2.235   5.815   1.743 -0.8411 -1.2420  1.7866
 8499TIP3   OH249691   4.543   1.176   0.961 -0.0365 -0.0253 -0.1266
 8499TIP3    H149692   4.616   1.220   0.918  2.5618 -1.6201  2.3149
 8499TIP3    H249693   4.477   1.167   0.892  2.4579  0.5677 -2.7943
 8500TIP3   OH249694   0.568   3.793   3.529  0.4872 -0.6500  0.1440
 8500TIP3    H149695   0.623   3.849   3.584 -0.8157  1.3927 -0.5318
 8500TIP3    H249696   0.499   3.763   3.588 -0.3346  0.7039 -0.1067
 8501TIP3   OH249697   7.060   2.424   3.208 -0.5035  0.0910 -0.3159
 8501TIP3    H149698   7.137   2.466   3.247 -0.6361 -1.5988  1.9831
 8501TIP3    H249699   6.989   2.487   3.221 -0.2062  0.2164  0.7465
 8502TIP3   OH249700   6.757   6.497   3.207 -0.2808 -0.1944 -0.8475
 8502TIP3    H149701   6.663   6.492   3.186 -0.6078 -0.1540  0.5336
 8502TIP3    H249702   6.768   6.441   3.283  0.7456  0.1458 -0.7339
 8503TIP3   OH249703   0.499   6.294   0.837  0.3045  0.0391 -0.6606
 8503TIP3    H149704   0.562   6.363   0.855 -1.4935  1.2298  1.7492
 8503TIP3    H249705   0.428   6.338   0.790 -0.5434 -0.2721  0.2801
 8504TIP3   OH249706   6.275   6.165   2.260  0.5911 -0.1668  0.4144
 8504TIP3    H149707   6.279   6.232   2.328  0.2960 -0.0901  0.3602
 8504TIP3    H249708   6.261   6.083   2.307 -2.0635  0.1702  0.3517
 8505TIP3   OH249709   7.440   5.741   1.965 -0.1831  0.9934 -0.0575
 8505TIP3    H149710   7.499   5.707   1.898  0.3157  1.6266  0.0550
 8505TIP3    H249711   7.398   5.663   2.001  0.1089  0.5859 -0.5751
 8506TIP3   OH249712   6.432   6.632   1.296  0.2018  0.0425  0.0671
 8506TIP3    H149713   6.359   6.689   1.275 -0.3804 -0.3475  0.9935
 8506TIP3    H249714   6.509   6.679   1.265 -0.3786  0.7471 -0.3243
 8507TIP3   OH249715   6.574   3.555   0.699 -0.8974 -0.1648 -0.0602
 8507TIP3    H149716   6.609   3.501   0.629 -1.0340  0.1868 -0.4075
 8507TIP3    H249717   6.536   3.493   0.761 -2.0944 -0.4327 -1.0131
 8508TIP3   OH249718   3.326   0.912   1.731  0.1792 -0.5480  0.0537
 8508TIP3    H149719   3.242   0.908   1.776 -0.4825 -0.2932 -1.1260
 8508TIP3    H249720   3.311   0.868   1.647  1.1357 -0.2356 -0.2976
 8509TIP3   OH249721   6.136   2.723   1.582 -0.2288 -0.0613  0.3840
 8509TIP3    H149722   6.214   2.672   1.558  0.7826  1.0556  1.1729
 8509TIP3    H249723   6.137   2.797   1.521 -0.6126  0.0232  0.4830
 8510TIP3   OH249724   2.432   3.262   1.561 -0.2973 -0.0047 -0.1310
 8510TIP3    H149725   2.341   3.250   1.585 -1.2573  2.7709 -1.8916
 8510TIP3    H249726   2.478   3.272   1.645 -1.3481 -2.4759  0.8122
 8511TIP3   OH249727   6.755   6.432   2.568 -0.4200 -0.4084  0.1518
 8511TIP3    H149728   6.751   6.421   2.663  1.8301  0.4300  0.3975
 8511TIP3    H249729   6.741   6.344   2.533 -0.9192 -0.7875  1.2484
 8512TIP3   OH249730   1.540   5.212   1.213  0.2561 -0.9033  0.1182
 8512TIP3    H149731   1.533   5.229   1.307 -0.9165 -1.7852  0.2206
 8512TIP3    H249732   1.619   5.159   1.204  1.7482  1.1587  0.2647
 8513TIP3   OH249733   4.793   1.651   2.096  0.9282  0.4297  0.4427
 8513TIP3    H149734   4.754   1.698   2.170 -1.5810  0.4667 -0.7895
 8513TIP3    H249735   4.765   1.560   2.107  0.0867  0.5241 -0.6607
 8514TIP3   OH249736   1.836   0.921   2.107 -0.3406 -0.8392 -0.6807
 8514TIP3    H149737   1.821   0.963   2.192 -1.4753 -1.8124 -0.3547
 8514TIP3    H249738   1.774   0.963   2.048  0.1633 -0.4455 -0.9327
 8515TIP3   OH249739   0.575   3.538   1.629 -0.1366  0.1812  0.6254
 8515TIP3    H149740   0.644   3.478   1.656  0.1267 -1.4162 -3.0118
 8515TIP3    H249741   0.621   3.612   1.589 -0.4986  2.5736  4.1517
 8516TIP3   OH249742   5.068   4.554   2.231 -0.1178  0.2102 -0.5447
 8516TIP3    H149743   4.982   4.514   2.247  0.3886 -1.2944 -1.3975
 8516TIP3    H249744   5.047   4.640   2.194 -1.2925 -0.5976 -1.8689
 8517TIP3   OH249745   6.119   7.303   0.697 -0.0948  0.4057 -0.4231
 8517TIP3    H149746   6.164   7.296   0.613 -1.1255  0.0858 -0.9583
 8517TIP3    H249747   6.060   7.378   0.687 -2.4838 -1.4495 -1.1089
 8518TIP3   OH249748   6.813   7.186   2.221 -0.3320  0.1568  0.2314
 8518TIP3    H149749   6.809   7.250   2.150 -1.7345  0.0206  0.1455
 8518TIP3    H249750   6.814   7.239   2.301  0.2042  0.2953  0.1382
 8519TIP3   OH249751   2.092   3.473   2.784  0.1527  0.4681  0.2525
 8519TIP3    H149752   2.024   3.474   2.717 -1.9728  1.6547  2.2918
 8519TIP3    H249753   2.107   3.380   2.801 -2.4759  0.1255  1.1156
 8520TIP3   OH249754   3.005   5.152   2.072  0.2454  0.3708 -0.1606
 8520TIP3    H149755   3.030   5.220   2.134 -1.9110  0.5713  0.5626
 8520TIP3    H249756   2.986   5.199   1.991  1.3266  0.2991 -0.4764
 8521TIP3   OH249757   2.534   2.149   3.204  0.7323 -0.1229 -0.3208
 8521TIP3    H149758   2.626   2.126   3.216  0.6588 -1.7020 -2.2956
 8521TIP3    H249759   2.488   2.065   3.200 -0.6338  0.6009 -0.4736
 8522TIP3   OH249760   6.784   1.816   2.667 -0.0692  0.2706 -0.0068
 8522TIP3    H149761   6.709   1.773   2.710  1.2058 -2.0746  0.0019
 8522TIP3    H249762   6.825   1.867   2.737 -0.2227 -0.4440  0.6142
 8523TIP3   OH249763   6.386   2.384   3.167 -0.2436 -0.0253  0.0976
 8523TIP3    H149764   6.318   2.432   3.119 -0.8320  0.1473  1.0620
 8523TIP3    H249765   6.450   2.451   3.192  1.9253 -0.5776 -3.3245
 8524TIP3   OH249766   3.680   5.983   2.991  0.5263  0.3502  0.1030
 8524TIP3    H149767   3.739   6.046   3.032 -1.3869  1.4721  1.2780
 8524TIP3    H249768   3.681   6.005   2.898  1.6634  0.5682  0.1588
 8525TIP3   OH249769   0.859   2.931   1.492 -0.6044 -0.3249  0.6116
 8525TIP3    H149770   0.888   2.842   1.472  0.2368  0.3469 -1.4631
 8525TIP3    H249771   0.939   2.980   1.511 -0.3650  1.0599 -3.1351
 8526TIP3   OH249772   5.436   0.669   1.102 -0.1798  0.1934 -0.6820
 8526TIP3    H149773   5.458   0.653   1.011  0.7995 -0.0075 -0.4239
 8526TIP3    H249774   5.409   0.761   1.105  1.7092  0.7998 -0.8578
 8527TIP3   OH249775   4.741   1.173   2.644 -0.1273 -0.2998 -0.4670
 8527TIP3    H149776   4.829   1.207   2.627 -0.6836  0.6168 -1.6739
 8527TIP3    H249777   4.714   1.215   2.726  0.9228 -1.3721  0.4601
 8528TIP3   OH249778   3.257   3.596   1.793  0.2332 -0.4790 -0.1637
 8528TIP3    H149779   3.220   3.614   1.707 -0.9175 -0.0085  0.4025
 8528TIP3    H249780   3.243   3.677   1.842 -0.2790 -1.1527  0.8397
 8529TIP3   OH249781   6.273   1.615   2.091 -0.2288 -0.1674  0.1848
 8529TIP3    H149782   6.273   1.530   2.047 -0.1353 -0.2988  0.4348
 8529TIP3    H249783   6.279   1.594   2.184 -0.8834  0.0903  0.2979
 8530TIP3   OH249784   4.417   3.608   0.929 -0.2754 -0.1592 -0.0740
 8530TIP3    H149785   4.497   3.582   0.884 -0.9760 -1.0979 -0.8084
 8530TIP3    H249786   4.358   3.533   0.919 -2.1986  1.4629 -1.8392
 8531TIP3   OH249787   3.582   7.248   2.156  0.1949  0.1580 -0.0114
 8531TIP3    H149788   3.655   7.190   2.177  0.5881  0.5189 -0.3668
 8531TIP3    H249789   3.521   7.236   2.229  1.3692  1.1226  1.1814
 8532TIP3   OH249790   4.748   4.299   1.642 -0.4708  0.9385 -0.3730
 8532TIP3    H149791   4.657   4.271   1.644 -0.9888  2.3085 -2.1655
 8532TIP3    H249792   4.789   4.241   1.577 -0.0209  0.3088  0.4455
 8533TIP3   OH249793   7.484   1.989   1.189  0.0251 -0.3754 -0.2887
 8533TIP3    H149794   7.488   2.082   1.168 -0.5711 -0.7025 -2.0228
 8533TIP3    H249795   7.574   1.966   1.214  0.0527  0.7623  0.7309
 8534TIP3   OH249796   3.244   3.019   1.470  0.0644  0.5115 -0.0310
 8534TIP3    H149797   3.278   3.104   1.495  1.2273  0.1850 -0.4587
 8534TIP3    H249798   3.239   3.022   1.375 -0.6005  0.3568 -0.0068
 8535TIP3   OH249799   2.622   7.012   1.672  0.0018 -0.4549  0.0368
 8535TIP3    H149800   2.637   6.927   1.714  0.2348  0.6846  2.4212
 8535TIP3    H249801   2.699   7.063   1.694 -0.2135  0.4537 -1.2323
 8536TIP3   OH249802   7.441   1.565   3.089  0.1162  0.2428  0.0253
 8536TIP3    H149803   7.497   1.635   3.057  0.4458  0.7850  1.7068
 8536TIP3    H249804   7.424   1.587   3.180 -1.3918 -0.8489  0.0536
 8537TIP3   OH249805   4.166   2.422   1.071 -0.3132 -0.3203  0.4033
 8537TIP3    H149806   4.103   2.387   1.134  0.5843  0.8091  1.9698
 8537TIP3    H249807   4.124   2.500   1.035 -0.8296 -0.9708 -0.4505
 8538TIP3   OH249808   6.195   6.579   2.724 -0.1049  0.2595  0.0344
 8538TIP3    H149809   6.282   6.549   2.697  0.6130  0.6033  1.8249
 8538TIP3    H249810   6.168   6.517   2.791  0.9364  2.7673  3.0312
 8539TIP3   OH249811   5.758   3.014   1.628  0.3825 -0.4179 -0.1188
 8539TIP3    H149812   5.842   3.036   1.588 -0.1446  0.8011 -0.5949
 8539TIP3    H249813   5.731   2.933   1.585  1.1371 -0.6179 -0.2209
 8540TIP3   OH249814   5.379   4.548   2.345  0.0093  0.4425 -0.0084
 8540TIP3    H149815   5.343   4.632   2.374 -0.0235  0.3408  0.2440
 8540TIP3    H249816   5.453   4.572   2.290 -0.1882  0.6459 -0.1916
 8541TIP3   OH249817   5.552   3.353   2.052 -0.0215 -0.5037 -0.0958
 8541TIP3    H149818   5.570   3.289   1.983  0.4811  2.1576 -2.6301
 8541TIP3    H249819   5.463   3.382   2.035  0.6692  1.3807 -0.7810
 8542TIP3   OH249820   6.712   6.113   3.459  0.2718  0.0843  0.4573
 8542TIP3    H149821   6.700   6.207   3.471  0.4883  0.2369 -0.4246
 8542TIP3    H249822   6.624   6.080   3.438  0.2715  0.1576  0.3437
 8543TIP3   OH249823   6.603   0.761   1.102  0.3623  0.1582 -0.5792
 8543TIP3    H149824   6.649   0.845   1.102  2.3179 -0.8396 -1.7102
 8543TIP3    H249825   6.658   0.704   1.048 -2.9908 -0.7031 -3.4446
 8544TIP3   OH249826   5.784   2.506   1.135 -0.3283 -0.1018 -0.1659
 8544TIP3    H149827   5.749   2.417   1.140 -1.0324  0.0749 -1.4954
 8544TIP3    H249828   5.728   2.550   1.070  0.3880  1.1293  0.0263
 8545TIP3   OH249829   6.642   5.446   1.534  0.3148 -0.2065  0.3264
 8545TIP3    H149830   6.687   5.364   1.513 -1.1450 -0.8619 -0.4011
 8545TIP3    H249831   6.611   5.478   1.450  1.3794  1.4432  0.5246
 8546TIP3   OH249832   0.249   0.337   1.206 -0.0883 -0.0117 -0.2332
 8546TIP3    H149833   0.251   0.330   1.301  1.5510  1.0685 -0.1515
 8546TIP3    H249834   0.280   0.253   1.174 -1.6824 -0.7782  0.1203
 8547TIP3   OH249835   6.183   1.014   2.597  0.2795  0.0218  0.1614
 8547TIP3    H149836   6.175   0.919   2.610 -0.6652 -0.1852 -1.5800
 8547TIP3    H249837   6.101   1.039   2.554  0.1247  1.8118  1.3662
 8548TIP3   OH249838   1.318   3.249   1.998 -0.1703 -0.2488  0.4220
 8548TIP3    H149839   1.331   3.343   1.983  0.0414 -0.2764  0.4362
 8548TIP3    H249840   1.251   3.224   1.935  0.4072 -0.2777 -0.1817
 8549TIP3   OH249841   6.923   5.993   1.731 -0.0511 -0.1164  0.1376
 8549TIP3    H149842   6.979   5.993   1.809  0.4822 -2.6212 -0.1675
 8549TIP3    H249843   6.842   6.034   1.761  0.0524 -1.1981  2.1424
 8550TIP3   OH249844   3.879   0.637   8.707  0.1367  0.6075 -0.2812
 8550TIP3    H149845   3.854   0.676   8.623 -1.3149  0.6686  0.1597
 8550TIP3    H249846   3.932   0.704   8.750 -0.3822  1.1789 -0.5192
 8551TIP3   OH249847   0.088   3.865   2.408  0.5416 -0.4889  0.5643
 8551TIP3    H149848   0.026   3.793   2.422 -1.5910  0.9860 -0.6523
 8551TIP3    H249849   0.134   3.841   2.328 -0.1531 -0.5356  0.1679
 8552TIP3   OH249850   5.902   1.678   1.946 -0.5357 -0.5320  1.0699
 8552TIP3    H149851   5.970   1.746   1.952 -1.8502  0.9840 -0.3070
 8552TIP3    H249852   5.915   1.624   2.024  1.2416  0.6506  1.6512
 8553TIP3   OH249853   0.361   2.940   0.545  0.4968 -0.6280 -0.4453
 8553TIP3    H149854   0.389   3.027   0.574 -2.4233 -0.0707  1.1299
 8553TIP3    H249855   0.438   2.903   0.501  2.6694  1.7077  1.0929
 8554TIP3   OH249856   5.787   5.707   1.567 -0.3580  0.3807  0.0961
 8554TIP3    H149857   5.726   5.698   1.640 -1.4482 -2.8902 -1.0478
 8554TIP3    H249858   5.731   5.708   1.489  0.8974  0.8105 -0.8314
 8555TIP3   OH249859   0.663   3.415   3.559  0.3417 -0.2728 -0.4261
 8555TIP3    H149860   0.638   3.352   3.627 -0.6904  0.1601 -0.3794
 8555TIP3    H249861   0.700   3.489   3.607  0.8640 -0.5278 -0.4314
 8556TIP3   OH249862   6.193   3.887   0.560  0.3170 -0.5962 -0.0906
 8556TIP3    H149863   6.184   3.795   0.583 -0.1012 -0.2906  1.0519
 8556TIP3    H249864   6.286   3.906   0.572  0.0306 -0.3178  1.9550
 8557TIP3   OH249865   2.761   2.973   3.581  0.2635  0.5296  0.3824
 8557TIP3    H149866   2.716   2.890   3.594 -0.3891  0.5744 -1.3314
 8557TIP3    H249867   2.692   3.039   3.587  0.1132  0.6418 -1.6895
 8558TIP3   OH249868   3.678   2.513   1.502 -0.1964 -0.2553  0.1277
 8558TIP3    H149869   3.652   2.438   1.555  1.5164 -1.0145 -0.0481
 8558TIP3    H249870   3.766   2.535   1.533 -1.4977  3.2032  1.8026
 8559TIP3   OH249871   0.900   3.540   2.650 -0.4576 -0.3444 -0.1347
 8559TIP3    H149872   0.981   3.522   2.603 -0.5048  1.2747 -0.8980
 8559TIP3    H249873   0.876   3.456   2.689  2.4943 -0.5608  1.5927
 8560TIP3   OH249874   0.102   7.367   2.660 -0.2182  0.4765  0.1286
 8560TIP3    H149875   0.057   7.299   2.709 -1.8176  1.1368 -0.3687
 8560TIP3    H249876   0.088   7.447   2.711 -1.3142  1.0437 -1.0016
 8561TIP3   OH249877   7.512   5.446   1.096  0.0859  0.4942  0.1151
 8561TIP3    H149878   7.421   5.433   1.070  0.7318 -0.1649 -2.0234
 8561TIP3    H249879   7.524   5.387   1.171 -0.9168 -0.3604 -0.3688
 8562TIP3   OH249880   0.218   2.377   9.148 -0.2416  0.2132  0.1164
 8562TIP3    H149881   0.236   2.317   9.221  0.6828 -0.8485 -0.9324
 8562TIP3    H249882   0.150   2.332   9.096  0.6124 -0.0668 -0.7979
 8563TIP3   OH249883   3.594   1.858   1.993 -0.8927  0.0972 -0.2629
 8563TIP3    H149884   3.544   1.883   2.071  0.5338  0.6175  0.5168
 8563TIP3    H249885   3.608   1.940   1.946  0.0407  0.1116  0.0254
 8564TIP3   OH249886   5.303   6.781   3.293  0.5683 -0.0636 -0.1621
 8564TIP3    H149887   5.275   6.690   3.305 -1.5439  0.6697  0.8516
 8564TIP3    H249888   5.265   6.807   3.209  0.5958  0.1093 -0.1219
 8565TIP3   OH249889   2.179   3.214   1.665  0.0586 -0.5054 -0.0738
 8565TIP3    H149890   2.144   3.226   1.753  0.8963 -1.3993  0.4031
 8565TIP3    H249891   2.174   3.120   1.649 -2.6513 -0.1436 -2.1171
 8566TIP3   OH249892   6.703   3.596   2.348 -0.1551  0.2182  0.0616
 8566TIP3    H149893   6.747   3.616   2.265 -0.7447  0.3910 -0.2143
 8566TIP3    H249894   6.739   3.660   2.410  0.8851 -0.4309  0.1450
 8567TIP3   OH249895   2.297   5.526   2.369  0.5650 -0.1218  0.6020
 8567TIP3    H149896   2.208   5.490   2.368  0.0139  1.1928 -0.5780
 8567TIP3    H249897   2.334   5.503   2.284  0.7524  0.7317  0.4391
 8568TIP3   OH249898   2.910   0.744   1.490  0.0908  0.2629 -0.1623
 8568TIP3    H149899   2.887   0.680   1.423 -0.0869  1.1308 -0.9600
 8568TIP3    H249900   2.839   0.739   1.554 -0.1505 -0.0209 -0.4478
 8569TIP3   OH249901   2.828   2.940   1.629  0.2342  0.2228 -0.2293
 8569TIP3    H149902   2.874   2.879   1.687 -0.0852  1.3044  1.2332
 8569TIP3    H249903   2.741   2.949   1.668  0.1329  1.2715 -0.6576
 8570TIP3   OH249904   0.243   4.376   2.323 -0.2191  0.2033 -0.0276
 8570TIP3    H149905   0.297   4.453   2.339 -1.4176  0.7257  1.8951
 8570TIP3    H249906   0.154   4.410   2.315 -0.7848 -0.9406  0.9217
 8571TIP3   OH249907   0.717   4.458   1.849  0.0120  0.1778 -0.7162
 8571TIP3    H149908   0.767   4.510   1.786  0.6290 -1.2222 -1.3992
 8571TIP3    H249909   0.646   4.419   1.798 -1.7074  1.9179  0.1822
 8572TIP3   OH249910   3.889   3.532   1.672 -0.2368 -0.0255  0.5409
 8572TIP3    H149911   3.933   3.605   1.628  1.6152 -2.2618 -1.7015
 8572TIP3    H249912   3.934   3.523   1.755  0.7066  0.3454  0.0859
 8573TIP3   OH249913   1.408   6.042   1.744  0.1649  0.3758 -0.1404
 8573TIP3    H149914   1.334   5.996   1.783 -0.3520  1.1184 -0.2256
 8573TIP3    H249915   1.474   5.974   1.731 -0.5438 -0.3200 -0.1769
 8574TIP3   OH249916   3.717   7.590   1.779 -0.1063  0.2575 -0.3764
 8574TIP3    H149917   3.750   7.619   1.694  0.8834  0.1903 -0.0358
 8574TIP3    H249918   3.796   7.578   1.832 -0.6833 -0.1020  0.4239
 8575TIP3   OH249919   3.049   1.103   2.537 -0.3816 -0.1852 -0.1074
 8575TIP3    H149920   3.015   1.120   2.624 -0.2095  0.7003 -0.2035
 8575TIP3    H249921   2.980   1.053   2.494 -0.1725 -1.2495  0.7532
 8576TIP3   OH249922   2.372   4.695   0.502 -0.5261  0.6849  0.2999
 8576TIP3    H149923   2.319   4.663   0.429 -2.0456 -0.0399  1.6406
 8576TIP3    H249924   2.450   4.639   0.502 -1.1258 -0.1711 -0.0072
 8577TIP3   OH249925   0.500   0.307   1.636  0.0865 -0.7410 -0.0421
 8577TIP3    H149926   0.533   0.377   1.580 -0.9171 -0.7607 -0.6777
 8577TIP3    H249927   0.578   0.267   1.674  0.7276 -0.1022 -0.6798
 8578TIP3   OH249928   1.584   4.886   2.764  0.3071 -0.2503 -0.1452
 8578TIP3    H149929   1.545   4.857   2.682 -0.3796  0.0086  0.0806
 8578TIP3    H249930   1.568   4.813   2.825 -1.9144  0.7483  0.5751
 8579TIP3   OH249931   3.612   4.144   1.330  0.5415 -0.3793 -0.4110
 8579TIP3    H149932   3.694   4.155   1.282 -0.0221  0.7198 -1.1685
 8579TIP3    H249933   3.570   4.068   1.290 -0.1288  0.7854 -2.0223
 8580TIP3   OH249934   0.793   3.638   2.404 -0.1915  0.4123 -0.3698
 8580TIP3    H149935   0.712   3.675   2.440 -0.5188 -0.1691 -0.4943
 8580TIP3    H249936   0.842   3.610   2.481 -0.2119  0.5508 -0.3056
 8581TIP3   OH249937   0.176   7.335   1.884  0.5155 -0.0971 -0.3914
 8581TIP3    H149938   0.239   7.326   1.812  0.3494  0.7614 -0.6663
 8581TIP3    H249939   0.130   7.252   1.887  1.2755 -0.5372 -0.5568
 8582TIP3   OH249940   3.195   4.382   0.727 -0.0039  0.7646 -0.0860
 8582TIP3    H149941   3.149   4.363   0.809  1.7981  0.1970  0.8477
 8582TIP3    H249942   3.198   4.298   0.681  0.8995  0.5772  0.2982
 8583TIP3   OH249943   4.853   6.295   1.422 -0.4317 -0.2819 -0.2033
 8583TIP3    H149944   4.904   6.344   1.487  1.4174 -0.4109 -1.4576
 8583TIP3    H249945   4.763   6.302   1.451  0.2048  0.7180  1.6737
 8584TIP3   OH249946   3.364   3.848   2.105 -0.0836 -0.2784 -0.5847
 8584TIP3    H149947   3.454   3.845   2.072 -0.6506 -0.4358 -2.1800
 8584TIP3    H249948   3.310   3.864   2.028 -1.4812 -0.6421  0.2793
 8585TIP3   OH249949   6.180   1.327   1.763 -0.7282  0.1860 -0.5642
 8585TIP3    H149950   6.240   1.394   1.797 -2.2129  0.2289  2.3125
 8585TIP3    H249951   6.095   1.371   1.760 -1.0062 -0.3769 -2.8668
 8586TIP3   OH249952   0.882   4.278   3.493 -0.0326  0.1216  0.5709
 8586TIP3    H149953   0.850   4.258   3.405 -2.4441  0.0672  1.4064
 8586TIP3    H249954   0.837   4.358   3.518  2.0377  1.2075  1.0980
 8587TIP3   OH249955   4.008   0.983   1.477  0.4419  0.2950  0.3636
 8587TIP3    H149956   3.952   0.988   1.554 -0.5007 -0.8057 -0.2070
 8587TIP3    H249957   4.095   1.008   1.508  0.0509  0.0182  1.7333
 8588TIP3   OH249958   6.493   1.804   0.485  0.1597  0.1085  0.0719
 8588TIP3    H149959   6.550   1.804   0.562 -0.1455 -0.7840  0.3061
 8588TIP3    H249960   6.543   1.757   0.419 -1.5268 -3.7074  1.2586
 8589TIP3   OH249961   0.768   2.951   3.196  0.0392  0.0322  0.3961
 8589TIP3    H149962   0.690   2.916   3.155  0.9067 -0.3401 -1.0015
 8589TIP3    H249963   0.818   2.873   3.222  0.5102  0.2493  0.1524
 8590TIP3   OH249964   5.547   6.262   2.257 -0.3362 -0.1768 -0.1895
 8590TIP3    H149965   5.603   6.204   2.308 -0.2553 -0.1047 -0.1970
 8590TIP3    H249966   5.564   6.239   2.166 -0.0896  0.0568 -0.2040
 8591TIP3   OH249967   5.575   1.092   1.155 -0.0761  0.2848 -0.3845
 8591TIP3    H149968   5.496   1.147   1.155 -0.2417  0.0537 -0.8345
 8591TIP3    H249969   5.566   1.038   1.076 -0.5343 -1.2912  0.7103
 8592TIP3   OH249970   6.104   5.678   1.850 -0.5177  0.0358 -0.4344
 8592TIP3    H149971   6.135   5.610   1.910  1.2700 -0.0689 -1.4218
 8592TIP3    H249972   6.179   5.738   1.842 -1.3968  1.0748 -1.0913
 8593TIP3   OH249973   0.710   5.926   1.931  0.7298 -0.3416  0.4156
 8593TIP3    H149974   0.734   5.992   1.995  1.7860 -0.5547  0.2530
 8593TIP3    H249975   0.746   5.844   1.966 -1.5823 -1.0914  1.2272
 8594TIP3   OH249976   7.021   0.841   0.627  0.5899  0.0642  0.4884
 8594TIP3    H149977   6.940   0.792   0.614  0.9513 -0.1918 -0.9667
 8594TIP3    H249978   7.083   0.775   0.660  0.3717  0.1326  1.0442
 8595TIP3   OH249979   7.590   6.909   1.142 -0.3734 -0.0561 -0.1176
 8595TIP3    H149980   7.610   6.870   1.057 -0.7752 -0.4736 -0.0266
 8595TIP3    H249981   7.603   6.837   1.205 -0.0691  0.2513  0.1767
 8596TIP3   OH249982   5.229   4.532   1.213 -0.4721  0.0137 -0.4348
 8596TIP3    H149983   5.167   4.485   1.157 -2.4126  1.5268  0.3274
 8596TIP3    H249984   5.236   4.619   1.174  1.1491 -0.1017 -0.4577
 8597TIP3   OH249985   5.407   5.549   1.235  0.2568  0.0625  0.0695
 8597TIP3    H149986   5.324   5.579   1.199  1.6254  1.9261 -1.7900
 8597TIP3    H249987   5.399   5.563   1.329 -2.2310 -1.7993  0.2556
 8598TIP3   OH249988   3.458   0.895   2.300 -0.1870 -0.5447  0.3952
 8598TIP3    H149989   3.438   0.958   2.370 -0.1352 -0.2243  0.1273
 8598TIP3    H249990   3.385   0.834   2.300 -0.4298 -0.2543  0.4043
 8599TIP3   OH249991   3.640   3.250   0.488 -0.5029  0.2728 -0.0299
 8599TIP3    H149992   3.700   3.321   0.464 -1.2448  1.2742  0.9477
 8599TIP3    H249993   3.555   3.293   0.499 -1.3955 -1.0891 -1.2276
 8600TIP3   OH249994   1.197   2.204   2.137 -0.0733 -0.2228 -0.1845
 8600TIP3    H149995   1.272   2.205   2.196  0.3689 -0.6263 -0.7289
 8600TIP3    H249996   1.158   2.116   2.148  0.7132 -0.7470 -1.3388
 8601TIP3   OH249997   4.159   7.281   1.103 -0.7036  0.1446  0.2001
 8601TIP3    H149998   4.097   7.315   1.038 -0.7902 -1.2819 -0.5107
 8601TIP3    H249999   4.111   7.280   1.185 -1.1084  0.5091 -0.0290
 8602TIP3   OH250000   6.622   3.550   1.155 -0.3708  1.2384  0.0218
 8602TIP3    H150001   6.564   3.586   1.089  0.4641  1.5976 -0.5359
 8602TIP3    H250002   6.706   3.594   1.140  0.4106 -0.1937 -0.0304
 8603TIP3   OH250003   7.004   5.951   2.943 -0.1905 -0.0972 -0.0107
 8603TIP3    H150004   6.969   6.018   2.884  1.0682  0.8433  0.2592
 8603TIP3    H250005   7.042   5.885   2.885 -0.1351  0.1525 -0.2591
 8604TIP3   OH250006   4.807   5.336   2.570 -0.0049 -0.4275  0.2715
 8604TIP3    H150007   4.731   5.286   2.540 -0.1556 -0.2598  0.3692
 8604TIP3    H250008   4.801   5.332   2.666 -0.3798  0.3136  0.2881
 8605TIP3   OH250009   6.971   1.174   2.423  0.0829  0.0341 -0.0298
 8605TIP3    H150010   7.052   1.225   2.426  0.9471 -1.2798  0.1773
 8605TIP3    H250011   6.947   1.172   2.330  0.6726 -0.1272 -0.1827
 8606TIP3   OH250012   4.060   5.077   1.169 -0.3953  0.4391 -0.1314
 8606TIP3    H150013   4.063   5.132   1.247 -0.9614  0.4188 -0.0871
 8606TIP3    H250014   4.145   5.088   1.128  0.8897 -1.4912  1.7950
 8607TIP3   OH250015   0.246   5.495   2.000  0.0285 -0.0363  0.5251
 8607TIP3    H150016   0.291   5.561   1.948 -0.3177  0.1010  0.4010
 8607TIP3    H250017   0.317   5.443   2.038  0.2815 -0.2118 -0.1696
 8608TIP3   OH250018   4.335   1.212   2.031  0.1107 -0.0586  0.4830
 8608TIP3    H150019   4.341   1.201   1.936 -0.8914  0.7463  0.3010
 8608TIP3    H250020   4.393   1.145   2.067 -0.9542 -1.6917 -0.6501
 8609TIP3   OH250021   5.412   5.758   2.798  0.1096  0.0078  0.3040
 8609TIP3    H150022   5.450   5.824   2.856 -1.6485 -0.1639  1.7221
 8609TIP3    H250023   5.407   5.801   2.713  2.9466  0.1920  0.1126
 8610TIP3   OH250024   5.262   2.409   1.585 -0.6647 -0.5068  0.1341
 8610TIP3    H150025   5.333   2.422   1.647 -0.9082 -0.7277  0.4609
 8610TIP3    H250026   5.295   2.344   1.523 -1.1513 -1.7825  1.1902
 8611TIP3   OH250027   2.852   3.107   1.930  0.4119 -0.1178 -0.3687
 8611TIP3    H150028   2.829   3.030   1.878 -0.4069  0.0815 -0.3192
 8611TIP3    H250029   2.939   3.132   1.899  0.4783 -0.7687 -0.7267
 8612TIP3   OH250030   4.267   0.114   2.145  0.9952  0.4026 -0.1891
 8612TIP3    H150031   4.286   0.186   2.205  1.3425  0.4177 -0.3142
 8612TIP3    H250032   4.256   0.157   2.060 -0.8835  0.5435  0.0885
 8613TIP3   OH250033   0.159   4.363   1.867 -0.6208 -0.2644  0.2632
 8613TIP3    H150034   0.240   4.380   1.916 -1.9207 -0.8055  2.7744
 8613TIP3    H250035   0.100   4.433   1.894 -1.7917 -1.3065  0.5347
 8614TIP3   OH250036   5.612   5.756   1.374  0.2236  0.5847  0.1282
 8614TIP3    H150037   5.532   5.747   1.425 -0.0224  2.0884  0.0621
 8614TIP3    H250038   5.583   5.787   1.289  0.7413 -0.6915 -0.5437
 8615TIP3   OH250039   3.525   5.568   0.557 -0.6870  0.2634 -0.2146
 8615TIP3    H150040   3.477   5.509   0.499 -0.4994  0.4609 -0.5721
 8615TIP3    H250041   3.462   5.592   0.624 -0.7659 -0.3470 -0.0620
 8616TIP3   OH250042   0.837   1.342   1.566  0.0868  0.1240 -0.6647
 8616TIP3    H150043   0.865   1.258   1.602 -1.0321 -0.7797 -1.8186
 8616TIP3    H250044   0.768   1.320   1.503 -0.5986  1.9468 -0.6265
 8617TIP3   OH250045   7.633   1.325   1.493  0.0804  0.0492 -0.1873
 8617TIP3    H150046   7.650   1.297   1.583 -0.5445  1.5643  0.4482
 8617TIP3    H250047   7.718   1.319   1.449  0.4284 -0.5629  0.5485
 8618TIP3   OH250048   4.617   1.794   0.696  0.3466 -0.6555  0.5555
 8618TIP3    H150049   4.654   1.830   0.776  1.7372 -0.0572 -0.3144
 8618TIP3    H250050   4.686   1.805   0.630 -1.3840  0.5363 -1.1640
 8619TIP3   OH250051   6.292   1.128   0.931 -0.6805  0.0542 -0.2543
 8619TIP3    H150052   6.340   1.049   0.955 -0.9543 -0.0755 -0.1309
 8619TIP3    H250053   6.315   1.192   0.998  0.2486  0.3683 -0.8435
 8620TIP3   OH250054   6.106   7.059   1.265 -0.0307 -0.4414  0.0422
 8620TIP3    H150055   6.014   7.070   1.243 -0.3515 -2.8722 -0.0932
 8620TIP3    H250056   6.147   7.032   1.183  0.6753 -0.0369  0.2527
 8621TIP3   OH250057   5.641   6.780   2.085 -0.3720  0.4858  0.5434
 8621TIP3    H150058   5.724   6.812   2.119  0.1230 -0.7517  0.5854
 8621TIP3    H250059   5.582   6.855   2.089  0.0122  0.7291  2.9093
 8622TIP3   OH250060   1.956   2.651   1.130 -0.3442 -0.0823 -0.5165
 8622TIP3    H150061   1.995   2.564   1.139  0.3248 -0.0084 -2.2394
 8622TIP3    H250062   2.026   2.712   1.151 -0.3184  0.0379 -0.9364
 8623TIP3   OH250063   5.596   5.286   3.384  0.5419  0.4944 -0.0781
 8623TIP3    H150064   5.626   5.211   3.334  0.7428  0.8477 -0.4963
 8623TIP3    H250065   5.504   5.268   3.402  0.8025 -0.2343  0.5424
 8624TIP3   OH250066   2.635   6.968   2.072 -0.2136  0.6104 -0.8503
 8624TIP3    H150067   2.597   6.916   2.001 -0.5853  0.6907 -0.7131
 8624TIP3    H250068   2.729   6.951   2.067 -0.4250 -0.9095 -0.1603
 8625TIP3   OH250069   1.587   7.569   2.730  0.3995  0.1169  0.2632
 8625TIP3    H150070   1.612   7.645   2.678  1.5397 -1.2158 -1.2477
 8625TIP3    H250071   1.657   7.560   2.794 -0.0430  0.6590  0.8378
 8626TIP3   OH250072   4.611   2.957   1.060  0.5804  0.4825 -0.7157
 8626TIP3    H150073   4.617   3.052   1.051 -1.0069  0.6060 -0.8804
 8626TIP3    H250074   4.655   2.922   0.983  0.4671  1.1072 -1.0653
 8627TIP3   OH250075   3.625   5.574   1.701 -0.3064  0.1686 -0.0737
 8627TIP3    H150076   3.658   5.654   1.741 -2.1078  0.7940  0.2551
 8627TIP3    H250077   3.621   5.510   1.772  0.1067  0.1099 -0.1017
 8628TIP3   OH250078   6.380   3.300   1.273  0.5176 -0.7009  0.1607
 8628TIP3    H150079   6.381   3.386   1.315  0.8598 -0.7790  0.3177
 8628TIP3    H250080   6.299   3.299   1.223  0.6482 -0.1750 -0.0703
 8629TIP3   OH250081   3.043   7.263   2.280  0.1238 -0.1246 -0.5463
 8629TIP3    H150082   3.081   7.345   2.311 -1.3647  0.1314  0.7241
 8629TIP3    H250083   3.113   7.222   2.229  0.9258  1.8792 -1.1703
 8630TIP3   OH250084   4.334   3.058   2.379 -0.3145 -0.1588 -0.3849
 8630TIP3    H150085   4.347   3.070   2.285 -2.6240  1.4102 -0.5918
 8630TIP3    H250086   4.388   3.125   2.419 -0.4050  0.0887 -0.6732
 8631TIP3   OH250087   3.805   1.033   0.897 -0.3463  0.0131  0.2784
 8631TIP3    H150088   3.759   1.030   0.981 -0.4504 -0.3372  0.2082
 8631TIP3    H250089   3.747   0.989   0.836 -0.0082 -0.2531  0.1466
 8632TIP3   OH250090   0.858   5.448   1.596  0.4673  0.6035  0.2600
 8632TIP3    H150091   0.844   5.354   1.606 -0.1119  0.6400 -0.1520
 8632TIP3    H250092   0.796   5.488   1.656  0.0077  0.7381 -0.2992
 8633TIP3   OH250093   0.060   0.293   3.085 -0.3627 -0.2807 -0.1378
 8633TIP3    H150094   0.022   0.205   3.095 -0.9127 -0.0184  0.0826
 8633TIP3    H250095   0.149   0.284   3.118 -0.4991 -0.6923  0.1290
 8634TIP3   OH250096   2.429   4.472   2.018 -0.1221 -0.1151  0.4157
 8634TIP3    H150097   2.426   4.567   2.031  0.4181 -0.1840  1.0904
 8634TIP3    H250098   2.389   4.437   2.098  0.5313 -0.4795  0.5830
 8635TIP3   OH250099   1.125   7.191   0.695 -0.2466  0.2558 -0.4458
 8635TIP3    H150100   1.110   7.188   0.789  0.7120 -0.6577 -0.3058
 8635TIP3    H250101   1.186   7.119   0.678 -0.5227  0.3155 -1.7847
 8636TIP3   OH250102   1.490   6.693   1.887  0.0599  0.1563 -0.3168
 8636TIP3    H150103   1.544   6.654   1.956 -0.5687  0.3292  0.2771
 8636TIP3    H250104   1.554   6.727   1.824  0.6399 -0.1227  0.1081
 8637TIP3   OH250105   4.703   1.615   2.867 -0.2642  0.1951 -0.1410
 8637TIP3    H150106   4.733   1.676   2.800 -1.4127  1.5962  0.5613
 8637TIP3    H250107   4.612   1.642   2.884 -0.6557 -1.4429  0.5112
 8638TIP3   OH250108   5.684   2.782   1.518 -0.3136  0.7511  0.2768
 8638TIP3    H150109   5.607   2.802   1.464 -0.6528 -0.8692  0.1329
 8638TIP3    H250110   5.721   2.702   1.480  0.9109  0.9758  0.9248
 8639TIP3   OH250111   5.570   6.205   2.751  0.0020 -0.5365  0.1595
 8639TIP3    H150112   5.618   6.286   2.766 -0.2966 -0.0471 -1.3747
 8639TIP3    H250113   5.487   6.233   2.713  0.7144 -1.6249 -2.3975
 8640TIP3   OH250114   6.868   4.339   1.559 -0.1700  0.1079  0.2199
 8640TIP3    H150115   6.797   4.391   1.520  0.5244  1.5784  0.8239
 8640TIP3    H250116   6.894   4.278   1.491  0.0963  1.7043 -1.1834
 8641TIP3   OH250117   5.313   4.343   1.969 -0.0112  0.3008 -0.6850
 8641TIP3    H150118   5.304   4.323   1.876  1.2130  0.6680 -0.9000
 8641TIP3    H250119   5.402   4.317   1.991 -1.0783 -2.2711  1.0514
 8642TIP3   OH250120   1.025   3.325   0.620  0.0100  0.0287 -0.0955
 8642TIP3    H150121   1.095   3.274   0.661 -0.1420 -0.4625 -0.4365
 8642TIP3    H250122   0.996   3.271   0.546  1.2270  1.4669 -1.7315
 8643TIP3   OH250123   4.067   6.976   1.051  0.1744 -0.2891 -0.1947
 8643TIP3    H150124   4.017   6.959   1.131  1.3644 -3.1365  0.0659
 8643TIP3    H250125   4.158   6.982   1.081  0.5159 -0.1690 -1.2255
 8644TIP3   OH250126   3.846   2.888   0.982  0.0749  0.7526  0.0397
 8644TIP3    H150127   3.836   2.921   0.892 -0.6824  0.2121 -0.0859
 8644TIP3    H250128   3.811   2.799   0.978  0.3732  0.6007  0.7929
 8645TIP3   OH250129   2.411   6.287   1.748  0.0120 -0.3195  0.0975
 8645TIP3    H150130   2.430   6.257   1.837 -0.7133 -2.1110 -0.3164
 8645TIP3    H250131   2.335   6.236   1.721  0.8952 -0.6508 -1.9667
 8646TIP3   OH250132   6.266   0.121   1.436  0.2757  0.9357 -0.2313
 8646TIP3    H150133   6.275   0.104   1.342 -0.0523 -1.6491  0.1251
 8646TIP3    H250134   6.355   0.118   1.470  0.1887 -3.7683  0.2394
 8647TIP3   OH250135   0.318   4.547   0.740 -0.1637  0.1992  0.6495
 8647TIP3    H150136   0.289   4.517   0.654 -0.0075  0.3907  0.5273
 8647TIP3    H250137   0.354   4.635   0.723 -1.2773  0.7586  1.1243
 8648TIP3   OH250138   0.067   3.733   3.626  0.0484 -0.6088  0.9935
 8648TIP3    H150139  -0.011   3.685   3.597 -0.6309 -0.1466  2.0206
 8648TIP3    H250140   0.045   3.825   3.612  1.2816 -0.5453 -0.8036
 8649TIP3   OH250141   3.179   5.041   2.408  0.5708 -0.1293 -0.2599
 8649TIP3    H150142   3.158   5.106   2.475  1.4915  1.1669 -1.1869
 8649TIP3    H250143   3.267   5.010   2.431  0.0743 -1.1879  0.2688
 8650TIP3   OH250144   5.051   4.775   2.686 -0.0395 -0.1382 -0.2673
 8650TIP3    H150145   5.059   4.760   2.591  1.0298 -2.7238  0.1571
 8650TIP3    H250146   4.980   4.718   2.713 -0.1844  0.4185  0.5543
 8651TIP3   OH250147   0.076   3.257   0.991 -0.4599 -0.1004 -0.0037
 8651TIP3    H150148   0.040   3.171   1.014 -0.5850  0.2641  1.2299
 8651TIP3    H250149   0.169   3.251   1.015 -0.5622  0.2402  0.4948
 8652TIP3   OH250150   0.533   1.470   0.771  0.5051 -0.6590 -0.1836
 8652TIP3    H150151   0.562   1.385   0.803  1.7820  0.2439  1.1829
 8652TIP3    H250152   0.588   1.533   0.818 -0.5877  0.9288 -0.9627
 8653TIP3   OH250153   4.793   1.253   3.095  0.0345  0.1127 -0.1642
 8653TIP3    H150154   4.767   1.313   3.164  1.0001 -0.0215  0.3419
 8653TIP3    H250155   4.855   1.193   3.137 -0.3628 -0.7883 -0.8324
 8654TIP3   OH250156   4.487   0.194   0.832  0.1222  0.2475  0.2969
 8654TIP3    H150157   4.541   0.176   0.909  1.1999 -0.2732 -0.5339
 8654TIP3    H250158   4.550   0.225   0.766 -0.4676 -1.0127 -0.9161
 8655TIP3   OH250159   2.829   2.691   3.305 -0.0217 -0.1346  0.1672
 8655TIP3    H150160   2.924   2.693   3.290  0.4822 -0.5827  2.8005
 8655TIP3    H250161   2.803   2.783   3.305  0.3229 -0.0234 -0.9090
 8656TIP3   OH250162   2.650   7.556   2.324  0.3183 -0.5873  0.9547
 8656TIP3    H150163   2.734   7.579   2.365  0.1707  1.0754  0.3922
 8656TIP3    H250164   2.591   7.541   2.397  0.9576 -1.2363  1.3545
 8657TIP3   OH250165   2.190   5.894   1.097 -0.7708 -0.4821 -0.4642
 8657TIP3    H150166   2.282   5.874   1.111 -1.0844 -1.0309  1.0020
 8657TIP3    H250167   2.155   5.907   1.185 -1.8478  0.8874 -1.0595
 8658TIP3   OH250168   0.111   5.459   2.828  0.3912 -1.3908 -0.0906
 8658TIP3    H150169   0.045   5.493   2.768  1.8961 -1.8165 -2.1356
 8658TIP3    H250170   0.114   5.522   2.899 -1.6442 -0.9746 -0.3082
 8659TIP3   OH250171   7.272   6.617   1.045  0.3223 -0.2347 -0.2227
 8659TIP3    H150172   7.259   6.529   1.009 -0.6966 -0.3092  0.2951
 8659TIP3    H250173   7.338   6.657   0.988 -0.2573 -0.8246 -1.3306
 8660TIP3   OH250174   4.221   5.238   2.043 -0.4344  0.1867  0.3957
 8660TIP3    H150175   4.313   5.263   2.042 -0.5721  0.9445  2.4550
 8660TIP3    H250176   4.222   5.142   2.048  0.3024  0.2293  1.5913
 8661TIP3   OH250177   0.458   4.316   3.527  0.6981  0.5062 -0.0738
 8661TIP3    H150178   0.541   4.364   3.524  1.7962 -1.3802 -1.9991
 8661TIP3    H250179   0.465   4.261   3.606  1.3731  0.2209 -0.3264
 8662TIP3   OH250180   2.531   2.810   3.635  0.0831 -0.3402 -0.3338
 8662TIP3    H150181   2.470   2.870   3.593  0.3475  0.4029  0.3332
 8662TIP3    H250182   2.475   2.739   3.668 -0.3720  0.1399 -0.0601
 8663TIP3   OH250183   1.502   6.275   0.701 -0.5576  0.0204  0.2446
 8663TIP3    H150184   1.539   6.196   0.663  0.3906  0.2200  0.7217
 8663TIP3    H250185   1.425   6.245   0.749 -0.3355 -0.5784  0.2319
 8664TIP3   OH250186   0.943   3.170   3.210  0.1763  0.2385  0.4729
 8664TIP3    H150187   0.952   3.193   3.302 -0.3396 -0.1270  0.6144
 8664TIP3    H250188   0.873   3.106   3.207 -0.3495  0.8306 -0.2712
 8665TIP3   OH250189   5.904   5.873   0.641 -0.0745 -0.3832 -0.3937
 8665TIP3    H150190   5.977   5.923   0.678 -0.6155  0.1847 -0.0614
 8665TIP3    H250191   5.826   5.920   0.671 -0.7479 -2.7144  1.9158
 8666TIP3   OH250192   1.854   1.264   2.755 -0.0500 -0.0062 -0.0908
 8666TIP3    H150193   1.863   1.196   2.822 -0.5886  1.0977  1.1459
 8666TIP3    H250194   1.941   1.270   2.715  0.0118 -1.3689 -0.1820
 8667TIP3   OH250195   0.622   6.936   2.562  0.0334 -0.0675  0.4662
 8667TIP3    H150196   0.684   6.900   2.625 -1.4653 -1.2133  1.3663
 8667TIP3    H250197   0.536   6.922   2.602 -0.8376  1.2272 -0.8386
 8668TIP3   OH250198   6.086   5.981   2.157  0.1156 -0.8671 -0.2126
 8668TIP3    H150199   6.014   5.989   2.221 -2.0019  0.2804 -2.5486
 8668TIP3    H250200   6.136   6.062   2.168 -1.1256  0.0450 -0.9015
 8669TIP3   OH250201   7.630   5.655   1.781 -0.3630  0.3768 -0.3226
 8669TIP3    H150202   7.695   5.587   1.764 -0.4058  0.0327  0.7618
 8669TIP3    H250203   7.612   5.695   1.696  1.4743  0.6831 -0.5904
 8670TIP3   OH250204   5.468   4.677   0.617  0.6924 -0.5365  0.2560
 8670TIP3    H150205   5.489   4.769   0.597  0.0217 -0.2442  0.8193
 8670TIP3    H250206   5.376   4.669   0.595  0.9162 -1.2821 -0.4385
 8671TIP3   OH250207   7.410   7.220   1.541  0.2505 -0.3586  0.4888
 8671TIP3    H150208   7.318   7.197   1.537  0.6996 -2.2252 -0.0915
 8671TIP3    H250209   7.439   7.222   1.450  1.1762 -1.6853  0.7131
 8672TIP3   OH250210   1.729   6.879   0.806 -0.3284  0.5058  0.2851
 8672TIP3    H150211   1.725   6.973   0.787 -1.8268  0.8292  1.9496
 8672TIP3    H250212   1.815   6.867   0.846  0.7940  0.7009 -1.8852
 8673TIP3   OH250213   4.682   4.758   0.985 -0.3029  0.1359 -0.3660
 8673TIP3    H150214   4.707   4.695   0.918 -1.4718 -3.1201  1.9887
 8673TIP3    H250215   4.762   4.773   1.035  0.0687  0.9280 -1.1612
 8674TIP3   OH250216   0.324   2.910   2.553  0.4828  0.1325 -0.1753
 8674TIP3    H150217   0.246   2.896   2.499  0.3676 -2.9895  0.6065
 8674TIP3    H250218   0.378   2.832   2.539  2.0524  0.8111  1.5901
 8675TIP3   OH250219   1.303   3.828   1.651  0.1929  0.0223  0.2024
 8675TIP3    H150220   1.328   3.905   1.703  0.1985  0.0786  0.1161
 8675TIP3    H250221   1.207   3.829   1.651  0.1717 -0.7594  1.3802
 8676TIP3   OH250222   4.202   4.876   1.302  0.6158  0.5167  0.1139
 8676TIP3    H150223   4.214   4.968   1.276  1.4576  1.3022  2.9790
 8676TIP3    H250224   4.285   4.834   1.277  0.4662  0.6445 -0.6465
 8677TIP3   OH250225   2.461   1.447   1.410  0.5008  0.2166 -0.2495
 8677TIP3    H150226   2.502   1.372   1.453 -0.5064 -0.5212 -0.5451
 8677TIP3    H250227   2.535   1.500   1.379  1.2306 -0.1731  0.7585
 8678TIP3   OH250228   1.539   3.430   3.423 -0.1609  0.1847 -0.2403
 8678TIP3    H150229   1.523   3.394   3.510 -0.9252  0.0075 -0.4423
 8678TIP3    H250230   1.621   3.390   3.396 -0.7026 -1.0098 -0.2255
 8679TIP3   OH250231   7.420   3.498   2.845  0.0529  0.8370  0.1390
 8679TIP3    H150232   7.411   3.403   2.833  1.1979  0.7476 -0.1776
 8679TIP3    H250233   7.377   3.516   2.928 -1.3277  0.2492 -0.4105
 8680TIP3   OH250234   4.639   2.779   1.631 -0.0352 -0.0138  0.0659
 8680TIP3    H150235   4.567   2.754   1.690  1.3640 -2.3399  0.9072
 8680TIP3    H250236   4.626   2.725   1.553  0.2029  0.3815 -0.2532
 8681TIP3   OH250237   5.440   6.998   2.034 -0.1935  0.2335  0.1096
 8681TIP3    H150238   5.458   7.087   2.065  1.6771  0.5111 -1.5267
 8681TIP3    H250239   5.396   7.011   1.950 -0.3026 -0.3823  0.0729
 8682TIP3   OH250240   0.716   3.780   1.989 -0.0092  0.3587 -0.5098
 8682TIP3    H150241   0.652   3.840   2.026 -0.6793  0.1096 -1.2249
 8682TIP3    H250242   0.698   3.781   1.895  0.1781 -0.6922 -0.5767
 8683TIP3   OH250243   0.152   6.449   2.034 -0.0609  0.4570  0.2391
 8683TIP3    H150244   0.160   6.411   1.946 -1.5045 -1.3114  0.8028
 8683TIP3    H250245   0.068   6.495   2.032  0.7573  2.0490  0.1870
 8684TIP3   OH250246   2.492   3.778   1.079  0.4514 -0.3164  1.0274
 8684TIP3    H150247   2.569   3.835   1.083  1.0820 -1.1239  0.8146
 8684TIP3    H250248   2.423   3.834   1.044  1.3385  0.0483 -0.2595
 8685TIP3   OH250249   3.092   6.094   1.348 -0.5132 -0.1957 -0.1116
 8685TIP3    H150250   3.151   6.144   1.291  1.3905 -0.9883  1.0547
 8685TIP3    H250251   3.005   6.128   1.329  0.3327  1.1908 -1.7644
 8686TIP3   OH250252   3.501   2.965   0.814 -0.1054 -0.4990 -0.2830
 8686TIP3    H150253   3.571   3.013   0.770  2.0297 -0.6581  2.6432
 8686TIP3    H250254   3.522   2.873   0.800  1.0096 -0.5704  1.4142
 8687TIP3   OH250255   4.574   0.701   1.085  0.5317 -0.4645  0.0970
 8687TIP3    H150256   4.568   0.646   1.163 -0.5212 -0.6812 -0.1227
 8687TIP3    H250257   4.588   0.640   1.014 -0.5985 -0.4692 -0.1431
 8688TIP3   OH250258   4.273   0.217   1.890  0.1898 -0.0918 -0.3361
 8688TIP3    H150259   4.188   0.216   1.847 -0.4988  0.0450  0.9637
 8688TIP3    H250260   4.332   0.171   1.830 -0.5729  0.6377 -1.6731
 8689TIP3   OH250261   3.758   0.236   1.598  0.1729 -0.1396  0.4260
 8689TIP3    H150262   3.667   0.266   1.604  0.7913  1.9339  0.2277
 8689TIP3    H250263   3.784   0.258   1.508  0.8683 -0.7002  0.4916
 8690TIP3   OH250264   5.990   6.645   0.526  0.5344  0.2157 -0.0990
 8690TIP3    H150265   6.037   6.563   0.540 -0.1548 -0.4549 -1.5260
 8690TIP3    H250266   5.908   6.619   0.484 -1.1615  1.3537  2.2686
 8691TIP3   OH250267   3.666   0.661   1.471  0.0701  0.2291 -0.2186
 8691TIP3    H150268   3.633   0.642   1.559  1.2935  0.9798  0.4384
 8691TIP3    H250269   3.643   0.753   1.456 -1.2901 -0.2466 -1.2554
 8692TIP3   OH250270   6.480   0.885   2.131  0.3550  0.2064  0.2686
 8692TIP3    H150271   6.544   0.841   2.075  1.8135  0.5657  1.5889
 8692TIP3    H250272   6.484   0.837   2.214 -0.3222  0.8871  0.7096
 8693TIP3   OH250273   5.898   6.863   2.167 -0.4760  0.3402 -0.3046
 8693TIP3    H150274   5.946   6.938   2.201  0.9832 -1.4278  1.7483
 8693TIP3    H250275   5.913   6.866   2.072 -0.4150  2.5379 -0.2763
 8694TIP3   OH250276   5.191   3.529   2.253  0.5500 -0.1921 -0.8979
 8694TIP3    H150277   5.139   3.607   2.274 -1.4842 -1.6982  0.0345
 8694TIP3    H250278   5.236   3.551   2.172 -1.0214  1.4892 -1.3822
 8695TIP3   OH250279   6.272   1.332   2.082 -0.7949  0.2352  0.4763
 8695TIP3    H150280   6.180   1.313   2.101 -1.1240  1.8908  0.6824
 8695TIP3    H250281   6.315   1.247   2.086 -2.5072 -0.7478 -0.7996
 8696TIP3   OH250282   2.964   3.674   0.917 -0.4109  0.0994 -0.2027
 8696TIP3    H150283   2.961   3.743   0.983 -0.4455 -1.6207  1.6911
 8696TIP3    H250284   2.896   3.612   0.943 -0.4371 -0.6453 -1.8787
 8697TIP3   OH250285   6.544   4.096   1.166  0.7836  0.1546 -0.4642
 8697TIP3    H150286   6.529   4.076   1.259  2.1313  1.2329  0.0248
 8697TIP3    H250287   6.556   4.191   1.163  0.6666  0.1506 -1.7657
 8698TIP3   OH250288   3.787   4.595   1.461  0.3102 -0.0096 -0.4998
 8698TIP3    H150289   3.703   4.563   1.428  0.8053 -0.0576 -1.7913
 8698TIP3    H250290   3.802   4.676   1.412  0.6398  0.4463  0.3272
 8699TIP3   OH250291   6.702   3.292   1.848  0.6195  0.2347 -0.2746
 8699TIP3    H150292   6.769   3.325   1.908  0.1752  0.5903  0.0264
 8699TIP3    H250293   6.751   3.263   1.771  1.1968 -0.2957  0.2894
 8700TIP3   OH250294   2.562   4.041   0.857 -0.0369  0.1481  0.3075
 8700TIP3    H150295   2.585   3.978   0.788  0.6681  0.9530 -0.2202
 8700TIP3    H250296   2.612   4.013   0.933 -0.2889 -0.3526  0.2900
 8701TIP3   OH250297   6.730   1.005   1.057  0.2113 -0.2596  0.1375
 8701TIP3    H150298   6.811   0.956   1.046  0.7921  0.4944  0.9270
 8701TIP3    H250299   6.753   1.095   1.037 -0.9753 -0.3288 -1.8144
 8702TIP3   OH250300   6.880   4.336   1.017 -0.5942  0.2146  0.8885
 8702TIP3    H150301   6.850   4.316   0.928 -0.2282  0.6245  0.6678
 8702TIP3    H250302   6.802   4.326   1.071 -1.0309  0.8362  0.3852
 8703TIP3   OH250303   4.863   0.411   2.015  0.1652 -0.0945  0.1345
 8703TIP3    H150304   4.790   0.358   1.985 -0.4939  1.9066 -2.0961
 8703TIP3    H250305   4.941   0.360   1.992 -0.4565 -1.5788  1.1922
 8704TIP3   OH250306   7.382   5.285   1.710  0.1111  0.4367 -1.0473
 8704TIP3    H150307   7.351   5.371   1.680 -0.6980  0.8726  0.8930
 8704TIP3    H250308   7.305   5.228   1.702  0.1333  0.3483 -0.6306
 8705TIP3   OH250309   5.419   1.512   1.533 -0.7913 -0.6621  0.3682
 8705TIP3    H150310   5.436   1.460   1.455  0.7612 -1.1339  0.9741
 8705TIP3    H250311   5.426   1.449   1.605 -3.0362 -0.4185  0.8748
 8706TIP3   OH250312   3.325   1.300   2.158  0.4400  0.1201 -0.4977
 8706TIP3    H150313   3.234   1.294   2.186 -0.0879  1.7364 -1.7207
 8706TIP3    H250314   3.344   1.394   2.158  2.3872 -0.2258  0.5333
 8707TIP3   OH250315   5.416   7.593   0.795 -0.0210  0.3051 -0.1208
 8707TIP3    H150316   5.321   7.582   0.794  0.1879 -2.4167  1.1994
 8707TIP3    H250317   5.451   7.504   0.800  2.5455  1.2782  1.4985
 8708TIP3   OH250318   2.551   3.402   2.118 -0.1888  0.1007  0.3341
 8708TIP3    H150319   2.522   3.490   2.094 -0.0757 -0.1504 -0.7751
 8708TIP3    H250320   2.494   3.344   2.068  0.6018 -0.4289  0.0265
 8709TIP3   OH250321   5.191   1.636   1.604 -0.3627  0.0979  0.3065
 8709TIP3    H150322   5.269   1.584   1.582 -1.5693 -1.0158 -1.5706
 8709TIP3    H250323   5.226   1.719   1.635  1.6308  0.4488 -2.4967
 8710TIP3   OH250324   4.036   6.652   1.468 -0.0812 -0.1793 -0.2643
 8710TIP3    H150325   4.004   6.583   1.410 -1.2951  0.2740 -0.1593
 8710TIP3    H250326   4.113   6.687   1.423 -0.2406 -0.6994 -0.9653
 8711TIP3   OH250327   4.419   2.916   0.556  0.2147 -0.2907 -0.0059
 8711TIP3    H150328   4.509   2.886   0.542  0.3646  0.0366  0.2405
 8711TIP3    H250329   4.366   2.864   0.495  0.5773 -0.4380 -0.1956
 8712TIP3   OH250330   5.312   5.065   1.411  0.1865  0.4609  0.1601
 8712TIP3    H150331   5.381   5.109   1.461 -0.3578  1.2515  0.2453
 8712TIP3    H250332   5.277   4.999   1.471  0.7566  0.1801  0.1791
 8713TIP3   OH250333   0.243   6.498   1.360  0.0209  1.2588  0.0494
 8713TIP3    H150334   0.306   6.507   1.288  0.9494  0.4241  0.7279
 8713TIP3    H250335   0.179   6.435   1.327  1.0589  0.0216  0.3436
 8714TIP3   OH250336   5.836   1.683   3.173  0.1411  0.4479  0.3965
 8714TIP3    H150337   5.869   1.646   3.254  1.1816 -1.8083 -0.9482
 8714TIP3    H250338   5.753   1.636   3.158 -0.1659  1.0250  0.2743
 8715TIP3   OH250339   2.274   1.266   1.792  0.1325  0.2752  0.6238
 8715TIP3    H150340   2.179   1.280   1.791  0.1875  0.6559  0.1396
 8715TIP3    H250341   2.297   1.252   1.700  0.3945 -0.9408  0.8541
 8716TIP3   OH250342   7.637   4.472   3.393  0.1282 -0.0975  0.1240
 8716TIP3    H150343   7.575   4.399   3.392  0.6547 -0.5439 -0.2408
 8716TIP3    H250344   7.615   4.522   3.314  1.0628 -0.9736 -0.7177
 8717TIP3   OH250345   7.049   7.047   1.215 -0.1083  0.2196 -0.6708
 8717TIP3    H150346   7.103   6.974   1.245 -0.3835  0.5181  0.5915
 8717TIP3    H250347   7.059   7.046   1.120  1.8514  0.0658 -0.5064
 8718TIP3   OH250348   0.445   5.698   2.182  0.0463  0.1601 -0.0892
 8718TIP3    H150349   0.533   5.735   2.182  0.2621 -0.3421  0.3600
 8718TIP3    H250350   0.401   5.741   2.108  0.3177  1.2217  0.3483
 8719TIP3   OH250351   0.462   6.779   1.582 -0.3263 -1.2091  0.3895
 8719TIP3    H150352   0.430   6.829   1.657 -0.3996 -2.4390  1.1970
 8719TIP3    H250353   0.548   6.747   1.610  0.9364  0.6228 -1.1093
 8720TIP3   OH250354   5.891   0.334   3.272 -0.2951 -0.7749 -0.4738
 8720TIP3    H150355   5.915   0.422   3.301  1.4067 -1.8385  1.6036
 8720TIP3    H250356   5.975   0.294   3.247 -1.0374 -1.8559 -1.3101
 8721TIP3   OH250357   7.039   1.623   2.351  1.1807  0.1090 -0.3124
 8721TIP3    H150358   7.028   1.542   2.302  1.9105 -0.2007  0.0118
 8721TIP3    H250359   6.996   1.606   2.435 -0.5183  0.8209 -1.0084
 8722TIP3   OH250360   6.209   0.602   2.305 -0.8593 -0.1107 -0.0367
 8722TIP3    H150361   6.293   0.645   2.320 -0.5444 -1.6242  4.0517
 8722TIP3    H250362   6.224   0.545   2.230  0.9359  1.4217 -0.9404
 8723TIP3   OH250363   6.394   6.544   2.480  0.6668 -0.0695 -0.4000
 8723TIP3    H150364   6.480   6.576   2.507  0.2178  1.5259 -0.7758
 8723TIP3    H250365   6.378   6.468   2.536  2.0867 -0.0747  0.0326
 8724TIP3   OH250366   4.275   6.099   2.897 -0.5686  0.0541 -0.4644
 8724TIP3    H150367   4.268   6.007   2.919 -0.0572  0.4841  1.6869
 8724TIP3    H250368   4.369   6.116   2.891 -0.6563  0.1635 -2.3358
 8725TIP3   OH250369   1.515   3.554   2.334 -0.2369  0.9164 -0.5331
 8725TIP3    H150370   1.442   3.493   2.344  1.1376 -1.2276 -2.5555
 8725TIP3    H250371   1.505   3.589   2.246 -0.7039  3.3406  0.4159
 8726TIP3   OH250372   6.701   0.014   0.594 -0.0334  0.3258  0.5752
 8726TIP3    H150373   6.620   0.021   0.645 -0.2375  0.4318  0.2404
 8726TIP3    H250374   6.738  -0.070   0.619 -0.6961 -0.1257  0.0837
 8727TIP3   OH250375   6.059   6.249   0.951 -0.3929 -0.3694 -0.6289
 8727TIP3    H150376   6.126   6.251   1.019 -1.0205  1.8334  0.0183
 8727TIP3    H250377   5.980   6.283   0.994 -1.0865  0.0466 -2.1542
 8728TIP3   OH250378   6.393   6.089   1.892 -0.2913 -0.0884 -0.5272
 8728TIP3    H150379   6.345   6.009   1.913  0.9484 -0.5960  0.5072
 8728TIP3    H250380   6.327   6.159   1.896 -1.2596 -0.9758 -0.8232
 8729TIP3   OH250381   5.388   4.019   1.808 -0.3145  0.0960 -0.2468
 8729TIP3    H150382   5.395   4.104   1.765  0.7164 -0.4219 -1.1532
 8729TIP3    H250383   5.294   4.001   1.813 -0.4881  0.4933 -1.6686
 8730TIP3   OH250384   0.880   5.480   0.848 -0.1787  0.0308  0.3425
 8730TIP3    H150385   0.960   5.427   0.850 -0.1921 -0.0655 -0.8639
 8730TIP3    H250386   0.909   5.568   0.824 -0.3548  0.1828  0.6696
 8731TIP3   OH250387   6.141   6.882   2.816  0.3434 -0.0355 -0.4336
 8731TIP3    H150388   6.224   6.928   2.831  0.1496  0.0482  0.3922
 8731TIP3    H250389   6.167   6.800   2.773  0.7217  0.6415 -1.5312
 8732TIP3   OH250390   3.865   5.855   1.977  0.4682  0.0849  0.5642
 8732TIP3    H150391   3.901   5.921   1.919  1.8671 -1.4214 -0.3840
 8732TIP3    H250392   3.904   5.773   1.947  0.2082 -0.9429  2.7941
 8733TIP3   OH250393   3.652   3.543   1.371  0.0424 -0.0902  0.1879
 8733TIP3    H150394   3.649   3.448   1.355  2.0716  0.1382 -2.1508
 8733TIP3    H250395   3.697   3.552   1.455 -1.1027 -1.1588  0.9711
 8734TIP3   OH250396   5.366   5.562   0.643 -0.2381  0.3218 -0.3725
 8734TIP3    H150397   5.347   5.469   0.630 -0.8253  0.1432  1.4254
 8734TIP3    H250398   5.453   5.564   0.682 -1.1886  0.2759  1.9301
 8735TIP3   OH250399   0.263   1.398   2.639 -0.3947  0.5383 -0.1240
 8735TIP3    H150400   0.268   1.436   2.727  0.1575  1.0414 -0.3657
 8735TIP3    H250401   0.229   1.468   2.584 -0.8943  0.1721 -0.2913
 8736TIP3   OH250402   1.330   4.678   2.360  0.1747  0.7151 -0.7379
 8736TIP3    H150403   1.266   4.635   2.302 -0.0266 -1.2619  0.8363
 8736TIP3    H250404   1.337   4.767   2.326 -6.2582  2.4018  1.1013
 8737TIP3   OH250405   4.478   5.303   1.988  0.2838 -0.2419  0.3010
 8737TIP3    H150406   4.556   5.286   1.934  0.5280  1.1766  0.1647
 8737TIP3    H250407   4.495   5.256   2.069 -0.0211 -2.2986 -0.7566
 8738TIP3   OH250408   7.097   5.250   1.739 -0.5144 -1.0873 -0.1019
 8738TIP3    H150409   7.035   5.185   1.707 -2.3430  0.5687 -0.1419
 8738TIP3    H250410   7.055   5.334   1.722  1.0474  0.0765  1.3560
 8739TIP3   OH250411   1.842   4.539   0.998  0.2542  0.6761  0.6194
 8739TIP3    H150412   1.867   4.468   1.057 -0.1549 -1.9619 -2.0948
 8739TIP3    H250413   1.917   4.598   0.998  0.4790  0.5205  3.2551
 8740TIP3   OH250414   2.153   5.322   0.815  0.2216  0.1870  0.1229
 8740TIP3    H150415   2.065   5.283   0.819 -0.7211  2.2652  1.7982
 8740TIP3    H250416   2.138   5.412   0.788  1.9033  0.4613  0.0205
 8741TIP3   OH250417   1.436   3.761   0.942 -0.3029 -0.0697 -0.4787
 8741TIP3    H150418   1.432   3.780   1.036 -1.4445  0.0253 -0.5348
 8741TIP3    H250419   1.455   3.846   0.901 -0.9698  0.1096 -0.4162
 8742TIP3   OH250420   2.741   3.003   0.642  0.4260 -0.3609  0.3258
 8742TIP3    H150421   2.668   3.053   0.605  0.9858  1.4179  1.5124
 8742TIP3    H250422   2.735   3.018   0.736  0.8665 -2.2573  0.7016
 8743TIP3   OH250423   1.782   7.373   2.909  0.2139  0.9801  0.3878
 8743TIP3    H150424   1.799   7.467   2.916  1.3615  0.6303  3.6660
 8743TIP3    H250425   1.865   7.331   2.932  0.7609 -1.0306 -4.0892
 8744TIP3   OH250426   1.958   6.878   0.991 -0.0784  0.7833 -0.2570
 8744TIP3    H150427   1.927   6.958   1.034  0.2289  0.6513  0.2197
 8744TIP3    H250428   1.957   6.812   1.059  0.5651  0.6074 -0.4103
 8745TIP3   OH250429   2.931   1.099   2.131 -0.3264  0.1653 -0.2393
 8745TIP3    H150430   2.884   1.017   2.142  0.5386 -0.2212  0.6644
 8745TIP3    H250431   3.016   1.074   2.097 -0.1120  0.7085 -0.1138
 8746TIP3   OH250432   4.875   4.035   0.956  0.0927  0.0900  0.4811
 8746TIP3    H150433   4.909   3.996   0.875  2.0328  0.5176  1.0247
 8746TIP3    H250434   4.933   4.110   0.973 -1.3930  1.1094  1.3195
 8747TIP3   OH250435   3.057   3.183   0.912  0.2055 -0.0083  0.2175
 8747TIP3    H150436   3.107   3.136   0.846 -0.9891 -1.9417  0.6286
 8747TIP3    H250437   3.084   3.275   0.902  1.7231 -0.5881 -1.3969
 8748TIP3   OH250438   3.202   1.365   0.944 -0.0248 -0.1116  0.0585
 8748TIP3    H150439   3.229   1.284   0.987  1.7461  0.0578 -0.6665
 8748TIP3    H250440   3.167   1.419   1.015  0.9271 -0.6321  0.9550
 8749TIP3   OH250441   1.743   1.783   1.534 -0.5843  0.2767  0.4071
 8749TIP3    H150442   1.692   1.714   1.492 -1.8641  1.3662  0.0918
 8749TIP3    H250443   1.834   1.766   1.508 -1.1171 -0.1750 -1.2646
 8750TIP3   OH250444   4.435   7.028   2.246  0.3653  0.2696 -0.0022
 8750TIP3    H150445   4.480   7.003   2.326  1.2835  1.1420 -0.2350
 8750TIP3    H250446   4.351   7.065   2.276 -1.3530 -3.4610  0.3450
 8751TIP3   OH250447   1.727   4.002   0.781 -0.0228 -0.3039  0.2270
 8751TIP3    H150448   1.766   3.954   0.708 -0.3579  0.1724 -0.2752
 8751TIP3    H250449   1.632   3.995   0.765 -0.0894 -0.0033  0.4929
 8752TIP3   OH250450   5.543   7.000   3.217  0.0610  0.2211  0.4301
 8752TIP3    H150451   5.491   6.957   3.149  1.7568 -1.0621 -0.1462
 8752TIP3    H250452   5.548   6.936   3.288  0.7259  0.3614  0.5229
 8753TIP3   OH250453   6.447   2.069   1.197 -0.3397  0.2540  0.2085
 8753TIP3    H150454   6.509   2.104   1.261  0.0498 -0.3557  0.1767
 8753TIP3    H250455   6.491   1.991   1.162 -0.1640  1.0151 -1.3919
 8754TIP3   OH250456   3.242   5.575   1.971  0.0199 -0.4851  0.0377
 8754TIP3    H150457   3.155   5.610   1.991 -0.4025 -0.6611 -1.4328
 8754TIP3    H250458   3.299   5.618   2.035 -0.7907  1.3811 -0.4198
 8755TIP3   OH250459   1.345   7.093   2.405  0.3914  0.3596 -0.1018
 8755TIP3    H150460   1.306   7.177   2.382 -1.8102 -0.6037 -0.1583
 8755TIP3    H250461   1.356   7.097   2.500  2.9293  1.6929 -0.3654
 8756TIP3   OH250462   0.362   4.607   2.418 -0.3403  0.4348 -0.3902
 8756TIP3    H150463   0.434   4.551   2.387 -0.7870  0.0071 -0.6823
 8756TIP3    H250464   0.391   4.696   2.398 -0.2252  0.2213 -1.2311
 8757TIP3   OH250465   0.465   4.820   2.264 -0.0228 -0.3073 -0.4735
 8757TIP3    H150466   0.468   4.879   2.339 -0.9680  1.1830 -1.5494
 8757TIP3    H250467   0.444   4.877   2.189 -0.6653 -1.9574 -1.6192
 8758TIP3   OH250468   0.674   6.998   1.807  0.3324 -0.2171  0.0199
 8758TIP3    H150469   0.720   7.082   1.807 -0.1771  0.0672 -0.1279
 8758TIP3    H250470   0.638   6.990   1.895 -1.7320  0.9126 -0.6653
 8759TIP3   OH250471   5.072   2.084   2.450  0.0215 -0.0683 -0.0410
 8759TIP3    H150472   5.017   2.027   2.395 -0.3894  0.2697  0.0121
 8759TIP3    H250473   5.032   2.170   2.442  1.6053  0.5769 -1.4296
 8760TIP3   OH250474   0.960   3.763   1.736  0.2761 -0.3945 -0.2806
 8760TIP3    H150475   0.989   3.854   1.748  0.1725 -0.4362  0.3392
 8760TIP3    H250476   0.996   3.737   1.652 -1.3440  0.8785 -1.4547
 8761TIP3   OH250477   5.305   6.427   1.406 -0.5038  0.0578  0.4251
 8761TIP3    H150478   5.313   6.348   1.352 -0.6299 -0.4040  1.0577
 8761TIP3    H250479   5.390   6.434   1.450 -0.7511 -0.1699  0.9488
 8762TIP3   OH250480   7.627   1.312   2.474  0.7600 -0.1050 -0.4561
 8762TIP3    H150481   7.652   1.259   2.398  1.3626  0.2773 -0.5282
 8762TIP3    H250482   7.635   1.252   2.548 -0.2281 -0.6041 -0.7203
 8763TIP3   OH250483   7.538   4.866   0.831  0.0209 -0.3393  0.1613
 8763TIP3    H150484   7.460   4.825   0.792 -0.3557  1.0929 -0.6648
 8763TIP3    H250485   7.559   4.810   0.906 -2.4257 -0.2438  1.0387
 8764TIP3   OH250486   6.397   5.370   9.262  0.0680  0.2795  0.0043
 8764TIP3    H150487   6.440   5.286   9.280  0.3999 -0.1668 -2.4431
 8764TIP3    H250488   6.461   5.435   9.290  0.2395 -0.2884  0.9885
 8765TIP3   OH250489   0.774   6.498   2.555  0.5643 -0.5406  0.2605
 8765TIP3    H150490   0.837   6.427   2.562  0.4054 -0.9273 -1.7457
 8765TIP3    H250491   0.826   6.575   2.535  0.5265 -0.5428  0.1561
 8766TIP3   OH250492   5.599   6.278   1.777 -0.3423  0.0315  0.4460
 8766TIP3    H150493   5.591   6.194   1.822  0.5470  0.3098  1.1440
 8766TIP3    H250494   5.693   6.288   1.761 -0.6151  0.0233 -1.3418
 8767TIP3   OH250495   6.391   4.471   0.750  0.5478  0.1067  0.2354
 8767TIP3    H150496   6.340   4.393   0.772 -1.2354  1.1008 -0.1876
 8767TIP3    H250497   6.356   4.500   0.666  1.7878  0.8653 -0.0393
 8768TIP3   OH250498   6.450   7.184   0.907  0.7289  0.0087 -0.3232
 8768TIP3    H150499   6.464   7.121   0.836 -0.2568 -0.0098 -0.5111
 8768TIP3    H250500   6.525   7.244   0.901  1.2371 -0.6491 -0.6706
 8769TIP3   OH250501   1.660   1.153   1.309  0.3499  0.0212 -0.3354
 8769TIP3    H150502   1.604   1.095   1.361 -1.2544 -0.0681 -2.0577
 8769TIP3    H250503   1.748   1.135   1.340 -0.5945  1.3212  3.6581
 8770TIP3   OH250504   2.300   1.678   0.320 -0.2790 -0.2776 -0.1870
 8770TIP3    H150505   2.347   1.651   0.241 -0.5107 -0.8432 -0.1329
 8770TIP3    H250506   2.315   1.608   0.383 -1.4737 -0.6364 -0.2844
 8771TIP3   OH250507   5.707   3.646   0.565  0.2553  0.2222  0.3776
 8771TIP3    H150508   5.628   3.678   0.522 -1.2472 -1.5721  1.6045
 8771TIP3    H250509   5.711   3.694   0.648  1.4254  1.4903 -0.3808
 8772TIP3   OH250510   6.041   7.548   1.833  0.6320  0.3409  0.4585
 8772TIP3    H150511   5.956   7.585   1.807  0.4558  0.5325  1.2874
 8772TIP3    H250512   6.097   7.565   1.758 -0.1331 -0.0477 -0.2191
 8773TIP3   OH250513   2.624   1.666   1.330 -0.1542 -0.7955  0.3256
 8773TIP3    H150514   2.569   1.743   1.321 -0.2497 -0.8744  0.2435
 8773TIP3    H250515   2.686   1.689   1.400  0.9518  0.0253 -0.8740
 8774TIP3   OH250516   3.731   3.163   1.078 -0.3349  0.0618  0.0753
 8774TIP3    H150517   3.687   3.082   1.053 -0.8409  0.0066  1.0907
 8774TIP3    H250518   3.767   3.197   0.996 -0.9811 -0.6702 -0.5286
 8775TIP3   OH250519   6.925   3.904   1.333 -0.3592  0.2233 -0.1120
 8775TIP3    H150520   6.889   3.828   1.379  0.6430 -0.1910  0.0031
 8775TIP3    H250521   6.945   3.871   1.245  1.2281  0.0147  0.3094
 8776TIP3   OH250522   6.749   4.976   7.258 -0.1775 -0.1034 -0.1624
 8776TIP3    H150523   6.664   5.013   7.281  0.4340  0.0331  2.1358
 8776TIP3    H250524   6.811   5.047   7.273  0.3106  0.0955 -2.7193
 8777TIP3   OH250525   1.442   6.335   3.244  0.2325  0.2203 -0.1749
 8777TIP3    H150526   1.473   6.285   3.169  1.5968  0.8696 -0.0644
 8777TIP3    H250527   1.492   6.417   3.241  1.1630 -0.1934  2.0690
 8778TIP3   OH250528   2.240   2.654   2.844  0.0159 -0.4322 -0.4927
 8778TIP3    H150529   2.163   2.602   2.864 -0.1987  0.5169  1.4821
 8778TIP3    H250530   2.300   2.636   2.917  0.0426  1.7888  0.1037
 8779TIP3   OH250531   4.286   4.868   3.071  0.1770  0.6325  0.3821
 8779TIP3    H150532   4.376   4.899   3.080  0.3511 -0.1019  1.2462
 8779TIP3    H250533   4.258   4.903   2.986  0.9219  1.7198  0.5661
 8780TIP3   OH250534   5.805   1.031   2.242 -0.0447  0.2940  0.5836
 8780TIP3    H150535   5.818   0.980   2.162 -0.4746 -0.3387  0.9097
 8780TIP3    H250536   5.711   1.025   2.260 -0.3098  2.1422  0.0186
 8781TIP3   OH250537   0.209   0.976   2.260 -0.1721  0.4807  0.0830
 8781TIP3    H150538   0.241   1.009   2.177 -0.0482 -2.2896 -1.0769
 8781TIP3    H250539   0.234   1.043   2.324  1.7149  1.6494 -1.7627
 8782TIP3   OH250540   2.554   2.158   0.984  0.0675  0.1917 -0.7644
 8782TIP3    H150541   2.613   2.192   0.917  0.1304  0.3183 -0.6443
 8782TIP3    H250542   2.467   2.170   0.947 -0.0351  2.2508  0.0680
 8783TIP3   OH250543   5.533   7.644   1.769 -0.1406  0.5151  0.6796
 8783TIP3    H150544   5.504   7.734   1.758 -1.7263 -0.0766 -0.4544
 8783TIP3    H250545   5.458   7.599   1.809  1.4869  0.1588  3.5696
 8784TIP3   OH250546   2.053   5.444   2.450 -0.0061  0.7170 -0.0345
 8784TIP3    H150547   2.003   5.500   2.391  0.4822 -1.4827 -2.7533
 8784TIP3    H250548   2.045   5.486   2.536 -3.5094  2.3380 -0.9788
 8785TIP3   OH250549   6.892   6.542   1.291  0.1759 -0.2061  0.3625
 8785TIP3    H150550   6.843   6.569   1.369  0.6584 -0.2674  0.6917
 8785TIP3    H250551   6.883   6.447   1.289 -0.2754 -0.1608  0.0419
 8786TIP3   OH250552   0.588   4.497   2.095 -0.1705 -0.5261 -0.5090
 8786TIP3    H150553   0.646   4.518   2.021 -0.3836  2.4505  0.0393
 8786TIP3    H250554   0.647   4.468   2.164  0.0027 -3.7818 -1.8382
 8787TIP3   OH250555   3.968   7.056   0.586 -0.3031  0.0707 -0.5122
 8787TIP3    H150556   3.964   7.124   0.653 -1.4728  0.2932 -0.7923
 8787TIP3    H250557   3.898   6.995   0.608  0.6997 -1.0265 -0.3029
 8788TIP3   OH250558   4.890   7.488   2.469  0.1368  0.4149  0.5073
 8788TIP3    H150559   4.975   7.447   2.454 -0.0485 -0.1089  0.8616
 8788TIP3    H250560   4.910   7.566   2.520  0.3193 -0.2402  1.4672
 8789TIP3   OH250561   0.721   1.047   2.272 -0.0515  0.0372  1.1140
 8789TIP3    H150562   0.804   1.084   2.303  2.6858 -2.2055 -2.6446
 8789TIP3    H250563   0.725   0.955   2.299 -2.0332  0.1590  1.9658
 8790TIP3   OH250564   0.773   3.892   2.662  0.1157  0.1461 -0.4024
 8790TIP3    H150565   0.690   3.928   2.693  0.0378  0.0914 -0.5452
 8790TIP3    H250566   0.791   3.819   2.722 -0.0064  0.0752 -0.4513
 8791TIP3   OH250567   6.421   0.755   3.285 -0.0570 -0.4596  0.0597
 8791TIP3    H150568   6.405   0.752   3.191  0.9881  0.1754 -0.1596
 8791TIP3    H250569   6.368   0.683   3.321  0.4671 -1.4978 -1.1583
 8792TIP3   OH250570   2.314   2.409   1.628 -0.5276  0.2701  0.1431
 8792TIP3    H150571   2.307   2.356   1.707 -0.6251  0.3777  0.2055
 8792TIP3    H250572   2.353   2.491   1.658 -0.5409  0.3013  0.0743
 8793TIP3   OH250573   5.959   2.802   2.384 -0.0676 -0.5922  0.5252
 8793TIP3    H150574   5.904   2.776   2.458 -1.3809 -0.1310 -0.2672
 8793TIP3    H250575   5.938   2.894   2.369  0.6381 -0.5147 -0.0536
 8794TIP3   OH250576   7.166   6.535   1.391  0.5557  0.1264 -0.3998
 8794TIP3    H150577   7.196   6.444   1.392 -0.3652 -0.2192  2.2004
 8794TIP3    H250578   7.073   6.530   1.369  0.2228  0.2807  0.8743
 8795TIP3   OH250579   3.175   0.819   1.491 -0.0098 -0.1272 -1.0665
 8795TIP3    H150580   3.084   0.789   1.494  0.0802 -0.3436  0.1645
 8795TIP3    H250581   3.226   0.739   1.476  0.2046 -0.6590  1.8747
 8796TIP3   OH250582   3.157   0.275   1.024  0.1645  0.4101  0.2507
 8796TIP3    H150583   3.223   0.341   1.044  1.3526 -1.1190  1.7393
 8796TIP3    H250584   3.193   0.227   0.949  0.7784 -0.4103  1.0492
 8797TIP3   OH250585   3.834   3.858   1.820  0.1724  0.3963  0.0887
 8797TIP3    H150586   3.861   3.950   1.819  3.0496 -0.3226 -2.5098
 8797TIP3    H250587   3.774   3.850   1.746  0.6933  0.0249 -0.3042
 8798TIP3   OH250588   4.586   1.221   1.755 -0.5559  0.1469 -0.1421
 8798TIP3    H150589   4.679   1.240   1.746 -0.6639  0.6071 -0.3617
 8798TIP3    H250590   4.581   1.127   1.772 -0.1404 -0.1612 -1.6485
 8799TIP3   OH250591   4.322   1.148   1.759 -0.0502 -0.6395  0.3419
 8799TIP3    H150592   4.413   1.169   1.739  0.1662  0.3051  2.1047
 8799TIP3    H250593   4.270   1.210   1.708  0.1107 -2.5243 -2.3389
 8800TIP3   OH250594   5.160   3.406   1.626 -0.0124  0.3097  0.1915
 8800TIP3    H150595   5.138   3.366   1.711  0.8498  3.2517  1.9673
 8800TIP3    H250596   5.081   3.453   1.601  0.2442  0.7522  0.2061
 8801TIP3   OH250597   6.436   2.923   0.624  0.3356  0.2063  0.0977
 8801TIP3    H150598   6.442   2.833   0.592  1.2621 -0.0273  0.8940
 8801TIP3    H250599   6.480   2.922   0.709  0.0395  1.3330  0.2839
 8802TIP3   OH250600   5.174   3.182   0.580  0.5097 -0.4679 -0.7790
 8802TIP3    H150601   5.230   3.177   0.503  0.1235 -0.9100 -1.0437
 8802TIP3    H250602   5.211   3.117   0.640 -1.1205 -2.6258 -1.9319
 8803TIP3   OH250603   6.522   2.834   1.324  0.5930  0.5989 -0.2332
 8803TIP3    H150604   6.480   2.892   1.260  1.6916  0.7749 -0.8217
 8803TIP3    H250605   6.588   2.787   1.274 -1.3374 -2.4504 -0.1397
 8804TIP3   OH250606   6.192   4.111   1.326 -0.0784  0.1048  0.5229
 8804TIP3    H150607   6.102   4.143   1.333 -0.7486 -1.5188 -0.0672
 8804TIP3    H250608   6.188   4.022   1.361  1.4912  0.2930  1.2405
 8805TIP3   OH250609   2.709   0.414   1.575  0.2315 -0.2075  0.3634
 8805TIP3    H150610   2.791   0.436   1.531 -0.5620  0.6188 -0.7439
 8805TIP3    H250611   2.642   0.426   1.509 -0.6359 -2.8313  0.6464
 8806TIP3   OH250612   5.763   1.928   2.982 -0.1936  1.2163 -0.5106
 8806TIP3    H150613   5.840   1.977   3.008 -1.1689  2.3373  0.3441
 8806TIP3    H250614   5.765   1.848   3.035 -0.0027  1.5805  0.0265
 8807TIP3   OH250615   1.053   1.356   1.263  0.3178 -0.5148  0.0578
 8807TIP3    H150616   1.049   1.424   1.330 -0.8573  1.2117 -1.6766
 8807TIP3    H250617   1.142   1.363   1.227 -0.6533  2.3250 -2.1710
 8808TIP3   OH250618   4.481   5.099   2.173  0.0127 -0.0804 -0.6464
 8808TIP3    H150619   4.565   5.058   2.153 -0.0025 -0.2915 -0.2975
 8808TIP3    H250620   4.496   5.143   2.257 -0.4868 -0.9224 -0.0947
 8809TIP3   OH250621   5.609   2.076   2.810 -0.2744  0.2285 -0.8780
 8809TIP3    H150622   5.645   2.006   2.864  0.0327 -0.8787 -2.4710
 8809TIP3    H250623   5.615   2.154   2.866  2.1329 -0.4068 -0.1274
 8810TIP3   OH250624   1.962   6.378   2.057  0.4001  0.3622  0.5985
 8810TIP3    H150625   1.975   6.347   1.968 -1.4125 -1.4192  0.8985
 8810TIP3    H250626   1.988   6.471   2.054 -0.5916  0.6296 -1.9993
 8811TIP3   OH250627   7.012   6.285   2.003  0.0983 -0.5583 -0.2993
 8811TIP3    H150628   6.927   6.251   1.974  0.2619 -0.8967 -0.3885
 8811TIP3    H250629   7.026   6.364   1.951 -0.4849 -0.1030  0.2137
 8812TIP3   OH250630   0.113   3.073   1.925  0.4671  0.4426 -0.8780
 8812TIP3    H150631   0.176   3.022   1.874 -0.8182  0.7810 -2.9303
 8812TIP3    H250632   0.163   3.106   2.000  1.5636 -3.0788  0.1477
 8813TIP3   OH250633   1.266   5.275   1.568  0.4914  0.1205  0.1047
 8813TIP3    H150634   1.325   5.212   1.609  0.3685 -0.5385 -0.6960
 8813TIP3    H250635   1.243   5.336   1.638  1.0620 -0.3952  0.7548
 8814TIP3   OH250636   3.647   4.495   1.958 -0.0157 -0.4167 -0.2529
 8814TIP3    H150637   3.589   4.537   2.021  1.1989 -0.4961  0.9707
 8814TIP3    H250638   3.595   4.424   1.921 -0.7885 -0.3215  0.6052
 8815TIP3   OH250639   7.529   2.259   1.946 -0.1566 -0.1773  0.1469
 8815TIP3    H150640   7.581   2.336   1.969 -0.0288 -0.2963  0.2597
 8815TIP3    H250641   7.593   2.199   1.905 -0.6074  0.5548 -1.7585
 8816TIP3   OH250642   3.075   1.298   2.280  0.8182 -0.3713 -0.0131
 8816TIP3    H150643   3.097   1.247   2.358  0.5290  0.6043  0.7130
 8816TIP3    H250644   3.020   1.238   2.228  0.3913 -0.7705  0.8765
 8817TIP3   OH250645   6.035   0.871   0.673  0.0381  0.9576 -0.1215
 8817TIP3    H150646   6.088   0.813   0.619  2.3697  3.7942 -1.1549
 8817TIP3    H250647   6.021   0.823   0.755  0.3112 -1.6499 -1.5097
 8818TIP3   OH250648   6.060   0.466   1.160  0.4171  0.4808 -0.0343
 8818TIP3    H150649   6.087   0.380   1.128 -1.0915 -0.1269  0.2635
 8818TIP3    H250650   6.086   0.466   1.252 -1.5763 -0.5761  0.5746
 8819TIP3   OH250651   7.058   2.220   1.462 -0.4337 -0.5431 -0.0729
 8819TIP3    H150652   7.116   2.171   1.520  0.3224 -0.6718 -0.9130
 8819TIP3    H250653   6.970   2.206   1.497  0.1173  0.4866  1.8202
 8820TIP3   OH250654   4.168   4.962   1.943 -0.1339 -0.0870  0.4634
 8820TIP3    H150655   4.254   4.943   1.905  0.5732  1.7118  1.0434
 8820TIP3    H250656   4.105   4.929   1.879  0.9790 -1.4419  0.0259
 8821TIP3   OH250657   7.320   4.749   0.657 -0.0410  0.4722 -0.3186
 8821TIP3    H150658   7.291   4.683   0.720 -0.7624  0.7302 -0.3792
 8821TIP3    H250659   7.242   4.772   0.608  0.3584  0.8409 -0.7917
 8822TIP3   OH250660   5.255   3.890   2.183 -0.0422  0.3421 -0.0137
 8822TIP3    H150661   5.322   3.824   2.201  1.6180  1.7965 -0.4773
 8822TIP3    H250662   5.292   3.942   2.111 -2.3919  0.2887 -1.3689
 8823TIP3   OH250663   3.451   0.965   1.984  0.1718  0.1103  0.3482
 8823TIP3    H150664   3.459   1.027   2.057  1.6805 -1.1070  1.2711
 8823TIP3    H250665   3.401   1.013   1.918  0.7405  2.0962  1.2697
 8824TIP3   OH250666   6.772   6.367   1.526  0.4789 -0.3029  0.2604
 8824TIP3    H150667   6.851   6.318   1.547 -0.5402 -1.2965  1.9566
 8824TIP3    H250668   6.700   6.306   1.540 -0.6549  0.6682 -0.9380
 8825TIP3   OH250669   1.729   4.573   2.650 -0.1346 -0.1471  0.2392
 8825TIP3    H150670   1.763   4.552   2.563  0.3126  0.4870  0.2570
 8825TIP3    H250671   1.660   4.638   2.633  0.4805  0.5578  0.4174
 8826TIP3   OH250672   2.982   0.851   2.398  0.1176 -0.2270  0.2025
 8826TIP3    H150673   2.932   0.787   2.448  0.4287 -0.6574 -0.0403
 8826TIP3    H250674   2.948   0.844   2.309 -0.7047  0.8034  0.3997
 8827TIP3   OH250675   0.619   6.341   3.057  1.1592 -0.0903  0.1818
 8827TIP3    H150676   0.590   6.393   3.132  1.7465  0.6195 -0.0738
 8827TIP3    H250677   0.677   6.399   3.009  1.8280 -0.9852 -0.1118
 8828TIP3   OH250678   4.168   1.274   0.687 -0.1840 -0.4916 -0.4160
 8828TIP3    H150679   4.245   1.235   0.731  0.4239  1.0918  0.0085
 8828TIP3    H250680   4.179   1.368   0.701 -0.4923  0.0155 -3.1705
 8829TIP3   OH250681   5.238   1.909   1.668 -0.3312 -0.0671 -0.0625
 8829TIP3    H150682   5.228   1.909   1.763  1.0409 -1.8916  0.1229
 8829TIP3    H250683   5.327   1.941   1.653 -0.3700 -0.2375 -0.7109
 8830TIP3   OH250684   0.650   4.289   2.966  0.2502  0.4239  0.3277
 8830TIP3    H150685   0.655   4.197   2.993  2.9087  0.9357  1.9004
 8830TIP3    H250686   0.733   4.327   2.994 -1.2672  3.6510  0.9253
 8831TIP3   OH250687   0.766   5.767   2.381 -0.5458 -0.5242  0.5937
 8831TIP3    H150688   0.743   5.702   2.315  1.1100 -0.1229 -0.4359
 8831TIP3    H250689   0.742   5.727   2.464 -1.7550 -1.4500 -0.1667
 8832TIP3   OH250690   2.801   4.146   1.360 -0.1421  0.0338  0.2572
 8832TIP3    H150691   2.805   4.181   1.271  1.0024 -2.8090 -0.9284
 8832TIP3    H250692   2.748   4.067   1.353 -0.6764  0.1384  2.2974
 8833TIP3   OH250693   1.137   1.940   2.143 -0.1533 -0.1451 -0.3930
 8833TIP3    H150694   1.221   1.902   2.170 -0.1292 -0.6472 -1.1602
 8833TIP3    H250695   1.088   1.867   2.106 -1.9046 -0.4146  2.1789
 8834TIP3   OH250696   4.224   3.053   0.686 -0.0265  0.4524 -0.4813
 8834TIP3    H150697   4.289   3.023   0.623  0.1014 -2.2238  0.7897
 8834TIP3    H250698   4.153   2.989   0.679 -0.1842  0.3051  1.7760
 8835TIP3   OH250699   7.483   3.095   0.778 -0.2371  0.2870  0.1007
 8835TIP3    H150700   7.549   3.164   0.771  0.6252 -0.6656 -2.6101
 8835TIP3    H250701   7.431   3.104   0.697 -0.8460 -1.4905  0.2577
 8836TIP3   OH250702   5.697   0.271   1.563 -0.7556 -0.6777 -1.2292
 8836TIP3    H150703   5.748   0.231   1.633 -2.7262 -1.2867 -0.0474
 8836TIP3    H250704   5.761   0.294   1.496  1.0334 -1.3297  0.1832
 8837TIP3   OH250705   7.569   2.411   2.387  0.1867  0.1284 -0.4584
 8837TIP3    H150706   7.595   2.341   2.327 -0.6578 -0.6925  0.1291
 8837TIP3    H250707   7.516   2.368   2.454  0.9819  1.0603  0.8081
 8838TIP3   OH250708   5.074   1.382   0.846  0.1462  0.1736  0.1344
 8838TIP3    H150709   5.127   1.316   0.801  1.3177  0.7804  0.5760
 8838TIP3    H250710   5.010   1.410   0.781 -0.5852 -1.6004  0.0348
 8839TIP3   OH250711   2.892   2.891   2.650 -0.3010 -0.8748  0.2256
 8839TIP3    H150712   2.912   2.801   2.677  0.4282 -0.9628 -0.5619
 8839TIP3    H250713   2.857   2.883   2.562  1.1321 -0.3057 -0.4413
 8840TIP3   OH250714   6.567   0.666   1.355 -0.1247  0.2817 -0.1588
 8840TIP3    H150715   6.663   0.666   1.362 -0.1615  0.9353  0.5648
 8840TIP3    H250716   6.548   0.717   1.277  0.0880  1.4904  0.5608
 8841TIP3   OH250717   1.760   0.889   1.527  0.0800  0.3444  0.0676
 8841TIP3    H150718   1.669   0.891   1.497  0.1325  0.4573 -0.0866
 8841TIP3    H250719   1.802   0.824   1.472  0.5655  1.7012 -1.2445
 8842TIP3   OH250720   2.086   2.125   0.405 -0.1861  0.2179 -1.5647
 8842TIP3    H150721   1.994   2.125   0.433 -0.4496 -0.1574 -2.4064
 8842TIP3    H250722   2.085   2.171   0.321  0.4471  0.4929 -1.4219
 8843TIP3   OH250723   2.372   2.570   2.238  0.4197  0.3240  0.1833
 8843TIP3    H150724   2.406   2.598   2.323 -0.0288  1.5655 -0.0322
 8843TIP3    H250725   2.328   2.647   2.203 -2.1793 -1.0437  0.2157
 8844TIP3   OH250726   2.132   0.287   0.686  0.0064  0.1716 -0.2932
 8844TIP3    H150727   2.170   0.348   0.622 -0.7642  0.5214 -0.4294
 8844TIP3    H250728   2.131   0.336   0.768  1.4313 -0.4427  0.1059
 8845TIP3   OH250729   3.305   2.929   1.002 -1.0636  0.5269 -0.1235
 8845TIP3    H150730   3.354   2.872   1.061 -2.5614 -0.7294 -0.0155
 8845TIP3    H250731   3.369   2.960   0.939  0.2836  0.7245  1.2865
 8846TIP3   OH250732   4.634   0.612   2.003  0.1492  0.3169  0.1150
 8846TIP3    H150733   4.698   0.550   1.969  0.0239  0.4833 -0.4290
 8846TIP3    H250734   4.615   0.580   2.092 -1.0199 -1.2976 -0.6570
 8847TIP3   OH250735   2.222   2.948   0.948  0.2989 -0.1230 -0.0452
 8847TIP3    H150736   2.134   2.919   0.971 -0.6121 -0.5649 -3.5609
 8847TIP3    H250737   2.280   2.880   0.984 -1.0839 -1.5876 -0.4988
 8848TIP3   OH250738   1.845   4.633   2.384  0.0231  0.3142  0.3690
 8848TIP3    H150739   1.859   4.606   2.293 -0.4283 -1.9181  0.9095
 8848TIP3    H250740   1.931   4.662   2.414  0.7663 -1.3617 -0.0382
 8849TIP3   OH250741   7.561   1.826   0.712  0.2122  0.2700  0.1830
 8849TIP3    H150742   7.598   1.848   0.797 -0.7925 -2.3888  1.4024
 8849TIP3    H250743   7.635   1.792   0.661  0.7975  1.7997 -0.0248
 8850TIP3   OH250744   1.864   3.472   2.633  0.7058 -0.3514 -0.1411
 8850TIP3    H150745   1.919   3.443   2.560 -0.1232  0.2417 -1.0290
 8850TIP3    H250746   1.812   3.543   2.597  0.9112  0.5636  1.2932
 8851TIP3   OH250747   6.074   6.646   3.239 -0.0279 -0.2653 -0.3322
 8851TIP3    H150748   6.150   6.593   3.217 -1.2808 -1.3898 -2.2330
 8851TIP3    H250749   6.035   6.602   3.315 -0.1577 -1.1721 -0.9074
 8852TIP3   OH250750   5.594   2.430   1.832  0.0104  0.1011 -0.3325
 8852TIP3    H150751   5.600   2.455   1.924 -2.3796 -0.2166 -0.0443
 8852TIP3    H250752   5.584   2.513   1.785 -0.0679  0.1818 -0.1738
 8853TIP3   OH250753   3.996   4.694   0.670  0.5280  0.2471  0.3413
 8853TIP3    H150754   4.050   4.634   0.619  0.8183  0.6332  0.1931
 8853TIP3    H250755   4.056   4.732   0.735  0.1594 -0.2595  0.9957
 8854TIP3   OH250756   0.542   4.077   0.916  0.5575 -0.8137 -0.3888
 8854TIP3    H150757   0.631   4.085   0.949  0.1034  0.3455  0.6278
 8854TIP3    H250758   0.518   4.167   0.891 -1.3224 -0.5486  2.0704
 8855TIP3   OH250759   3.049   5.320   0.770  0.9168 -0.0072  0.0962
 8855TIP3    H150760   3.053   5.243   0.713 -1.7256  0.7473 -1.2851
 8855TIP3    H250761   3.008   5.288   0.850  0.5507 -0.2001 -0.1661
 8856TIP3   OH250762   6.487   7.026   2.260  0.4014 -0.3317 -0.0759
 8856TIP3    H150763   6.397   7.007   2.285  0.4457  1.1801  1.3727
 8856TIP3    H250764   6.483   7.037   2.165 -0.5141 -2.2836 -0.3325
 8857TIP3   OH250765   6.176   2.452   0.538  0.7823  0.4271 -0.2160
 8857TIP3    H150766   6.227   2.409   0.607 -0.7391 -0.2606  0.5296
 8857TIP3    H250767   6.096   2.399   0.530 -0.2999  2.0333 -0.5974
 8858TIP3   OH250768   0.003   4.508   2.296  0.3733 -0.2815  0.3343
 8858TIP3    H150769  -0.070   4.553   2.253 -0.3711 -2.6390 -1.0610
 8858TIP3    H250770   0.007   4.547   2.384 -0.7259  1.8298 -0.4826
 8859TIP3   OH250771   0.321   4.996   0.597 -0.1694  0.3808  0.5168
 8859TIP3    H150772   0.273   4.979   0.678  1.0833 -0.1739  1.1798
 8859TIP3    H250773   0.270   4.953   0.529 -3.3883  4.0901  0.2598
 8860TIP3   OH250774   2.558   4.099   1.851  0.3940 -0.1452  0.2308
 8860TIP3    H150775   2.487   4.042   1.881  0.4454 -0.2531  0.1490
 8860TIP3    H250776   2.616   4.041   1.802  0.4952 -0.0404  0.2255
 8861TIP3   OH250777   4.906   5.380   1.214 -0.8599 -0.0187 -0.1167
 8861TIP3    H150778   4.943   5.423   1.291 -2.8454  1.7061 -0.0218
 8861TIP3    H250779   4.867   5.299   1.248  1.2532 -1.0212  0.0418
 8862TIP3   OH250780   7.180   6.799   1.212 -0.2065  0.0545 -0.3687
 8862TIP3    H150781   7.206   6.761   1.128  1.5495 -0.8324  0.5176
 8862TIP3    H250782   7.143   6.726   1.261 -1.9687  0.7399 -0.6183
 8863TIP3   OH250783   0.536   1.283   2.720  0.0514  0.6661 -0.6510
 8863TIP3    H150784   0.520   1.319   2.633 -0.8402 -1.2693 -1.3379
 8863TIP3    H250785   0.531   1.359   2.779 -0.3304  1.8475 -2.1568
 8864TIP3   OH250786   3.933   5.357   2.766 -0.6353 -0.0157  0.6800
 8864TIP3    H150787   3.986   5.406   2.703  0.1574 -0.4426  0.9980
 8864TIP3    H250788   3.910   5.276   2.720 -1.2592  0.2827  0.4461
 8865TIP3   OH250789   4.725   5.197   1.307 -0.0069  0.2249 -0.5784
 8865TIP3    H150790   4.692   5.139   1.376  1.4378 -0.9417 -0.8164
 8865TIP3    H250791   4.647   5.243   1.276 -0.6224  1.3640  2.3108
 8866TIP3   OH250792   6.180   4.580   2.260  0.5151  0.0370  0.1503
 8866TIP3    H150793   6.169   4.512   2.194 -1.3269 -0.7941  1.2304
 8866TIP3    H250794   6.209   4.534   2.338  0.3863  0.6502  0.5735
 8867TIP3   OH250795   0.693   5.623   0.736 -0.1187 -0.2283  0.4148
 8867TIP3    H150796   0.747   5.566   0.791 -1.5572 -1.0097  1.0685
 8867TIP3    H250797   0.634   5.563   0.690  0.5034  0.4785 -1.4047
 8868TIP3   OH250798   1.589   6.497   2.072 -0.3404  0.4341 -0.0256
 8868TIP3    H150799   1.544   6.519   2.153 -0.6021  0.4552 -0.1781
 8868TIP3    H250800   1.658   6.563   2.065  0.8881 -0.6572  1.1358
 8869TIP3   OH250801   0.671   6.654   3.081 -0.4371 -0.4422 -0.0436
 8869TIP3    H150802   0.758   6.656   3.041 -0.9278  0.0902 -1.1366
 8869TIP3    H250803   0.612   6.686   3.012 -1.3376  0.4488  1.0868
 8870TIP3   OH250804   5.620   4.609   1.491 -0.4458  0.3372  0.0575
 8870TIP3    H150805   5.538   4.658   1.487 -1.8613 -1.5498  2.5744
 8870TIP3    H250806   5.604   4.531   1.437 -0.2016  0.1239  0.2898
 8871TIP3   OH250807   5.405   3.564   0.709 -0.1907  0.1072  0.4780
 8871TIP3    H150808   5.388   3.552   0.615  1.6864 -1.8797  0.2870
 8871TIP3    H250809   5.329   3.526   0.752  0.0677 -1.3639 -0.2854
 8872TIP3   OH250810   0.260   3.801   1.652  0.5998 -0.4011  0.9957
 8872TIP3    H150811   0.277   3.887   1.690 -0.8668  0.2090  0.3829
 8872TIP3    H250812   0.283   3.810   1.559  2.1992 -1.2577  1.2704
 8873TIP3   OH250813   0.115   3.153   0.568 -0.4798 -0.3380 -0.8370
 8873TIP3    H150814   0.112   3.060   0.546 -1.7085 -1.2317  2.5423
 8873TIP3    H250815   0.207   3.171   0.587 -0.1177 -0.5999 -2.1778
 8874TIP3   OH250816   6.178   2.252   3.014 -0.0994  0.6963  0.4723
 8874TIP3    H150817   6.196   2.346   3.022  1.7141  0.4130  0.0093
 8874TIP3    H250818   6.229   2.211   3.083  1.6159 -0.1904 -1.2442
 8875TIP3   OH250819   1.332   1.868   1.107  0.5126  0.0099 -0.0512
 8875TIP3    H150820   1.407   1.835   1.156  0.5454 -0.0618 -0.1498
 8875TIP3    H250821   1.359   1.861   1.015 -0.4489 -2.0506 -0.2101
 8876TIP3   OH250822   1.651   0.013   0.629 -0.0648  0.4846 -0.0944
 8876TIP3    H150823   1.587  -0.014   0.694 -1.0580  2.1856 -0.3151
 8876TIP3    H250824   1.643  -0.053   0.559 -0.7780  0.0606  0.3750
 8877TIP3   OH250825   7.618   4.813   2.556  0.3911 -0.7622 -0.4336
 8877TIP3    H150826   7.572   4.773   2.483  2.2640 -2.6889 -0.6547
 8877TIP3    H250827   7.689   4.752   2.577  2.5220  1.7083  0.2082
 8878TIP3   OH250828   1.701   2.711   1.148 -0.2630  0.5787 -0.0144
 8878TIP3    H150829   1.675   2.716   1.240 -0.4017  5.8153 -0.0427
 8878TIP3    H250830   1.791   2.679   1.151 -0.8929 -1.2360  1.6673
 8879TIP3   OH250831   1.546   4.787   3.233 -0.6546 -0.0333  0.1628
 8879TIP3    H150832   1.482   4.838   3.281 -2.3436 -0.7648 -1.2263
 8879TIP3    H250833   1.596   4.851   3.184 -0.9801  0.4706  0.4834
 8880TIP3   OH250834   0.712   0.444   1.836  0.1155 -0.6829 -0.3460
 8880TIP3    H150835   0.740   0.508   1.902  0.0879  0.2049 -1.1731
 8880TIP3    H250836   0.749   0.477   1.754 -0.0989 -1.6138 -0.8298
 8881TIP3   OH250837   6.476   4.281   2.034 -0.5947 -0.1475  0.2709
 8881TIP3    H150838   6.519   4.250   1.954 -1.6915 -2.0659  0.3662
 8881TIP3    H250839   6.527   4.242   2.105 -1.0895 -0.5060  0.4345
 8882TIP3   OH250840   0.535   6.608   1.913 -0.2924  0.1388  0.7372
 8882TIP3    H150841   0.530   6.517   1.883  2.0060 -0.4812  1.9535
 8882TIP3    H250842   0.577   6.655   1.841  1.0139 -0.3815  1.1256
 8883TIP3   OH250843   4.722   2.113   0.536  0.6558  0.5962 -0.0856
 8883TIP3    H150844   4.816   2.103   0.517 -0.0483 -1.4476 -3.5209
 8883TIP3    H250845   4.687   2.024   0.525 -1.6109  1.1593  1.9199
 8884TIP3   OH250846   3.099   1.029   1.894  0.2132  0.2583  0.2644
 8884TIP3    H150847   3.077   1.035   1.801  1.3806  1.8802  0.0614
 8884TIP3    H250848   3.113   0.936   1.910 -0.4784 -0.0880 -1.0626
 8885TIP3   OH250849   5.131   7.442   1.781  0.1403  0.7067  0.2628
 8885TIP3    H150850   5.090   7.528   1.773 -2.7375 -0.5735  0.2946
 8885TIP3    H250851   5.146   7.432   1.875 -0.9299  0.5854  0.4310
 8886TIP3   OH250852   2.797   5.420   0.637  0.3071 -0.6959  0.1719
 8886TIP3    H150853   2.883   5.378   0.648  0.4200 -0.2012  1.4190
 8886TIP3    H250854   2.734   5.353   0.662  0.4736 -0.2736  1.8496
 8887TIP3   OH250855   6.991   5.321   3.062 -0.3318 -0.1474 -0.5081
 8887TIP3    H150856   6.954   5.324   3.150  0.3288 -0.3808 -0.2150
 8887TIP3    H250857   6.916   5.306   3.005 -0.8181  0.3640 -0.0247
 8888TIP3   OH250858   7.443   3.969   1.542 -0.2477 -0.3136 -0.7001
 8888TIP3    H150859   7.376   4.012   1.489 -0.9349 -1.0035 -0.3942
 8888TIP3    H250860   7.504   4.040   1.565 -0.2545  0.1053 -1.9112
 8889TIP3   OH250861   0.352   4.142   2.225  0.3796  0.0090  0.1184
 8889TIP3    H150862   0.300   4.203   2.275  1.5383  2.0197 -0.9942
 8889TIP3    H250863   0.400   4.091   2.290 -0.5851  0.3013  1.0693
 8890TIP3   OH250864   4.484   0.020   1.762 -0.7743  0.0398 -0.6788
 8890TIP3    H150865   4.496   0.014   1.857 -0.6029  0.3167 -0.6809
 8890TIP3    H250866   4.432  -0.057   1.739  0.5324 -0.8945 -0.5912
 8891TIP3   OH250867   6.165   5.792   2.689  0.1290  0.8970 -0.0755
 8891TIP3    H150868   6.108   5.738   2.744  0.2436  0.9247  0.0696
 8891TIP3    H250869   6.109   5.819   2.616  0.0858  0.5437 -0.1714
 8892TIP3   OH250870   1.389   2.949   1.442  0.1030  0.3406  0.0207
 8892TIP3    H150871   1.387   2.927   1.349  1.7592 -1.1834  0.2796
 8892TIP3    H250872   1.372   2.866   1.486 -0.7326  1.0568  1.1070
 8893TIP3   OH250873   7.417   2.901   0.961  0.5990 -0.1462 -0.8002
 8893TIP3    H150874   7.452   2.983   0.926  3.4010 -1.3546 -1.1366
 8893TIP3    H250875   7.487   2.837   0.946 -1.3166 -2.5411 -0.2325
 8894TIP3   OH250876   1.911   5.596   2.273  0.3103 -0.2684 -0.4356
 8894TIP3    H150877   1.835   5.651   2.292 -0.6564 -1.9748  0.9966
 8894TIP3    H250878   1.872   5.511   2.250  1.7712 -0.9067 -0.6272
 8895TIP3   OH250879   3.647   3.800   2.049  0.1336  0.4190 -0.6000
 8895TIP3    H150880   3.710   3.841   1.989 -1.1432  0.0576 -2.2928
 8895TIP3    H250881   3.628   3.715   2.009 -0.4349 -0.0329  0.5782
 8896TIP3   OH250882   4.345   1.847   0.762  0.0761 -0.2370 -0.2605
 8896TIP3    H150883   4.325   1.939   0.740 -1.6979 -0.3758  0.6357
 8896TIP3    H250884   4.437   1.837   0.737  0.4716  1.9277  0.0614
 8897TIP3   OH250885   7.607   7.244   1.337  0.3571 -0.3173  0.3075
 8897TIP3    H150886   7.689   7.195   1.323  0.6119 -0.0952  0.9732
 8897TIP3    H250887   7.545   7.204   1.276  0.4494 -1.7345  1.0859
 8898TIP3   OH250888   6.561   3.094   0.934 -0.1770 -0.4316  0.2479
 8898TIP3    H150889   6.640   3.061   0.891 -0.4300 -1.1097  0.2946
 8898TIP3    H250890   6.579   3.084   1.027 -0.1656 -0.2260  0.2679
 8899TIP3   OH250891   1.991   2.777   1.519  0.3051 -0.1133 -0.5745
 8899TIP3    H150892   1.934   2.707   1.488 -0.0574  0.7695 -2.0203
 8899TIP3    H250893   1.932   2.851   1.536  0.7274 -0.0051  0.4893
 8900TIP3   OH250894   4.671   1.196   2.331  0.6132  0.6903  0.1311
 8900TIP3    H150895   4.706   1.283   2.349 -0.6077  1.1239  0.5188
 8900TIP3    H250896   4.676   1.150   2.415 -0.2351  0.9397  0.3232
 8901TIP3   OH250897   2.625   3.937   1.366 -0.3122  0.9983  0.4118
 8901TIP3    H150898   2.543   3.982   1.346 -0.4548 -0.3632 -2.5155
 8901TIP3    H250899   2.623   3.858   1.311  2.4523  0.3235  1.1377
 8902TIP3   OH250900   2.844   6.578   2.185 -0.4513 -0.2743 -0.3940
 8902TIP3    H150901   2.931   6.588   2.148 -0.1520 -0.2256  0.3124
 8902TIP3    H250902   2.848   6.621   2.270 -0.0473 -3.4659  1.3555
 8903TIP3   OH250903   5.773   6.584   0.406 -0.1541  0.1195  0.6427
 8903TIP3    H150904   5.742   6.553   0.321 -0.7655 -0.5800  1.1085
 8903TIP3    H250905   5.723   6.664   0.423  1.2164  1.2676 -0.4282
 8904TIP3   OH250906   4.359   0.865   2.180  0.1006 -0.0863 -0.8743
 8904TIP3    H150907   4.330   0.923   2.252 -0.3200 -0.4402 -0.7561
 8904TIP3    H250908   4.445   0.899   2.155  0.1991  0.1114 -0.2772
 8905TIP3   OH250909   0.770   1.924   2.585 -0.1851  0.6382  0.8900
 8905TIP3    H150910   0.766   1.845   2.640 -1.1228 -0.8063 -1.1288
 8905TIP3    H250911   0.856   1.918   2.543  0.5312  1.7453  2.0960
 8906TIP3   OH250912   2.008   7.083   1.951 -0.0375 -0.7352  0.0241
 8906TIP3    H150913   2.081   7.092   2.013 -0.9773 -0.2593  1.0969
 8906TIP3    H250914   1.946   7.152   1.976 -0.4908 -0.5808 -1.4117
 8907TIP3   OH250915   6.247   2.715   0.530  0.6880  0.4034 -0.2916
 8907TIP3    H150916   6.260   2.699   0.623  1.1456 -0.2283 -0.4536
 8907TIP3    H250917   6.216   2.631   0.495  1.0211  0.4857 -0.7989
 8908TIP3   OH250918   3.685   1.334   2.956 -0.2296  0.1725 -0.1527
 8908TIP3    H150919   3.764   1.336   2.902  0.2815  2.2739  0.5911
 8908TIP3    H250920   3.638   1.256   2.926  2.3866 -1.5274 -0.2196
 8909TIP3   OH250921   1.525   0.887   0.906  0.4793  0.2886  0.4896
 8909TIP3    H150922   1.534   0.801   0.866  0.1970 -1.1481  3.2834
 8909TIP3    H250923   1.530   0.948   0.832 -0.9368 -2.1542 -1.8130
 8910TIP3   OH250924   5.889   7.203   1.106  0.5851  0.1040 -0.1266
 8910TIP3    H150925   5.833   7.281   1.110  0.5220  0.0854 -0.5766
 8910TIP3    H250926   5.891   7.180   1.013  0.2691 -0.6750  0.0522
 8911TIP3   OH250927   2.022   5.089   1.303  0.3092 -0.1315 -0.3892
 8911TIP3    H150928   2.104   5.109   1.257 -0.0174  1.0413 -0.4878
 8911TIP3    H250929   2.049   5.041   1.381  1.0408 -0.2696 -0.7217
 8912TIP3   OH250930   2.412   6.021   2.188 -0.7146 -0.7544 -0.2692
 8912TIP3    H150931   2.424   5.933   2.222 -0.8776 -1.0142 -0.8769
 8912TIP3    H250932   2.386   6.009   2.097 -1.3239 -0.0964 -0.1953
 8913TIP3   OH250933   6.359   7.444   2.007  0.0907 -0.5198  0.5119
 8913TIP3    H150934   6.314   7.398   1.936  1.0311 -0.4673 -0.1394
 8913TIP3    H250935   6.342   7.390   2.084 -1.6651 -0.1264  0.4449
 8914TIP3   OH250936   4.012   5.846   2.299  0.9740 -0.0584  0.1557
 8914TIP3    H150937   3.984   5.788   2.228 -3.2589 -1.6547  2.7293
 8914TIP3    H250938   4.064   5.791   2.357  1.7042  0.3420 -0.1064
 8915TIP3   OH250939   0.751   6.371   1.447 -0.2708 -0.3381 -0.6977
 8915TIP3    H150940   0.766   6.457   1.409  2.0005  0.1432  1.0584
 8915TIP3    H250941   0.804   6.312   1.393 -0.6920 -0.4068 -1.0376
 8916TIP3   OH250942   0.480   7.665   0.897  0.0784  0.0249 -0.3490
 8916TIP3    H150943   0.550   7.700   0.841  2.0555  0.6229  2.3121
 8916TIP3    H250944   0.439   7.743   0.935  0.4169 -0.3961  0.9010
 8917TIP3   OH250945   4.949   2.090   1.493  1.0280 -0.3387 -0.2990
 8917TIP3    H150946   4.987   2.148   1.559  2.8624 -1.0669 -0.6720
 8917TIP3    H250947   5.023   2.045   1.454 -0.2762 -2.4469 -0.5257
 8918TIP3   OH250948   4.105   7.351   3.240  0.4151  0.5353  0.1039
 8918TIP3    H150949   4.156   7.371   3.318 -0.5329  0.2568  0.8166
 8918TIP3    H250950   4.072   7.436   3.211 -2.0611  0.3756  2.0464
 8919TIP3   OH250951   6.198   6.545   0.808 -0.1552  0.7470 -0.1437
 8919TIP3    H150952   6.183   6.630   0.768 -0.7169  0.8148  0.1925
 8919TIP3    H250953   6.134   6.541   0.880 -0.7643 -0.3270 -0.7221
 8920TIP3   OH250954   2.612   4.818   2.025 -0.9564  0.6658  0.3227
 8920TIP3    H150955   2.643   4.728   2.026  0.5155  1.1014 -1.3960
 8920TIP3    H250956   2.692   4.871   2.020 -1.8514  1.9737 -0.8318
 8921TIP3   OH250957   0.357   5.002   3.396 -0.0456 -0.3880 -0.1102
 8921TIP3    H150958   0.312   4.952   3.463  0.8862 -1.3674 -0.1963
 8921TIP3    H250959   0.300   4.997   3.319  0.1687 -1.5801 -0.2059
 8922TIP3   OH250960   0.676   1.814   1.893 -0.0315 -0.2335 -0.1165
 8922TIP3    H150961   0.625   1.830   1.972  1.0155  1.3994  0.2860
 8922TIP3    H250962   0.705   1.723   1.902 -1.2269 -0.5679  0.5866
 8923TIP3   OH250963   0.170   2.512   1.615  0.0723 -0.0807 -0.1831
 8923TIP3    H150964   0.127   2.440   1.568  1.7143 -2.0256  1.1347
 8923TIP3    H250965   0.108   2.535   1.684 -1.2228  1.0354 -1.6382
 8924TIP3   OH250966   1.024   2.057   2.625  0.2979 -0.4337  0.1672
 8924TIP3    H150967   0.999   2.019   2.709 -1.3922  0.0968 -0.0603
 8924TIP3    H250968   1.089   2.124   2.648 -1.0766  0.5916  1.2256
 8925TIP3   OH250969   3.243   4.409   1.755 -0.2220 -0.9616  0.6684
 8925TIP3    H150970   3.184   4.376   1.823  0.0011 -0.8895  0.8997
 8925TIP3    H250971   3.213   4.367   1.674  0.2129 -1.9395  0.9947
 8926TIP3   OH250972   5.469   4.996   2.767  0.3717 -0.2004 -0.7350
 8926TIP3    H150973   5.465   4.973   2.860 -1.5850  4.8133  0.7691
 8926TIP3    H250974   5.541   5.058   2.761 -1.6203  2.2287 -1.5912
 8927TIP3   OH250975   0.254   2.590   3.594  0.4679 -0.3363  0.2362
 8927TIP3    H150976   0.288   2.656   3.533  0.2825 -0.5465 -0.0990
 8927TIP3    H250977   0.185   2.636   3.643  1.4002  0.1718  1.1120
 8928TIP3   OH250978   0.332   1.579   3.220 -0.2302 -0.0155 -0.2511
 8928TIP3    H150979   0.422   1.605   3.202 -0.0085  0.3262  1.1671
 8928TIP3    H250980   0.289   1.660   3.247  0.1076 -0.7505  2.9094
 8929TIP3   OH250981   5.041   4.644   1.550  0.6497 -0.3614 -0.4914
 8929TIP3    H150982   4.962   4.668   1.502 -0.6193 -0.3088  1.5006
 8929TIP3    H250983   5.061   4.555   1.522 -0.0739 -0.3495 -1.0569
 8930TIP3   OH250984   5.242   3.246   2.241  0.0791  0.4076 -0.2535
 8930TIP3    H150985   5.208   3.335   2.230 -0.8467  0.1089  0.1092
 8930TIP3    H250986   5.173   3.189   2.207 -0.5893 -0.2924  2.0990
 8931TIP3   OH250987   0.994   5.325   1.328 -0.1427 -0.1567 -0.1654
 8931TIP3    H150988   0.919   5.346   1.272  0.0332  0.0839 -0.3134
 8931TIP3    H250989   1.022   5.410   1.363  0.8713 -0.0784 -1.1346
 8932TIP3   OH250990   7.409   1.858   1.441 -0.0739 -0.0918 -0.4181
 8932TIP3    H150991   7.428   1.904   1.359 -0.9837  0.5579 -0.2855
 8932TIP3    H250992   7.353   1.785   1.415 -0.5443  0.2435 -0.3531
 8933TIP3   OH250993   6.892   5.842   3.539  0.1563  0.2653  0.3529
 8933TIP3    H150994   6.885   5.938   3.533 -0.2399  0.1615 -1.7076
 8933TIP3    H250995   6.805   5.813   3.567  0.3002  0.4930  1.0649
 8934TIP3   OH250996   3.192   5.226   1.690  0.4107  0.0251 -0.7108
 8934TIP3    H150997   3.189   5.132   1.705  1.3488 -0.1603 -1.5325
 8934TIP3    H250998   3.103   5.256   1.706  0.4393 -0.7255  1.1533
 8935TIP3   OH250999   2.025   6.873   2.843 -0.2522 -0.0108 -0.4487
 8935TIP3    H151000   1.955   6.872   2.908 -0.1996  0.7312 -0.3672
 8935TIP3    H251001   1.988   6.829   2.767 -1.1037  1.0790 -0.6915
 8936TIP3   OH251002   7.133   2.790   1.742  0.3364 -0.3055 -0.4486
 8936TIP3    H151003   7.208   2.801   1.801 -0.0224 -0.8872  0.1218
 8936TIP3    H251004   7.138   2.866   1.684  0.1037  0.8507  0.9780
 8937TIP3   OH251005   0.307   2.488   2.805  0.7308 -0.1658  0.1474
 8937TIP3    H151006   0.244   2.491   2.877  1.2586  0.7271  0.5953
 8937TIP3    H251007   0.388   2.458   2.846  0.8885 -0.2060 -0.1934
 8938TIP3   OH251008   3.723   5.993   2.621 -0.3956  0.0019  0.5366
 8938TIP3    H151009   3.706   5.913   2.571  1.4751  0.2080 -0.4914
 8938TIP3    H251010   3.637   6.019   2.653 -1.9704  0.5053 -3.5284
 8939TIP3   OH251011   5.961   1.574   1.704 -0.1163  0.7578 -0.1283
 8939TIP3    H151012   5.875   1.558   1.665  0.6101 -0.1743 -1.3989
 8939TIP3    H251013   5.941   1.618   1.787 -1.7536  1.7710 -1.0060
 8940TIP3   OH251014   4.121   1.412   2.044 -0.6952  1.0097  0.5098
 8940TIP3    H151015   4.210   1.387   2.069 -1.5006 -2.1614  0.6898
 8940TIP3    H251016   4.067   1.385   2.118 -1.9967  1.0319 -0.4027
 8941TIP3   OH251017   6.960   7.659   1.020 -0.5449 -0.8067  0.8682
 8941TIP3    H151018   6.974   7.750   1.046 -0.0544 -1.5259  3.3868
 8941TIP3    H251019   7.040   7.634   0.974 -0.1466 -0.3535  1.3110
 8942TIP3   OH251020   2.302   4.369   2.792  0.6041  0.2369 -0.0840
 8942TIP3    H151021   2.390   4.342   2.818 -0.4374 -0.2357  3.5781
 8942TIP3    H251022   2.271   4.425   2.864 -1.5331  1.7480 -2.0150
 8943TIP3   OH251023   3.818   6.732   1.285  0.3984 -0.2633 -0.1713
 8943TIP3    H151024   3.804   6.682   1.366 -0.4498 -1.2336 -0.8883
 8943TIP3    H251025   3.897   6.694   1.247  0.0818 -0.6771 -0.4243
 8944TIP3   OH251026   6.271   0.039   1.980  0.2497  0.1426 -0.8349
 8944TIP3    H151027   6.364   0.032   2.004  0.4353 -0.9000 -1.7445
 8944TIP3    H251028   6.270   0.021   1.886 -0.7882  1.0410 -1.0089
 8945TIP3   OH251029   4.291   2.417   1.528  0.0240 -0.8257  0.1137
 8945TIP3    H151030   4.377   2.389   1.498 -0.7840 -1.4095 -1.8769
 8945TIP3    H251031   4.287   2.510   1.508  0.1937 -0.7938  0.2283
 8946TIP3   OH251032   1.906   1.877   0.856  0.0939  0.0180 -0.7976
 8946TIP3    H151033   1.993   1.836   0.858 -0.3146 -0.9002 -1.1366
 8946TIP3    H251034   1.919   1.963   0.895  0.3571 -1.6074  3.1169
 8947TIP3   OH251035   6.360   7.255   1.639 -0.4886 -0.5318  0.3929
 8947TIP3    H151036   6.305   7.255   1.560 -2.3340 -1.0033  1.6281
 8947TIP3    H251037   6.394   7.166   1.645  0.8102 -0.1292 -0.6058
 8948TIP3   OH251038   6.430   2.085   0.525 -0.0836  0.4685  0.1891
 8948TIP3    H151039   6.474   2.111   0.444 -0.7930  1.0627 -0.0184
 8948TIP3    H251040   6.427   1.989   0.521 -3.5930  0.4776 -2.4670
 8949TIP3   OH251041   4.948   0.007   2.642 -0.2499 -0.2495  0.5941
 8949TIP3    H151042   4.943   0.069   2.569  1.0180  0.8732  1.4237
 8949TIP3    H251043   4.872   0.028   2.697 -0.1329  0.1804  0.5869
 8950TIP3   OH251044   2.782   1.708   3.179 -0.1743  0.4368  0.1148
 8950TIP3    H151045   2.768   1.621   3.142  1.4670  1.0329 -2.1606
 8950TIP3    H251046   2.877   1.716   3.187 -0.4028  1.0887  2.8507
 8951TIP3   OH251047   3.986   0.945   2.420  0.3314  0.0698 -0.5674
 8951TIP3    H151048   4.031   0.900   2.349 -0.0801 -1.2526 -0.0182
 8951TIP3    H251049   3.907   0.893   2.435 -0.3786  1.2284 -0.1986
 8952TIP3   OH251050   1.921   3.452   2.015  0.0972  0.1336  0.2494
 8952TIP3    H151051   1.911   3.530   1.962  0.0838 -0.4432 -0.6109
 8952TIP3    H251052   2.002   3.466   2.064  0.5781  0.2938 -0.5768
 8953TIP3   OH251053   7.570   5.158   2.526 -0.0072  0.2614  0.0288
 8953TIP3    H151054   7.577   5.250   2.551 -0.8081  0.8926 -1.8206
 8953TIP3    H251055   7.632   5.148   2.453  0.1463 -0.6896  0.2802
 8954TIP3   OH251056   7.509   4.719   2.227  0.2203  0.4988 -0.4358
 8954TIP3    H151057   7.421   4.749   2.249  0.8009  2.8307 -1.0472
 8954TIP3    H251058   7.540   4.781   2.162  2.5149  0.0439  0.1403
 8955TIP3   OH251059   6.677   5.057   1.806  0.5626 -0.0625  0.4709
 8955TIP3    H151060   6.595   5.031   1.763  0.7958 -0.4109  0.2294
 8955TIP3    H251061   6.657   5.053   1.900  0.1311  0.4296  0.4034
 8956TIP3   OH251062   6.351   1.585   1.693 -0.2984 -0.0543 -0.4804
 8956TIP3    H151063   6.411   1.608   1.765  0.4897  1.8679 -1.6736
 8956TIP3    H251064   6.279   1.648   1.702 -1.2031 -1.0929 -0.2319
 8957TIP3   OH251065   6.175   0.953   1.446  0.0466  0.5121  1.0555
 8957TIP3    H151066   6.080   0.949   1.461 -0.0378  0.9913  0.6941
 8957TIP3    H251067   6.204   0.862   1.453 -0.0208  0.6117  3.7537
 8958TIP3   OH251068   5.038   4.439   0.808  0.3674  0.0820 -0.5403
 8958TIP3    H151069   5.064   4.515   0.860  2.3275 -0.2765 -0.9088
 8958TIP3    H251070   5.037   4.366   0.870  3.2850 -0.4597 -0.9878
 8959TIP3   OH251071   5.739   1.111   1.835 -0.3185 -0.2110 -0.3000
 8959TIP3    H151072   5.681   1.154   1.899 -0.9392 -0.1124 -0.9177
 8959TIP3    H251073   5.827   1.125   1.870 -0.5613  0.8909 -0.0654
 8960TIP3   OH251074   7.237   5.715   1.772  0.2389 -0.1261 -1.0825
 8960TIP3    H151075   7.253   5.777   1.843  2.8265 -0.0518 -1.6453
 8960TIP3    H251076   7.222   5.632   1.816 -0.9737  0.4364 -0.3916
 8961TIP3   OH251077   4.865   6.968   1.706  0.2531 -0.1159  0.5811
 8961TIP3    H151078   4.956   6.951   1.682  0.0176  0.2262 -0.6294
 8961TIP3    H251079   4.849   6.912   1.782  1.5939  0.1368  1.0732
 8962TIP3   OH251080   5.250   4.080   0.883 -0.4355  0.6569 -0.0229
 8962TIP3    H151081   5.246   4.076   0.788  1.2339  1.2855 -0.1422
 8962TIP3    H251082   5.204   4.160   0.906 -0.1054  0.9479 -0.3673
 8963TIP3   OH251083   0.591   3.238   0.331 -0.1823 -0.2008 -0.2402
 8963TIP3    H151084   0.502   3.263   0.306  0.5669  1.2167 -1.5915
 8963TIP3    H251085   0.580   3.153   0.374 -2.6489  1.6013  3.1850
 8964TIP3   OH251086   2.563   4.283   2.791  0.0912 -0.4610 -0.0821
 8964TIP3    H151087   2.563   4.355   2.728  2.3269  0.3966  0.8128
 8964TIP3    H251088   2.654   4.256   2.797 -0.4121 -2.0548  1.1190
 8965TIP3   OH251089   6.829   2.082   2.534 -0.0373 -0.6729 -0.3997
 8965TIP3    H151090   6.864   1.994   2.547 -0.1625 -0.5270  1.0744
 8965TIP3    H251091   6.771   2.073   2.458 -1.3718 -2.2872  0.7164
 8966TIP3   OH251092   2.770   2.422   2.752  0.1952 -0.0257  0.1126
 8966TIP3    H151093   2.816   2.390   2.829  0.2054 -0.0956  0.0783
 8966TIP3    H251094   2.681   2.440   2.782 -0.0905 -1.0292 -0.0818
 8967TIP3   OH251095   2.829   3.397   2.469  0.6101 -0.1383 -0.7151
 8967TIP3    H151096   2.840   3.329   2.535  0.8385  1.4701  0.9839
 8967TIP3    H251097   2.735   3.397   2.450  0.1000  0.9777  1.4855
 8968TIP3   OH251098   2.724   1.063   1.175  0.2980  0.4227 -0.0412
 8968TIP3    H151099   2.807   1.030   1.209  0.6349  1.2611 -0.0403
 8968TIP3    H251100   2.729   1.157   1.187 -0.8909  0.4403  0.4923
 8969TIP3   OH251101   2.459   1.228   1.992 -0.1544 -0.3916 -0.3601
 8969TIP3    H151102   2.551   1.238   1.970 -0.1055  1.1468  0.4375
 8969TIP3    H251103   2.413   1.245   1.910  0.1869  1.3706 -0.2103
 8970TIP3   OH251104   7.554   7.066   0.393 -0.2769  0.2248 -1.0081
 8970TIP3    H151105   7.598   7.038   0.313  2.2932  1.9108 -0.2815
 8970TIP3    H251106   7.600   7.144   0.421 -2.4481  0.9249  1.0247
 8971TIP3   OH251107   2.456   7.079   2.240  0.1345  0.3746 -0.1909
 8971TIP3    H151108   2.521   7.025   2.196  0.3391  0.9512 -0.5990
 8971TIP3    H251109   2.503   7.120   2.312 -0.3036 -0.9260  0.8868
 8972TIP3   OH251110   6.871   2.707   2.128  0.4976 -0.3405  0.2592
 8972TIP3    H151111   6.776   2.693   2.132  0.7624 -2.3449  0.7920
 8972TIP3    H251112   6.896   2.669   2.044  0.7275  1.1310 -0.3641
 8973TIP3   OH251113   1.502   2.137   1.130 -0.4011 -0.7154 -0.0856
 8973TIP3    H151114   1.515   2.066   1.068  0.9511 -1.2277  0.7439
 8973TIP3    H251115   1.410   2.131   1.155 -0.6227 -1.3433 -0.9954
 8974TIP3   OH251116   5.222   4.004   1.524 -0.1248  0.0809 -0.2916
 8974TIP3    H151117   5.278   4.074   1.491  0.4051 -0.3166 -0.2478
 8974TIP3    H251118   5.166   4.047   1.588  0.9302  0.2621  0.5318
 8975TIP3   OH251119   4.593   1.421   2.125 -0.1288  0.3295 -0.3258
 8975TIP3    H151120   4.513   1.471   2.106 -0.0906  1.6494  2.4911
 8975TIP3    H251121   4.561   1.335   2.152 -0.5157  0.3852 -0.5904
 8976TIP3   OH251122   5.226   5.931   1.853 -0.1448  0.5847  0.0587
 8976TIP3    H151123   5.301   5.946   1.795 -1.1792  1.6281 -1.0706
 8976TIP3    H251124   5.234   5.839   1.879  0.6988  0.2473 -1.2836
 8977TIP3   OH251125   2.566   1.387   2.585  0.1998  0.0950  0.4247
 8977TIP3    H151126   2.576   1.400   2.490 -0.0049 -2.4364 -0.0124
 8977TIP3    H251127   2.554   1.476   2.620 -1.0882  1.0131 -2.0790
 8978TIP3   OH251128   1.032   5.593   1.452 -0.0067 -0.3156 -0.3021
 8978TIP3    H151129   0.939   5.611   1.442  0.3375  0.3740 -2.9851
 8978TIP3    H251130   1.037   5.530   1.525 -2.9515 -3.4325 -2.4716
 8979TIP3   OH251131   4.546   5.399   1.182 -0.0377  0.1786 -0.1366
 8979TIP3    H151132   4.560   5.478   1.234 -0.2919  0.1041  0.0489
 8979TIP3    H251133   4.454   5.404   1.156 -0.0600 -0.0676 -0.1051
 8980TIP3   OH251134   3.570   0.512   1.211  0.3280  0.4951 -0.1089
 8980TIP3    H151135   3.543   0.460   1.135 -0.4650  0.8683 -0.0968
 8980TIP3    H251136   3.506   0.583   1.215 -0.7965 -0.5456  2.0088
 8981TIP3   OH251137   5.312   1.680   2.598 -0.5330  0.1429  0.5227
 8981TIP3    H151138   5.224   1.682   2.561 -0.4204 -1.0213  0.1439
 8981TIP3    H251139   5.365   1.736   2.541 -0.6481 -0.5771 -0.3011
 8982TIP3   OH251140   4.056   1.808   0.507 -0.2089 -0.2787 -0.3407
 8982TIP3    H151141   4.151   1.801   0.518  0.0445  1.4242 -1.0731
 8982TIP3    H251142   4.019   1.759   0.581  1.2865  1.6583  1.8332
 8983TIP3   OH251143   0.383   3.377   1.393 -0.2487 -0.0197 -0.2771
 8983TIP3    H151144   0.311   3.341   1.445 -1.3299 -0.4637 -2.0083
 8983TIP3    H251145   0.450   3.400   1.458 -2.1309  0.8998  1.4520
 8984TIP3   OH251146   1.739   5.287   1.877  0.6235  0.0602 -0.3171
 8984TIP3    H151147   1.733   5.236   1.796 -0.3516 -1.4701  0.6672
 8984TIP3    H251148   1.666   5.256   1.931  1.6964  0.4522  1.4628
 8985TIP3   OH251149   5.785   5.015   1.482  0.1050 -0.6179  0.3579
 8985TIP3    H151150   5.738   5.096   1.500 -0.5539 -0.6959 -0.9503
 8985TIP3    H251151   5.866   5.043   1.438 -1.1001 -0.7203 -2.0992
 8986TIP3   OH251152   1.046   3.868   2.552  0.0921  0.4651  0.3784
 8986TIP3    H151153   0.966   3.833   2.591  0.1592  0.6207  0.6574
 8986TIP3    H251154   1.019   3.948   2.508  0.0724  0.4541  0.3701
 8987TIP3   OH251155   0.783   4.788   2.267 -0.0675 -0.7330  0.5154
 8987TIP3    H151156   0.768   4.833   2.350  0.8046  0.1568  0.1977
 8987TIP3    H251157   0.715   4.720   2.265 -0.8829  0.0172  1.3831
 8988TIP3   OH251158   6.326   2.711   2.534 -0.1172  0.2815  0.3290
 8988TIP3    H151159   6.338   2.778   2.467 -0.7133 -0.8673 -0.9793
 8988TIP3    H251160   6.407   2.660   2.531  0.4921  1.1020  1.5786
 8989TIP3   OH251161   6.144   5.600   0.557  0.3855 -0.3339 -0.1027
 8989TIP3    H151162   6.066   5.550   0.534 -0.1657 -0.0071  0.9558
 8989TIP3    H251163   6.126   5.631   0.646  0.3251  2.4460 -0.9800
 8990TIP3   OH251164   3.995   1.397   2.281  0.2124  0.4122  1.0359
 8990TIP3    H151165   3.993   1.343   2.360  1.4204  0.9891  1.4802
 8990TIP3    H251166   3.920   1.456   2.291 -0.8621 -0.8459  0.7546
 8991TIP3   OH251167   0.406   4.403   2.934 -0.0268 -0.3429 -0.3813
 8991TIP3    H151168   0.500   4.387   2.938  0.2374  1.1463 -0.2074
 8991TIP3    H251169   0.396   4.495   2.957 -1.6032 -0.6813  0.4141
 8992TIP3   OH251170   1.800   6.086   1.662 -0.1246 -0.4202 -0.4669
 8992TIP3    H151171   1.809   6.013   1.601 -0.2556  0.3847 -1.4776
 8992TIP3    H251172   1.711   6.119   1.646 -0.7320 -1.1138  1.2280
 8993TIP3   OH251173   1.807   1.956   2.587 -0.4540 -0.1499  0.2237
 8993TIP3    H151174   1.889   1.907   2.580  0.1580  1.0011 -1.1830
 8993TIP3    H251175   1.778   1.941   2.677  0.7587 -1.4074  0.4406
 8994TIP3   OH251176   7.176   0.380   2.151  0.3233  0.0468  0.1075
 8994TIP3    H151177   7.258   0.375   2.199 -0.0508 -0.6208  0.6752
 8994TIP3    H251178   7.167   0.295   2.108 -1.1017 -0.6985  1.7575
 8995TIP3   OH251179   6.137   7.277   1.886  0.5645 -0.1029  0.3271
 8995TIP3    H151180   6.099   7.364   1.901  0.6865 -0.3477  2.2999
 8995TIP3    H251181   6.143   7.270   1.791 -0.8064  1.4624  0.0685
 8996TIP3   OH251182   4.158   2.660   2.317 -0.3709  0.1615 -0.0231
 8996TIP3    H151183   4.156   2.743   2.364  1.8315  0.5056 -0.4169
 8996TIP3    H251184   4.231   2.612   2.356  0.6910 -0.0704 -2.1392
 8997TIP3   OH251185   6.811   5.317   0.948  0.1212  0.4467 -0.4935
 8997TIP3    H151186   6.793   5.223   0.943  0.1363  0.4531 -0.6751
 8997TIP3    H251187   6.724   5.358   0.947  0.0956  0.4132  0.0850
 8998TIP3   OH251188   1.485   5.110   1.685 -0.1500  0.6457  0.4598
 8998TIP3    H151189   1.447   5.115   1.773 -0.2760 -0.9145  0.5277
 8998TIP3    H251190   1.559   5.050   1.695 -1.5998 -1.5078 -0.9258
 8999TIP3   OH251191   5.898   3.057   2.357  0.4795  0.0841  0.0664
 8999TIP3    H151192   5.898   3.109   2.277  1.0120  0.6115  0.3947
 8999TIP3    H251193   5.846   3.108   2.419  0.3937 -0.1320  0.1735
 9000TIP3   OH251194   7.241   3.140   0.942  0.1629  0.2085 -0.2343
 9000TIP3    H151195   7.330   3.152   0.908  0.8257  0.1562  1.3605
 9000TIP3    H251196   7.214   3.055   0.908  0.8764  0.0603 -0.4565
 9001TIP3   OH251197   7.209   2.276   0.505  0.4447  0.1886  0.4979
 9001TIP3    H151198   7.300   2.249   0.491  0.9124  1.9342 -0.0549
 9001TIP3    H251199   7.178   2.220   0.576  0.9886 -2.4990 -1.2308
 9002TIP3   OH251200   1.479   5.529   1.115 -0.2194  0.0195 -0.0336
 9002TIP3    H151201   1.420   5.512   1.042 -0.1966 -0.3341  0.0310
 9002TIP3    H251202   1.444   5.477   1.187  1.1311 -1.5777 -0.4660
 9003TIP3   OH251203   3.657   1.311   1.911 -0.0663  0.6620  0.4461
 9003TIP3    H151204   3.658   1.404   1.933  0.5970  0.2829  2.1522
 9003TIP3    H251205   3.722   1.302   1.841 -0.9125  1.6200 -0.5037
 9004TIP3   OH251206   2.192   2.948   2.369  0.3327  0.1205  0.0970
 9004TIP3    H151207   2.124   2.911   2.426 -0.4674  2.5371  0.8135
 9004TIP3    H251208   2.269   2.957   2.425  1.1419 -1.9907 -0.5476
 9005TIP3   OH251209   1.167   4.439   1.125 -0.2498  0.0503  0.6000
 9005TIP3    H151210   1.217   4.364   1.158 -0.8605  0.4897  2.7038
 9005TIP3    H251211   1.115   4.403   1.053  0.5718 -1.1929  0.5957
 9006TIP3   OH251212   6.367   3.735   3.248  0.1904 -0.0492 -0.0349
 9006TIP3    H151213   6.320   3.817   3.228  0.4186  0.6380  2.0450
 9006TIP3    H251214   6.454   3.748   3.211 -0.0129  0.3360 -0.3914
 9007TIP3   OH251215   2.162   1.183   2.399 -0.2267 -0.0631  0.0785
 9007TIP3    H151216   2.184   1.094   2.426  0.9996  0.1405 -0.1941
 9007TIP3    H251217   2.241   1.215   2.356 -1.2609  0.5375 -1.4420
 9008TIP3   OH251218   3.626   5.393   1.900  0.0811  0.3510  0.2877
 9008TIP3    H151219   3.671   5.390   1.984 -0.7099  0.8825  0.7343
 9008TIP3    H251220   3.560   5.324   1.905  0.0091  0.4062  0.1109
 9009TIP3   OH251221   3.332   4.337   1.036  0.2565  0.0630  0.0021
 9009TIP3    H151222   3.264   4.326   0.969 -0.3119  2.4742  0.0905
 9009TIP3    H251223   3.407   4.287   1.003 -0.9476 -1.2034 -0.9563
 9010TIP3   OH251224   2.170   0.647   0.514 -0.0582 -0.2979  0.4259
 9010TIP3    H151225   2.099   0.591   0.545 -0.3215  1.1043  2.5560
 9010TIP3    H251226   2.127   0.729   0.490  0.6658  0.0752  0.3794
 9011TIP3   OH251227   0.546   0.236   0.643  0.1320 -0.0227  0.3088
 9011TIP3    H151228   0.626   0.287   0.628  0.4664 -1.2954 -2.8575
 9011TIP3    H251229   0.488   0.261   0.572  0.2189 -3.7305 -1.2889
 9012TIP3   OH251230   0.756   5.703   2.647  0.1880  0.3571 -0.2312
 9012TIP3    H151231   0.714   5.691   2.732 -1.2941  0.2568 -0.9430
 9012TIP3    H251232   0.794   5.617   2.626 -2.0527 -0.5248 -0.9834
 9013TIP3   OH251233   5.848   5.149   2.907  0.3452  0.0638 -0.3930
 9013TIP3    H151234   5.914   5.206   2.947 -0.6155  0.7877  0.2161
 9013TIP3    H251235   5.872   5.061   2.937  0.9603  0.3303 -0.0756
 9014TIP3   OH251236   0.119   6.981   1.603  0.1190  0.9836  0.3795
 9014TIP3    H151237   0.196   6.929   1.623  0.7950  1.5169 -0.7142
 9014TIP3    H251238   0.085   7.009   1.688  0.2126 -0.5427  0.9324
 9015TIP3   OH251239   3.321   5.385   0.480  0.1111 -0.4653  0.6656
 9015TIP3    H151240   3.289   5.428   0.560  0.5923  2.8080 -0.7389
 9015TIP3    H251241   3.245   5.384   0.422  0.4838 -0.1349  0.1632
 9016TIP3   OH251242   0.332   6.636   2.113 -0.2901  0.0744  0.4907
 9016TIP3    H151243   0.382   6.635   2.031 -1.2600 -0.3583 -0.1185
 9016TIP3    H251244   0.259   6.576   2.097  0.4657 -1.4140  2.3115
 9017TIP3   OH251245   4.417   0.757   1.394  0.0462  0.4959  0.3212
 9017TIP3    H151246   4.376   0.743   1.480 -0.5094  0.2717  0.0247
 9017TIP3    H251247   4.367   0.829   1.355 -0.9999 -0.6783 -0.6105
 9018TIP3   OH251248   6.082   1.886   1.924 -0.0822  0.4975 -0.6289
 9018TIP3    H151249   6.133   1.865   1.846 -0.9108  0.5804 -1.1994
 9018TIP3    H251250   6.024   1.957   1.897 -0.6930  0.2209 -0.0776
 9019TIP3   OH251251   6.066   5.395   1.423 -0.1849 -0.5742 -0.8193
 9019TIP3    H151252   6.017   5.427   1.347  0.8240 -0.5524 -1.4859
 9019TIP3    H251253   6.154   5.433   1.412 -0.0983 -0.3666  0.4974
 9020TIP3   OH251254   5.587   5.280   2.821 -0.0588 -0.3103 -0.2104
 9020TIP3    H151255   5.675   5.268   2.857  0.3514  0.2950 -0.9755
 9020TIP3    H251256   5.563   5.369   2.845 -0.4295 -0.4448 -0.0775
 9021TIP3   OH251257   5.572   6.698   1.428  0.5029 -0.4915  0.4167
 9021TIP3    H151258   5.522   6.770   1.467  0.8700 -0.3102  0.5664
 9021TIP3    H251259   5.584   6.724   1.337  1.7614  0.2873  0.7749
 9022TIP3   OH251260   5.716   3.605   2.006 -0.0987  0.6110 -0.2014
 9022TIP3    H151261   5.802   3.566   1.995  0.7190  1.9750  1.0574
 9022TIP3    H251262   5.657   3.530   2.015  1.1735 -0.3408  0.4414
 9023TIP3   OH251263   4.932   5.464   1.835  0.3643  0.4133 -0.2416
 9023TIP3    H151264   4.927   5.398   1.766  0.2550  0.4808 -0.3005
 9023TIP3    H251265   4.856   5.445   1.891  1.7650 -1.1252  1.2254
 9024TIP3   OH251266   2.036   6.512   1.483 -0.0273  0.4602 -0.4292
 9024TIP3    H151267   2.006   6.520   1.573  1.6213  2.3168  0.0287
 9024TIP3    H251268   1.980   6.445   1.445  0.3228 -1.6503  2.4410
 9025TIP3   OH251269   5.260   1.121   2.380 -0.2816 -0.8640  0.6992
 9025TIP3    H151270   5.262   1.183   2.454  0.3453 -0.0675  0.0324
 9025TIP3    H251271   5.166   1.112   2.360 -0.3347  1.2576 -0.2902
 9026TIP3   OH251272   3.478   3.258   1.360  0.1164 -0.1696 -0.4053
 9026TIP3    H151273   3.574   3.255   1.359  0.2144  0.3736  1.9051
 9026TIP3    H251274   3.457   3.297   1.444 -2.1311  1.3122 -1.5650
 9027TIP3   OH251275   5.417   7.306   0.864 -0.1516 -0.2137 -0.3654
 9027TIP3    H151276   5.323   7.308   0.880 -0.2607  0.1370 -1.0269
 9027TIP3    H251277   5.455   7.280   0.949 -0.7471  0.9207  0.2671
 9028TIP3   OH251278   0.419   5.849   2.717 -0.1760 -0.0958 -0.4757
 9028TIP3    H151279   0.451   5.778   2.660  0.6888  0.5017 -0.7504
 9028TIP3    H251280   0.386   5.915   2.656  0.6986  0.5206 -0.2999
 9029TIP3   OH251281   1.822   0.147   1.655  0.9685 -0.2908 -0.4465
 9029TIP3    H151282   1.736   0.109   1.640  1.0441 -0.1097 -1.3887
 9029TIP3    H251283   1.812   0.239   1.633  1.3641 -0.2311 -0.3903
 9030TIP3   OH251284   3.050   4.049   2.563  0.2373 -0.2274 -0.0159
 9030TIP3    H151285   3.054   4.144   2.559  2.4618 -0.3101 -1.3278
 9030TIP3    H251286   3.096   4.020   2.484  1.8949 -2.3843  1.6178
 9031TIP3   OH251287   0.894   2.164   2.020  0.2722 -0.5017  0.2814
 9031TIP3    H151288   0.956   2.109   1.972  1.6713  1.1372  0.1315
 9031TIP3    H251289   0.917   2.253   1.995 -2.4290  0.1875 -0.0924
 9032TIP3   OH251290   1.618   6.899   1.119 -0.0236 -0.4172  0.1275
 9032TIP3    H151291   1.610   6.821   1.064  1.7922 -0.3313 -0.3299
 9032TIP3    H251292   1.670   6.870   1.194 -1.0882 -0.1206  1.0161
 9033TIP3   OH251293   0.224   1.517   2.903 -0.0228 -0.3060 -0.6905
 9033TIP3    H151294   0.225   1.592   2.844 -1.4886  0.3662  0.0794
 9033TIP3    H251295   0.255   1.551   2.987 -0.2369 -0.6699 -0.4585
 9034TIP3   OH251296   5.161   2.764   1.164  0.3230 -0.5034 -0.5820
 9034TIP3    H151297   5.074   2.805   1.169  0.8693  0.9411 -1.9641
 9034TIP3    H251298   5.174   2.725   1.250 -0.8322  1.1182  0.3898
 9035TIP3   OH251299   6.891   4.129   0.529  0.1636  0.2048 -0.3795
 9035TIP3    H151300   6.877   4.185   0.453 -1.1311  1.9573  1.0372
 9035TIP3    H251301   6.985   4.116   0.533  0.5074  2.2263 -0.8699
 9036TIP3   OH251302   4.941   7.148   1.950  0.2637 -0.0229 -0.3111
 9036TIP3    H151303   5.028   7.177   1.978  0.9358 -0.1932 -2.1285
 9036TIP3    H251304   4.950   7.132   1.856 -1.6395 -0.4221 -0.4573
 9037TIP3   OH251305   7.335   5.963   2.061 -0.0041  0.3918  0.3240
 9037TIP3    H151306   7.326   5.944   2.154 -0.7601  1.3392  0.4655
 9037TIP3    H251307   7.408   5.908   2.032  0.9194  0.8232  1.6977
 9038TIP3   OH251308   4.648   3.447   2.215  0.1795 -0.1228 -0.2946
 9038TIP3    H151309   4.618   3.404   2.294  1.3261  0.1639  0.3158
 9038TIP3    H251310   4.726   3.496   2.242 -0.7339  1.8663 -1.0732
 9039TIP3   OH251311   7.453   5.317   1.350 -0.0613 -0.1021 -0.3515
 9039TIP3    H151312   7.386   5.248   1.339 -0.1843 -0.2209  0.9248
 9039TIP3    H251313   7.406   5.398   1.332 -0.2814 -0.2598 -0.5051
 9040TIP3   OH251314   7.575   1.334   0.731 -0.5778  0.6268  0.3834
 9040TIP3    H151315   7.602   1.423   0.754  2.2107  0.0252 -0.1330
 9040TIP3    H251316   7.641   1.278   0.772 -1.8178 -1.1750  0.0518
 9041TIP3   OH251317   7.458   0.515   1.553 -0.0942 -0.0420 -0.3455
 9041TIP3    H151318   7.377   0.465   1.543  0.2028 -0.7505  0.7383
 9041TIP3    H251319   7.519   0.456   1.596  0.1478  1.3241  1.3285
 9042TIP3   OH251320   6.933   7.237   1.393 -0.0056 -0.1249 -0.5720
 9042TIP3    H151321   6.919   7.301   1.322 -0.8462 -1.4794 -1.6796
 9042TIP3    H251322   6.981   7.166   1.351 -0.8760 -1.1416  0.1296
 9043TIP3   OH251323   2.523   5.389   2.620 -0.0052 -0.0285 -0.1445
 9043TIP3    H151324   2.557   5.469   2.578  2.1779  0.7556  2.8238
 9043TIP3    H251325   2.500   5.332   2.546  0.7222  2.3606 -2.3815
 9044TIP3   OH251326   5.874   1.842   1.283  0.0456  0.1233  0.1972
 9044TIP3    H151327   5.955   1.797   1.305 -0.5209 -1.1760 -0.2492
 9044TIP3    H251328   5.858   1.821   1.191 -0.8899  0.1879  0.3260
 9045TIP3   OH251329   2.633   7.399   1.107  0.2375 -0.2232  0.0432
 9045TIP3    H151330   2.564   7.356   1.156  0.0068 -2.1780 -1.8414
 9045TIP3    H251331   2.632   7.490   1.138 -1.7642 -0.6847  1.5269
 9046TIP3   OH251332   4.969   3.479   1.178 -0.8581  0.3261  0.4187
 9046TIP3    H151333   4.888   3.452   1.221 -1.0628 -1.0556 -0.7402
 9046TIP3    H251334   5.035   3.417   1.210 -0.8930 -0.3633 -0.7748
 9047TIP3   OH251335   2.052   1.506   1.563 -0.2940  0.5408  0.1280
 9047TIP3    H151336   2.012   1.446   1.626 -0.5833  0.8932  0.2861
 9047TIP3    H251337   2.142   1.518   1.594 -0.7403  1.5540  1.1037
 9048TIP3   OH251338   7.142   4.201   2.146 -0.2750  0.0011 -0.3852
 9048TIP3    H151339   7.218   4.237   2.191 -1.3781  0.2934  1.3280
 9048TIP3    H251340   7.091   4.279   2.121 -0.2239 -0.2063 -1.1523
 9049TIP3   OH251341   6.377   3.557   1.400  0.2062 -0.2112  0.4814
 9049TIP3    H151342   6.440   3.628   1.385 -1.0221  0.5576 -1.3554
 9049TIP3    H251343   6.310   3.597   1.456  0.2262 -0.3414  0.5973
 9050TIP3   OH251344   1.356   2.720   0.954 -0.3529  0.7331 -0.0986
 9050TIP3    H151345   1.294   2.731   0.882 -0.5019  0.8450  0.0469
 9050TIP3    H251346   1.351   2.627   0.977 -0.8124  0.8331  0.2228
 9051TIP3   OH251347   3.073   4.850   2.661  0.7534  0.3585 -0.1346
 9051TIP3    H151348   2.998   4.910   2.669  0.1631 -0.5087  1.1533
 9051TIP3    H251349   3.112   4.849   2.748  0.6500 -1.2566 -0.0855
 9052TIP3   OH251350   4.646   3.524   0.811 -0.1899 -0.0863  0.7584
 9052TIP3    H151351   4.733   3.562   0.797  0.2518 -1.9035 -2.0246
 9052TIP3    H251352   4.630   3.470   0.734 -4.6377  1.6596  0.1788
 9053TIP3   OH251353   7.270   1.901   2.258  0.5367 -0.1003  0.0194
 9053TIP3    H151354   7.203   1.968   2.245 -1.6449 -1.6040  2.6440
 9053TIP3    H251355   7.336   1.943   2.313  1.2832  1.0463 -1.6689
 9054TIP3   OH251356   3.209   5.550   1.480 -0.7095 -0.1836 -0.3496
 9054TIP3    H151357   3.187   5.625   1.424 -1.3037  1.1542  1.5583
 9054TIP3    H251358   3.288   5.577   1.526 -2.3720  0.4944  2.3327
 9055TIP3   OH251359   5.672   4.197   0.568  0.7489  0.4656 -0.2888
 9055TIP3    H151360   5.588   4.153   0.559  0.1183  1.2415  1.4105
 9055TIP3    H251361   5.692   4.230   0.481  0.0215 -0.9729 -1.0350
 9056TIP3   OH251362   7.479   0.342   2.238 -0.2525 -0.2066  0.1178
 9056TIP3    H151363   7.456   0.424   2.194 -1.2999  0.2899  1.4940
 9056TIP3    H251364   7.539   0.298   2.178 -0.2929  1.2006 -1.0101
 9057TIP3   OH251365   2.323   0.132   2.339  0.0767  0.3756  0.4075
 9057TIP3    H151366   2.259   0.124   2.410 -3.2298 -0.2415 -2.3559
 9057TIP3    H251367   2.358   0.043   2.329  0.8193  0.5414  1.4455
 9058TIP3   OH251368   0.986   0.714   1.709  0.2814 -0.0768  0.0345
 9058TIP3    H151369   1.023   0.798   1.682  1.8333 -0.6931  0.1546
 9058TIP3    H251370   0.913   0.699   1.649  0.2102  1.1692 -0.2147
 9059TIP3   OH251371   2.103   0.647   1.139  0.1581  0.4507  0.3139
 9059TIP3    H151372   2.088   0.703   1.215  0.0581  0.7920  0.0467
 9059TIP3    H251373   2.175   0.689   1.092  1.7279 -0.9505  1.3620
 9060TIP3   OH251374   6.129   4.732   3.288 -0.6195 -0.3517  0.1232
 9060TIP3    H151375   6.079   4.710   3.366 -0.5708  0.1589  0.3045
 9060TIP3    H251376   6.064   4.760   3.224 -0.6384 -0.5395  0.0591
 9061TIP3   OH251377   2.324   1.675   1.559  0.2321  0.1369  0.3338
 9061TIP3    H151378   2.363   1.606   1.506  2.8156  0.7485  1.3176
 9061TIP3    H251379   2.316   1.749   1.498  0.3877 -0.0590  0.0713
 9062TIP3   OH251380   4.731   1.359   0.871 -0.2984  0.9009  0.4549
 9062TIP3    H151381   4.750   1.450   0.897  1.1835  0.7223  0.0947
 9062TIP3    H251382   4.741   1.359   0.776  0.5981  0.1845  0.5352
 9063TIP3   OH251383   1.242   2.926   2.919 -0.1788  0.4498  0.6282
 9063TIP3    H151384   1.251   2.879   3.003 -0.3313  0.4921  0.6682
 9063TIP3    H251385   1.149   2.918   2.897 -0.3900  1.5092  1.0829
 9064TIP3   OH251386   4.221   5.828   2.960  0.1736  0.3673 -0.1653
 9064TIP3    H151387   4.199   5.740   2.989 -0.6327  0.9548  1.0423
 9064TIP3    H251388   4.173   5.839   2.877  1.4210 -0.8158 -1.0981
 9065TIP3   OH251389   1.298   4.875   3.330 -0.3371  0.7470 -0.0175
 9065TIP3    H151390   1.272   4.963   3.358  1.2129  1.6752 -1.2955
 9065TIP3    H251391   1.262   4.867   3.241  1.4480  1.0697 -0.8243
 9066TIP3   OH251392   5.826   1.785   1.004  0.4500  0.2297  0.2851
 9066TIP3    H151393   5.774   1.775   0.924  0.4120  0.0683  0.3288
 9066TIP3    H251394   5.907   1.739   0.986 -0.3170 -1.5110  1.0270
 9067TIP3   OH251395   1.861   6.937   1.672 -0.2522 -0.0371 -0.0586
 9067TIP3    H151396   1.885   7.029   1.677 -0.4523 -0.0460  3.1891
 9067TIP3    H251397   1.944   6.890   1.668 -0.0797  0.2403  0.2519
 9068TIP3   OH251398   1.107   6.788   2.771  0.1853 -0.6435  0.1617
 9068TIP3    H151399   1.202   6.773   2.767  0.3765  0.5113 -0.2539
 9068TIP3    H251400   1.070   6.703   2.793  1.2233 -1.4493 -1.0165
 9069TIP3   OH251401   3.218   2.883   1.861 -0.5232 -0.1665 -0.1794
 9069TIP3    H151402   3.188   2.973   1.873 -1.9838 -0.6108 -0.2945
 9069TIP3    H251403   3.170   2.852   1.784  1.7884 -0.2942 -1.6903
 9070TIP3   OH251404   6.624   6.166   1.021 -0.3848 -0.3898  0.1559
 9070TIP3    H151405   6.657   6.088   0.975 -1.7465 -1.2828  0.6363
 9070TIP3    H251406   6.605   6.228   0.951 -0.0573 -0.7828 -0.2954
 9071TIP3   OH251407   7.425   2.457   3.049 -0.1783 -0.0567 -0.0587
 9071TIP3    H151408   7.365   2.450   3.123  0.7410  1.0725  0.8320
 9071TIP3    H251409   7.507   2.487   3.087  1.0645 -1.8145 -1.2091
 9072TIP3   OH251410   7.444   4.557   2.499 -0.1382  0.0810 -0.6132
 9072TIP3    H151411   7.435   4.531   2.408 -0.7674 -2.2728  0.0443
 9072TIP3    H251412   7.356   4.586   2.525  0.2327  1.6039 -0.9381
 9073TIP3   OH251413   1.408   7.489   1.073 -0.2073 -0.3010 -0.0776
 9073TIP3    H151414   1.377   7.423   1.011  1.1688 -0.0722 -1.0573
 9073TIP3    H251415   1.463   7.440   1.134 -2.1080 -0.6517  1.4708
 9074TIP3   OH251416   3.614   4.326   0.663  0.1159 -0.7329  0.2633
 9074TIP3    H151417   3.643   4.407   0.705 -0.1947 -1.5348  2.1028
 9074TIP3    H251418   3.604   4.349   0.571  0.0935  1.3015  0.7336
 9075TIP3   OH251419   2.838   6.289   0.853  0.7232  0.1933 -0.2000
 9075TIP3    H151420   2.767   6.354   0.848  0.4697 -0.1105 -0.6162
 9075TIP3    H251421   2.835   6.245   0.768  0.4442 -0.8413  0.3382
 9076TIP3   OH251422   1.395   0.721   1.557  0.0533  0.0751 -0.0440
 9076TIP3    H151423   1.417   0.812   1.539 -1.6616  0.5601  0.1338
 9076TIP3    H251424   1.377   0.718   1.651  2.6818 -1.0745  0.5406
 9077TIP3   OH251425   6.560   1.831   1.602 -0.5955  0.4205  0.3054
 9077TIP3    H151426   6.592   1.814   1.513  2.2603 -0.6836  1.4289
 9077TIP3    H251427   6.483   1.775   1.611  0.2347 -0.9622 -0.8403
 9078TIP3   OH251428   7.679   2.142   0.452 -0.0977  0.1695  0.2877
 9078TIP3    H151429   7.597   2.115   0.495 -0.3350 -0.1316 -0.3317
 9078TIP3    H251430   7.685   2.084   0.376  1.3562 -0.6688  1.0161
 9079TIP3   OH251431   1.362   4.376   2.949  0.2809 -0.0141  0.3995
 9079TIP3    H151432   1.456   4.380   2.965  0.2151  0.5717  0.6915
 9079TIP3    H251433   1.324   4.359   3.035  0.1553 -0.8909  0.1731
 9080TIP3   OH251434   4.785   2.061   2.683  0.0903  0.0922  0.0011
 9080TIP3    H151435   4.741   2.067   2.598 -3.2974  0.8638  1.6168
 9080TIP3    H251436   4.859   2.120   2.677 -1.3042  1.7880 -1.7802
 9081TIP3   OH251437   5.315   3.500   3.316 -0.3660  0.4432  0.1439
 9081TIP3    H151438   5.275   3.417   3.344  0.2597  0.5864  1.5604
 9081TIP3    H251439   5.348   3.482   3.228 -0.7546 -0.6331  0.2013
 9082TIP3   OH251440   3.513   1.127   2.823 -0.2318  0.2615  0.0134
 9082TIP3    H151441   3.422   1.100   2.836 -0.1901 -0.7559 -1.4739
 9082TIP3    H251442   3.555   1.049   2.787  1.2152  0.7554  0.5887
 9083TIP3   OH251443   4.447   4.389   2.023  0.6706 -0.1944 -0.0675
 9083TIP3    H151444   4.411   4.411   1.937 -0.4273  0.8036  0.6137
 9083TIP3    H251445   4.493   4.468   2.050  0.7195 -0.3814  0.4060
 9084TIP3   OH251446   6.486   6.474   2.781 -0.5769 -0.0148 -0.1098
 9084TIP3    H151447   6.556   6.411   2.799  0.1756  0.8092 -0.1037
 9084TIP3    H251448   6.485   6.532   2.858 -1.1130  0.1245 -0.2161
 9085TIP3   OH251449   4.493   7.488   3.366 -0.1670  1.2574  0.2055
 9085TIP3    H151450   4.569   7.536   3.331 -0.6024  2.2509  0.5704
 9085TIP3    H251451   4.421   7.552   3.362 -1.1761  0.0912 -0.8545
 9086TIP3   OH251452   2.353   1.042   1.222  0.5449 -0.2715 -0.0148
 9086TIP3    H151453   2.433   1.092   1.201  0.5446 -0.1431  0.2778
 9086TIP3    H251454   2.284   1.108   1.226  0.5914 -0.2552  0.6307
 9087TIP3   OH251455   4.087   6.192   2.139 -0.4765 -0.1342 -0.7922
 9087TIP3    H151456   4.018   6.154   2.193 -0.5729  0.1365 -0.7241
 9087TIP3    H251457   4.114   6.271   2.186  0.2955 -0.5563 -0.5168
 9088TIP3   OH251458   6.053   1.798   2.189  0.4542 -0.4297 -0.5427
 9088TIP3    H151459   6.080   1.707   2.172 -0.8716 -0.6689 -1.4990
 9088TIP3    H251460   6.083   1.847   2.113  0.7891 -0.1321 -0.2252
 9089TIP3   OH251461   7.448   4.320   2.662  0.3616  0.4917  0.1357
 9089TIP3    H151462   7.494   4.322   2.746 -1.4769  1.5481  1.1960
 9089TIP3    H251463   7.470   4.403   2.620 -1.0806  1.3370  0.9801
 9090TIP3   OH251464   0.707   7.212   2.043 -0.5466 -0.0041 -0.0063
 9090TIP3    H151465   0.681   7.273   1.974  0.8180  0.8878  0.2260
 9090TIP3    H251466   0.731   7.268   2.117  0.4707 -0.8156  0.3077
 9091TIP3   OH251467   5.569   0.200   2.522 -0.1422 -0.0984 -0.5461
 9091TIP3    H151468   5.503   0.179   2.587 -0.0858  0.6903 -0.2247
 9091TIP3    H251469   5.582   0.118   2.473 -0.0800 -0.7415  0.5127
 9092TIP3   OH251470   5.523   3.569   2.641  0.0924 -0.3434 -0.3212
 9092TIP3    H151471   5.555   3.532   2.723 -0.0936  0.9748  0.3641
 9092TIP3    H251472   5.472   3.498   2.601  0.1948 -1.0027  0.6919
 9093TIP3   OH251473   3.953   7.567   1.930  0.5987 -0.0455  0.5474
 9093TIP3    H151474   4.010   7.534   1.861  1.8594  1.8930  0.5625
 9093TIP3    H251475   4.009   7.572   2.007  0.2202  1.1174  0.7799
 9094TIP3   OH251476   7.351   6.449   0.797 -0.1215  0.4696 -0.1183
 9094TIP3    H151477   7.427   6.479   0.747  0.4831  2.7549  1.9517
 9094TIP3    H251478   7.278   6.503   0.765 -0.2204  0.3799 -0.0463
 9095TIP3   OH251479   0.859   2.263   2.539  0.5064  0.4871 -0.4172
 9095TIP3    H151480   0.916   2.187   2.547  0.2849  0.4285  0.7861
 9095TIP3    H251481   0.861   2.285   2.446  0.4851 -1.0449 -0.8084
 9096TIP3   OH251482   5.591   3.176   1.399  0.4863  0.2167 -0.8753
 9096TIP3    H151483   5.527   3.156   1.331  0.1415  2.2214 -1.2264
 9096TIP3    H251484   5.665   3.216   1.352  0.5609  0.9470 -0.1709
 9097TIP3   OH251485   2.750   2.022   2.290  0.0987 -0.1193  0.8774
 9097TIP3    H151486   2.681   2.002   2.353 -1.4339 -0.7571 -0.9093
 9097TIP3    H251487   2.731   2.111   2.261 -0.5389 -0.5980 -0.2473
 9098TIP3   OH251488   2.715   5.891   2.832 -1.1689  0.2422 -0.7003
 9098TIP3    H151489   2.700   5.946   2.755 -0.1619 -0.3085 -1.3128
 9098TIP3    H251490   2.797   5.924   2.869  0.0472 -1.5009 -1.7106
 9099TIP3   OH251491   5.788   1.146   0.454 -0.6724  0.5973 -0.0083
 9099TIP3    H151492   5.868   1.193   0.478  0.3817 -0.2538 -1.6157
 9099TIP3    H251493   5.783   1.073   0.515 -0.1189  0.5577 -0.0093
 9100TIP3   OH251494   4.287   3.187   2.966 -0.0269  0.0294 -0.0898
 9100TIP3    H151495   4.237   3.240   3.029  1.3687 -2.1162  3.1396
 9100TIP3    H251496   4.378   3.215   2.978  0.2171 -0.0545 -1.6281
 9101TIP3   OH251497   2.099   4.378   1.482  0.1706  0.3065  0.3882
 9101TIP3    H151498   2.066   4.427   1.558 -0.8310  0.2546 -0.0051
 9101TIP3    H251499   2.065   4.289   1.494 -0.5164  0.4477 -0.4341
 9102TIP3   OH251500   0.045   6.165   1.621 -0.3343  0.5090  0.3823
 9102TIP3    H151501   0.131   6.153   1.580  0.0009 -0.6899  1.3765
 9102TIP3    H251502   0.060   6.225   1.693  0.1252 -1.1687  1.7656
 9103TIP3   OH251503   2.630   2.046   2.566  0.7972 -0.5896 -0.6197
 9103TIP3    H151504   2.695   2.116   2.556  1.2054 -1.1050 -1.8191
 9103TIP3    H251505   2.665   1.991   2.636  0.8299  0.0054 -0.1580
 9104TIP3   OH251506   3.543   2.502   1.848 -0.2810  0.1285 -0.1684
 9104TIP3    H151507   3.630   2.468   1.872 -0.4464 -0.2321 -0.0628
 9104TIP3    H251508   3.539   2.588   1.889 -0.0903  0.0210  0.0820
 9105TIP3   OH251509   6.319   0.469   1.754 -0.1862  0.3825  0.0400
 9105TIP3    H151510   6.287   0.504   1.837  0.5207  0.8748  0.1112
 9105TIP3    H251511   6.244   0.420   1.719 -1.2336  1.9722 -0.0845
 9106TIP3   OH251512   5.945   0.323   2.560 -0.0496 -0.1218  0.0742
 9106TIP3    H151513   5.920   0.290   2.474 -0.1875 -0.8040  0.3702
 9106TIP3    H251514   5.961   0.245   2.613 -0.8993  0.2698  0.9439
 9107TIP3   OH251515   0.351   4.239   2.697 -0.0241  0.3595 -0.4303
 9107TIP3    H151516   0.262   4.248   2.663 -0.3327  0.4573  0.3863
 9107TIP3    H251517   0.343   4.256   2.791  0.7085 -0.5531 -0.1853
 9108TIP3   OH251518   3.559   1.285   0.376  0.4431 -0.1783 -0.6055
 9108TIP3    H151519   3.585   1.377   0.371  1.2879 -0.3846 -0.2179
 9108TIP3    H251520   3.642   1.237   0.374  0.1652 -0.8274  1.6866
 9109TIP3   OH251521   0.462   4.734   1.999  0.4435  0.4546 -0.3964
 9109TIP3    H151522   0.493   4.676   2.069 -1.0825  0.5903  0.4325
 9109TIP3    H251523   0.383   4.775   2.035 -0.0957  0.9091 -2.0214
 9110TIP3   OH251524   4.268   7.342   3.470 -0.2843  0.2039 -0.0528
 9110TIP3    H151525   4.362   7.352   3.455 -0.6824  4.9364 -1.1108
 9110TIP3    H251526   4.248   7.404   3.541 -2.6680 -0.2780 -0.2005
 9111TIP3   OH251527   5.897   2.762   1.103  0.7654 -0.3411 -0.1115
 9111TIP3    H151528   5.848   2.746   1.023  1.3099  0.3396 -0.5933
 9111TIP3    H251529   5.873   2.690   1.161  0.2152 -0.7299 -0.8104
 9112TIP3   OH251530   5.545   2.042   1.900  0.0875 -0.1774 -0.2175
 9112TIP3    H151531   5.591   2.076   1.977  0.5822  1.2571 -1.1008
 9112TIP3    H251532   5.577   1.952   1.892 -1.0445 -0.8590  2.0379
 9113TIP3   OH251533   6.482   2.439   1.407 -0.1343  0.6351 -0.2492
 9113TIP3    H151534   6.432   2.406   1.333  2.8593  0.0546 -2.1967
 9113TIP3    H251535   6.471   2.372   1.475 -0.5224 -0.3849 -1.2882
 9114TIP3   OH251536   5.051   0.545   1.044 -0.1527  0.6374  0.4763
 9114TIP3    H151537   4.994   0.468   1.039 -0.0613  0.6620 -2.1875
 9114TIP3    H251538   4.995   0.618   1.020  0.9840  0.6096 -2.5742
 9115TIP3   OH251539   4.877   1.115   0.964 -0.2241  0.1851  0.3323
 9115TIP3    H151540   4.849   1.206   0.961 -1.8712 -0.3031 -0.1217
 9115TIP3    H251541   4.894   1.092   0.873  0.3583  0.0651  0.4628
 9116TIP3   OH251542   7.661   4.131   2.377  0.3583  0.1334  0.0817
 9116TIP3    H151543   7.704   4.152   2.294  3.2294  1.0606  1.6892
 9116TIP3    H251544   7.679   4.038   2.391  0.3366  0.1088 -0.0491
 9117TIP3   OH251545   0.923   7.162   2.711 -0.2563 -0.6686 -0.8385
 9117TIP3    H151546   0.913   7.253   2.681  1.0295 -0.1892  0.1131
 9117TIP3    H251547   0.848   7.148   2.769 -0.8298 -0.4569 -1.5089
 9118TIP3   OH251548   6.875   2.452   0.971 -0.0481 -0.3078  0.4223
 9118TIP3    H151549   6.781   2.471   0.981 -0.5148 -2.0274 -0.3585
 9118TIP3    H251550   6.911   2.463   1.059 -1.5494 -2.4092  1.3642
 9119TIP3   OH251551   7.341   3.559   2.566 -0.3647  0.1880  0.0234
 9119TIP3    H151552   7.268   3.505   2.534  0.6669 -0.6602 -0.9862
 9119TIP3    H251553   7.359   3.525   2.653 -0.8680  0.1068  0.1030
 9120TIP3   OH251554   3.053   1.644   0.928 -0.1730 -0.0384  0.3159
 9120TIP3    H151555   3.036   1.622   1.019 -1.1636  1.2942  0.4873
 9120TIP3    H251556   3.037   1.562   0.880  2.7072 -1.4404  1.5078
 9121TIP3   OH251557   7.381   2.295   2.570 -0.2345  0.0745 -0.4760
 9121TIP3    H151558   7.297   2.332   2.596  0.4728  2.6724 -1.6238
 9121TIP3    H251559   7.442   2.323   2.638 -0.1745 -1.5470  0.1920
 9122TIP3   OH251560   3.132   0.139   1.790  0.5763 -0.0231 -0.5989
 9122TIP3    H151561   3.147   0.106   1.878  0.0036  0.0821 -0.4555
 9122TIP3    H251562   3.095   0.227   1.803 -1.4547 -0.7750 -0.8722
 9123TIP3   OH251563   1.542   1.845   2.494 -0.2904  0.3233  0.2545
 9123TIP3    H151564   1.626   1.802   2.509 -0.6862 -0.3023  0.7566
 9123TIP3    H251565   1.551   1.930   2.537  0.1194  0.3117  0.2015
 9124TIP3   OH251566   7.053   2.751   2.330  0.0716 -0.6085  0.4945
 9124TIP3    H151567   7.140   2.730   2.296 -0.6086 -0.9656 -1.1392
 9124TIP3    H251568   6.993   2.717   2.264 -1.3311 -0.6232  1.7259
 9125TIP3   OH251569   4.558   0.791   1.653 -0.2641  0.3082 -0.7954
 9125TIP3    H151570   4.595   0.708   1.624  0.0825 -1.1475  3.2404
 9125TIP3    H251571   4.464   0.776   1.654 -0.1099 -1.3820  2.9403
 9126TIP3   OH251572   1.121   4.969   2.741 -0.4329  0.4212 -0.3266
 9126TIP3    H151573   1.034   5.008   2.731 -0.9784 -0.3512  1.2074
 9126TIP3    H251574   1.127   4.907   2.668 -0.7701  1.1606 -1.0034
 9127TIP3   OH251575   4.569   3.230   1.640  0.5429 -0.4711  0.0586
 9127TIP3    H151576   4.493   3.175   1.624  0.5794  0.0128 -2.0772
 9127TIP3    H251577   4.604   3.200   1.724 -1.9489 -0.7284  1.0634
 9128TIP3   OH251578   7.637   3.198   1.444 -0.0479 -0.2042 -0.0681
 9128TIP3    H151579   7.634   3.147   1.526 -1.4367 -0.9162 -0.5133
 9128TIP3    H251580   7.666   3.285   1.471  1.2428 -0.9053  0.9023
 9129TIP3   OH251581   6.586   6.841   1.994 -0.1241  0.3305 -0.0772
 9129TIP3    H151582   6.593   6.764   1.939  0.6599 -0.2842  0.8439
 9129TIP3    H251583   6.508   6.887   1.963 -1.0648 -1.2482 -0.1193
 9130TIP3   OH251584   0.654   1.543   1.975 -0.3588 -0.5617  0.2820
 9130TIP3    H151585   0.649   1.482   2.049 -1.8726 -1.4339 -0.4805
 9130TIP3    H251586   0.715   1.502   1.914  1.4150  0.4834  1.2762
 9131TIP3   OH251587   0.932   2.846   0.466  0.0159 -0.3327  0.4706
 9131TIP3    H151588   0.914   2.756   0.439 -0.3280  0.3309 -1.7579
 9131TIP3    H251589   1.027   2.854   0.461  0.0736 -0.6452  0.9944
 9132TIP3   OH251590   1.471   4.311   3.403  0.1483 -0.5468 -0.2210
 9132TIP3    H151591   1.466   4.391   3.349 -0.1549  0.2889  1.0065
 9132TIP3    H251592   1.549   4.323   3.456  1.6686 -2.3350 -1.9052
 9133TIP3   OH251593   1.249   3.314   3.844 -0.5907  0.1197  0.4059
 9133TIP3    H151594   1.192   3.368   3.790  0.1646 -0.8117 -1.3878
 9133TIP3    H251595   1.234   3.225   3.813  0.8224 -0.2969  0.8498
 9134TIP3   OH251596   5.286   6.635   1.246  0.1440  0.3900  0.3592
 9134TIP3    H151597   5.376   6.631   1.216  0.1162 -0.1033  0.3323
 9134TIP3    H251598   5.274   6.554   1.297 -0.6920 -0.2670 -0.8243
 9135TIP3   OH251599   2.290   0.938   1.484  0.9062  0.2443  0.3332
 9135TIP3    H151600   2.319   0.950   1.393 -0.5858  0.3365 -0.1487
 9135TIP3    H251601   2.217   0.877   1.478  1.5749 -0.7174  1.6252
 9136TIP3   OH251602   4.308   6.235   1.064 -0.3711 -0.1874 -0.5898
 9136TIP3    H151603   4.300   6.140   1.056  0.7491 -0.2058 -1.9198
 9136TIP3    H251604   4.396   6.255   1.032 -0.5033  1.2844 -0.1312
 9137TIP3   OH251605   0.268   7.067   2.314 -0.2876 -0.1173  0.2040
 9137TIP3    H151606   0.258   7.122   2.392  0.2005  0.2931 -0.0158
 9137TIP3    H251607   0.362   7.071   2.293 -0.5910  0.8851 -1.1749
 9138TIP3   OH251608   3.242   5.368   3.178 -0.1756 -0.1518  0.1279
 9138TIP3    H151609   3.258   5.288   3.127  4.0836 -0.7365  2.0302
 9138TIP3    H251610   3.244   5.438   3.113  1.4246 -1.1886 -1.0156
 9139TIP3   OH251611   6.610   5.428   2.624  0.0462  0.1069  0.1529
 9139TIP3    H151612   6.630   5.365   2.555  1.6266 -0.4003  1.0156
 9139TIP3    H251613   6.577   5.375   2.696 -1.5551  0.6278 -0.1525
 9140TIP3   OH251614   0.188   3.698   3.319 -0.2755 -0.1035  0.0568
 9140TIP3    H151615   0.146   3.690   3.404  2.9369  0.1892  1.8406
 9140TIP3    H251616   0.215   3.790   3.314  0.2263 -0.2860 -0.9153
 9141TIP3   OH251617   7.582   7.216   3.092 -0.3693  0.4215 -0.5030
 9141TIP3    H151618   7.493   7.245   3.108 -0.1769  0.8474 -0.1756
 9141TIP3    H251619   7.589   7.133   3.140 -0.3392  0.8061  0.1785
 9142TIP3   OH251620   2.801   0.662   2.479 -0.0545  0.9816  0.1844
 9142TIP3    H151621   2.840   0.620   2.556  4.3234  0.4511 -1.9698
 9142TIP3    H251622   2.775   0.588   2.423 -1.3357  1.3279  0.3124
 9143TIP3   OH251623   7.595   1.550   3.556 -0.1396  0.3067 -0.4855
 9143TIP3    H151624   7.670   1.526   3.501 -0.5619 -0.6325 -0.6664
 9143TIP3    H251625   7.609   1.642   3.576  0.7367  0.3079 -1.0430
 9144TIP3   OH251626   0.299   1.420   2.218  0.3798 -0.3794  0.5863
 9144TIP3    H151627   0.305   1.353   2.286 -0.2622 -0.9883  0.0640
 9144TIP3    H251628   0.205   1.439   2.212  0.3843 -0.6302 -0.4041
 9145TIP3   OH251629   1.165   3.517   2.573 -0.1138 -0.1536 -0.3162
 9145TIP3    H151630   1.233   3.500   2.639 -1.9097  0.5239  1.8511
 9145TIP3    H251631   1.204   3.583   2.515  1.1116  0.1749  0.8377
 9146TIP3   OH251632   2.646   6.091   1.810  0.1697 -0.1257 -0.4439
 9146TIP3    H151633   2.662   6.126   1.722  1.1412  0.1523 -0.1624
 9146TIP3    H251634   2.562   6.129   1.835 -0.1072 -0.1897 -1.2447
 9147TIP3   OH251635   3.159   2.010   1.297 -0.0258  0.2164  0.1129
 9147TIP3    H151636   3.096   2.064   1.346 -1.2616  0.0500 -1.2389
 9147TIP3    H251637   3.134   1.920   1.317 -0.8666  0.1419 -1.1876
 9148TIP3   OH251638   6.020   4.409   3.066  0.0603 -0.4750 -0.1384
 9148TIP3    H151639   6.045   4.485   3.014  2.1829 -1.5326 -0.7864
 9148TIP3    H251640   5.965   4.357   3.008  0.2220 -0.3682 -0.3905
 9149TIP3   OH251641   1.245   6.884   1.073 -0.2956  0.1347 -0.2534
 9149TIP3    H151642   1.316   6.901   1.011  0.1286 -0.1517  0.1528
 9149TIP3    H251643   1.225   6.791   1.061  0.2424 -0.0836  0.5139
 9150TIP3   OH251644   4.763   1.460   0.551  0.3675 -0.7106 -0.3191
 9150TIP3    H151645   4.688   1.515   0.529  0.6136 -0.4636 -0.5451
 9150TIP3    H251646   4.737   1.372   0.525 -0.7747 -1.0484  1.7494
 9151TIP3   OH251647   7.296   2.233   2.315 -0.0163  0.3364  0.0355
 9151TIP3    H151648   7.202   2.242   2.331  0.0082 -0.8310  0.9653
 9151TIP3    H251649   7.337   2.258   2.397  0.6157  2.4998 -0.8787
 9152TIP3   OH251650   4.352   3.912   2.222 -0.4047  0.1068  0.3229
 9152TIP3    H151651   4.353   3.827   2.266 -3.0141  0.3614  1.1007
 9152TIP3    H251652   4.433   3.914   2.171  0.1085 -2.5078  0.8631
 9153TIP3   OH251653   1.251   0.654   3.001 -0.4955  0.1102  0.2395
 9153TIP3    H151654   1.201   0.579   2.968 -0.6976  0.0704  0.6350
 9153TIP3    H251655   1.186   0.723   3.012 -0.1533  0.6938 -1.1298
 9154TIP3   OH251656   7.212   7.072   0.976 -0.0450  0.2090 -0.0401
 9154TIP3    H151657   7.286   7.046   1.032 -2.0295 -0.4547  2.4536
 9154TIP3    H251658   7.227   7.165   0.960  0.3259  0.6061  2.1800
 9155TIP3   OH251659   6.065   1.642   1.000  0.1399  0.6095 -0.0257
 9155TIP3    H151660   6.082   1.639   1.094 -1.7743 -0.0075  0.3373
 9155TIP3    H251661   6.066   1.550   0.972 -1.0321  0.6481 -0.2460
 9156TIP3   OH251662   2.959   0.348   2.193  0.0980  0.4698  0.5742
 9156TIP3    H151663   2.879   0.328   2.242 -0.6445 -1.5021 -1.2282
 9156TIP3    H251664   3.025   0.290   2.230 -0.5369 -1.2387 -0.8039
 9157TIP3   OH251665   4.628   7.444   2.524  0.3548  0.4422  1.0431
 9157TIP3    H151666   4.569   7.412   2.457  1.4738 -0.5209  0.4921
 9157TIP3    H251667   4.714   7.446   2.482  0.9948  0.2747  2.2916
 9158TIP3   OH251668   6.687   7.308   1.097  0.2151 -0.2350 -0.3767
 9158TIP3    H151669   6.755   7.253   1.135 -0.2578  0.4633  1.5897
 9158TIP3    H251670   6.717   7.325   1.007  1.9474 -1.0456  0.0168
 9159TIP3   OH251671   6.990   1.307   1.500 -0.0737  0.0443 -0.2902
 9159TIP3    H151672   7.069   1.338   1.455 -0.3582 -1.0051 -1.5929
 9159TIP3    H251673   6.918   1.347   1.452 -0.3726 -0.7160 -0.4845
 9160TIP3   OH251674   1.175   6.032   0.681 -0.3179 -0.6560  0.0866
 9160TIP3    H151675   1.080   6.044   0.685  0.0387  3.0562  1.8814
 9160TIP3    H251676   1.196   5.977   0.756 -0.9693 -0.9997  0.0239
 9161TIP3   OH251677   5.704   6.938   0.905  0.5830 -0.1622 -0.0676
 9161TIP3    H151678   5.682   6.985   0.824 -0.7156  0.3884  0.5844
 9161TIP3    H251679   5.729   6.850   0.876 -1.2031 -0.4023 -0.9762
 9162TIP3   OH251680   4.559   4.618   2.472  0.3879 -0.1428 -0.9688
 9162TIP3    H151681   4.499   4.545   2.485  0.8368 -0.4680 -0.6720
 9162TIP3    H251682   4.565   4.659   2.558  1.3092 -0.6859 -0.7569
 9163TIP3   OH251683   3.062   1.048   1.620 -0.4341  0.7378 -0.3926
 9163TIP3    H151684   2.972   1.042   1.589 -0.7139 -0.3078  0.5501
 9163TIP3    H251685   3.108   0.979   1.572 -0.5735  0.0022  0.5109
 9164TIP3   OH251686   2.497   1.804   2.389  0.0244  0.4473 -0.2190
 9164TIP3    H151687   2.490   1.805   2.485  0.9574  0.1553 -0.1364
 9164TIP3    H251688   2.585   1.771   2.372 -0.6006 -0.8096 -1.2138
 9165TIP3   OH251689   7.155   0.504   1.560  0.4604 -0.4737  0.0555
 9165TIP3    H151690   7.108   0.421   1.562 -0.3406 -0.0133  1.5851
 9165TIP3    H251691   7.105   0.562   1.617  0.6933  1.2451 -1.3812
 9166TIP3   OH251692   2.857   1.926   1.856 -0.3593  0.2443 -0.1730
 9166TIP3    H151693   2.775   1.944   1.808  0.1513  1.0260 -0.7877
 9166TIP3    H251694   2.835   1.944   1.948 -0.8662  0.4963 -0.3380
 9167TIP3   OH251695   1.095   4.320   1.808  0.4301  0.1227 -0.3231
 9167TIP3    H151696   1.088   4.321   1.903  0.6332 -1.6573 -0.2546
 9167TIP3    H251697   1.179   4.278   1.790  1.0316  1.6605 -1.3044
 9168TIP3   OH251698   0.302   1.954   0.820 -0.1087  0.1345  0.2198
 9168TIP3    H151699   0.283   2.021   0.755 -0.6650 -0.3775 -0.1580
 9168TIP3    H251700   0.258   1.986   0.900  0.7046  0.8354  0.4007
 9169TIP3   OH251701   2.181   5.204   2.449  0.3748  0.0971 -0.5379
 9169TIP3    H151702   2.141   5.289   2.464 -1.9908 -1.1830  1.2069
 9169TIP3    H251703   2.129   5.166   2.378 -0.2785 -0.8179  0.3969
 9170TIP3   OH251704   6.468   3.767   0.972  0.1669 -0.4574  0.0262
 9170TIP3    H151705   6.534   3.818   1.019 -0.6450 -0.6813  1.4769
 9170TIP3    H251706   6.471   3.800   0.882  1.0030  0.7751  0.4854
 9171TIP3   OH251707   3.455   1.530   1.491 -0.5686  0.4536 -0.4332
 9171TIP3    H151708   3.532   1.517   1.546  0.2280  3.7579 -0.5924
 9171TIP3    H251709   3.488   1.574   1.413 -2.5199  1.4466 -0.7657
 9172TIP3   OH251710   3.563   3.292   2.327  0.7593  0.0362 -0.1239
 9172TIP3    H151711   3.520   3.375   2.349  1.9046  1.0295 -1.4817
 9172TIP3    H251712   3.493   3.227   2.331 -0.0799  0.9691  1.3717
 9173TIP3   OH251713   3.823   3.016   2.448 -0.4171  0.1598  0.0729
 9173TIP3    H151714   3.917   2.995   2.448 -0.8002 -1.7242 -0.6024
 9173TIP3    H251715   3.820   3.111   2.437  1.4137  0.3314  0.6808
 9174TIP3   OH251716   4.218   5.307   0.898  0.3571  0.1549  0.0393
 9174TIP3    H151717   4.242   5.313   0.990 -2.1379 -0.1008  0.7821
 9174TIP3    H251718   4.244   5.391   0.861  2.3601 -0.1245  0.6587
 9175TIP3   OH251719   2.106   1.694   3.039  0.3294 -0.2410  0.5430
 9175TIP3    H151720   2.048   1.668   3.110  0.2132 -0.6089  0.3176
 9175TIP3    H251721   2.110   1.789   3.044 -1.2034 -0.1126 -0.1429
 9176TIP3   OH251722   0.731   0.080   0.810 -0.0167 -0.4447 -0.1360
 9176TIP3    H151723   0.705   0.078   0.902 -1.5887 -0.0998 -0.5348
 9176TIP3    H251724   0.751   0.172   0.793 -2.1991 -0.0107 -0.7192
 9177TIP3   OH251725   0.707   3.444   1.158  0.2869 -0.3054 -0.1148
 9177TIP3    H151726   0.629   3.429   1.104  1.9356 -0.8609 -2.5506
 9177TIP3    H251727   0.711   3.369   1.216 -0.6962 -0.5499 -0.3440
 9178TIP3   OH251728   4.169   4.067   1.289 -0.2062 -0.5377  0.4162
 9178TIP3    H151729   4.145   4.076   1.381  0.4707 -1.2378  0.6724
 9178TIP3    H251730   4.132   3.983   1.263  2.8657 -2.2864  1.1661
 9179TIP3   OH251731   0.623   2.093   2.401  0.3471  0.6079  0.0497
 9179TIP3    H151732   0.647   2.060   2.487  0.2256  0.2187 -0.0643
 9179TIP3    H251733   0.705   2.093   2.351  0.0856 -1.0265 -0.4411
 9180TIP3   OH251734   5.342   3.009   2.661 -0.1190 -0.3174  0.6268
 9180TIP3    H151735   5.284   2.973   2.728  0.7948  0.9913  2.1932
 9180TIP3    H251736   5.381   3.086   2.702  0.9212  0.2082 -1.2309
 9181TIP3   OH251737   0.635   2.864   1.634 -0.0238  0.1333  0.1779
 9181TIP3    H151738   0.591   2.797   1.582  0.1090  0.3779 -0.2536
 9181TIP3    H251739   0.719   2.878   1.590 -0.6115  1.5765 -0.5721
 9182TIP3   OH251740   7.074   3.750   0.878 -0.6960 -0.2438  0.2441
 9182TIP3    H151741   7.036   3.676   0.831 -2.6217  2.0832 -2.1259
 9182TIP3    H251742   7.164   3.755   0.845 -0.6578 -1.2446  0.1465
 9183TIP3   OH251743   4.580   5.338   0.743 -0.1874  0.8214  0.1402
 9183TIP3    H151744   4.603   5.263   0.800 -0.3365 -0.7500 -1.7673
 9183TIP3    H251745   4.665   5.376   0.720 -0.0448  0.6517  0.3723
 9184TIP3   OH251746   3.339   4.791   1.224 -0.0533 -0.0680 -0.7198
 9184TIP3    H151747   3.393   4.720   1.191 -0.5479 -0.1878 -1.2889
 9184TIP3    H251748   3.277   4.809   1.153 -1.6795 -0.8722  0.4285
 9185TIP3   OH251749   4.409   1.924   2.699  0.1018 -0.1259  0.0540
 9185TIP3    H151750   4.419   1.984   2.773  0.1451  0.5212 -0.4599
 9185TIP3    H251751   4.378   1.980   2.627  5.2412  0.6107 -2.0787
 9186TIP3   OH251752   5.483   0.710   2.513 -0.0334 -0.0313 -0.1923
 9186TIP3    H151753   5.568   0.700   2.470 -0.2189 -1.4742 -0.2591
 9186TIP3    H251754   5.435   0.771   2.456  0.4006 -0.4341 -1.0072
 9187TIP3   OH251755   1.467   4.888   1.356  0.4152  0.4338 -0.4682
 9187TIP3    H151756   1.425   4.934   1.283  0.1447  0.9501  0.0128
 9187TIP3    H251757   1.403   4.892   1.427  1.2115  1.0769  0.2155
 9188TIP3   OH251758   6.155   6.558   2.309  0.2504 -0.1901 -0.2975
 9188TIP3    H151759   6.231   6.557   2.367  0.0170 -0.8531  0.0070
 9188TIP3    H251760   6.178   6.621   2.240  0.3473  0.9642  0.7545
 9189TIP3   OH251761   6.704   0.620   2.613 -0.3633 -0.2967 -0.2143
 9189TIP3    H151762   6.646   0.658   2.679 -0.6246 -0.5140 -0.3195
 9189TIP3    H251763   6.659   0.632   2.530  0.2896  0.6186 -0.4468
 9190TIP3   OH251764   6.325   0.412   0.579  0.2421  0.3479  0.6008
 9190TIP3    H151765   6.301   0.343   0.640  1.3584  0.2671  0.9845
 9190TIP3    H251766   6.250   0.471   0.577  1.2908  2.1386  4.5685
 9191TIP3   OH251767   5.527   0.423   1.991 -0.2431 -0.5498  0.1858
 9191TIP3    H151768   5.503   0.481   2.063  1.4788  0.8106 -0.2894
 9191TIP3    H251769   5.443   0.391   1.958 -1.1631  0.4308  1.4598
 9192TIP3   OH251770   2.526   2.427   2.445 -0.4442 -0.0756  0.2632
 9192TIP3    H151771   2.465   2.376   2.392  0.9466  1.2163 -2.7871
 9192TIP3    H251772   2.595   2.364   2.467 -1.0642 -0.6446  0.6441
 9193TIP3   OH251773   5.549   6.425   0.533  0.1509 -0.5299  0.3422
 9193TIP3    H151774   5.610   6.357   0.505  0.9356  0.1747  0.3084
 9193TIP3    H251775   5.604   6.494   0.569 -0.5658  0.4990 -0.4570
 9194TIP3   OH251776   5.842   3.212   2.146 -0.4073  0.3349 -0.0920
 9194TIP3    H151777   5.775   3.161   2.101  1.5920 -3.3147  0.7323
 9194TIP3    H251778   5.889   3.257   2.075 -1.6387  0.3497 -0.9354
 9195TIP3   OH251779   4.382   5.309   1.475  0.0036  0.2901 -0.5683
 9195TIP3    H151780   4.433   5.249   1.421  1.0324  0.1550  0.5212
 9195TIP3    H251781   4.414   5.295   1.564  1.1588  3.2421 -0.3854
 9196TIP3   OH251782   6.142   3.167   2.978 -0.0996 -0.3967  0.1886
 9196TIP3    H151783   6.050   3.174   2.955 -0.5088 -2.0060  1.1325
 9196TIP3    H251784   6.188   3.216   2.911 -1.4639 -1.6784 -1.7858
 9197TIP3   OH251785   7.125   5.857   3.253  0.4233 -0.4725 -0.2601
 9197TIP3    H151786   7.067   5.794   3.213  0.4473 -0.4610 -0.3133
 9197TIP3    H251787   7.180   5.805   3.312  0.5610 -0.5256 -0.4357
 9198TIP3   OH251788   0.448   4.678   2.960  0.3596 -0.8655  0.1334
 9198TIP3    H151789   0.518   4.673   3.024  0.4754  2.0261  0.3816
 9198TIP3    H251790   0.374   4.715   3.008  0.6907  2.1374 -1.4148
 9199TIP3   OH251791   5.636   1.635   2.636 -0.0220 -0.1093 -0.0681
 9199TIP3    H151792   5.603   1.616   2.724 -0.7565 -0.5116 -0.4255
 9199TIP3    H251793   5.585   1.578   2.578 -1.9711  2.5721 -1.1544
 9200TIP3   OH251794   5.177   5.730   2.188  0.1334 -0.0687  0.4768
 9200TIP3    H151795   5.150   5.690   2.105  2.1943 -2.9647  1.0406
 9200TIP3    H251796   5.097   5.768   2.224 -1.4119 -1.2516 -1.5127
 9201TIP3   OH251797   3.463   6.619   1.434  0.1748 -0.1546 -0.8051
 9201TIP3    H151798   3.372   6.611   1.460  0.3659  0.9597  0.2743
 9201TIP3    H251799   3.478   6.713   1.426  1.1063 -0.3408 -1.4252
 9202TIP3   OH251800   1.438   5.934   2.827  0.9475  0.0553  0.1958
 9202TIP3    H151801   1.523   5.938   2.782  1.2602  0.8293  0.8271
 9202TIP3    H251802   1.383   5.881   2.769  0.8609  2.2648 -1.9026
 9203TIP3   OH251803   5.665   7.255   3.013  0.3138  0.1664  0.4835
 9203TIP3    H151804   5.649   7.221   2.925  0.3503 -0.6177  0.7745
 9203TIP3    H251805   5.691   7.179   3.064  1.3589  0.7948  0.9214
 9204TIP3   OH251806   0.840   3.465   1.399  0.6973 -0.2219 -0.0184
 9204TIP3    H151807   0.821   3.496   1.311 -1.9015 -1.3423  0.0468
 9204TIP3    H251808   0.800   3.378   1.403  0.4978 -0.0886  2.3436
 9205TIP3   OH251809   2.658   3.844   0.640  0.3230 -0.1538 -0.2013
 9205TIP3    H151810   2.691   3.795   0.565 -0.2601  1.5095 -1.5850
 9205TIP3    H251811   2.589   3.787   0.676  0.2846 -0.7726 -1.2018
 9206TIP3   OH251812   5.998   4.077   0.589 -0.2782 -0.0796 -0.3674
 9206TIP3    H151813   5.920   4.035   0.554 -0.2764 -0.1702 -0.2595
 9206TIP3    H251814   6.068   4.013   0.577  0.2322  0.7620 -2.4090
 9207TIP3   OH251815   7.110   5.293   2.086 -0.3638  0.0486 -0.1702
 9207TIP3    H151816   7.115   5.284   2.181  0.3570 -1.0503 -0.3003
 9207TIP3    H251817   7.195   5.265   2.054 -0.9101 -0.5089 -1.1995
 9208TIP3   OH251818   4.575   0.066   2.029 -0.2262  0.1246 -0.1646
 9208TIP3    H151819   4.540   0.115   2.103  1.0695  0.1294  0.4781
 9208TIP3    H251820   4.599  -0.019   2.066 -1.2041 -0.5249 -0.9726
 9209TIP3   OH251821   0.772   2.227   1.101 -0.4556  0.5702  0.2838
 9209TIP3    H151822   0.694   2.172   1.092 -1.1377  1.5876 -0.2986
 9209TIP3    H251823   0.845   2.169   1.079 -1.1546 -0.0898 -0.4027
 9210TIP3   OH251824   6.354   4.821   1.689  0.1642  0.1648 -0.6140
 9210TIP3    H151825   6.268   4.796   1.657 -0.1591  0.5478 -0.0678
 9210TIP3    H251826   6.337   4.891   1.753  0.9131  0.5880 -0.8594
 9211TIP3   OH251827   1.924   1.719   1.866  0.3219  0.2509 -0.1896
 9211TIP3    H151828   1.890   1.642   1.820 -1.6191  1.6910 -1.3311
 9211TIP3    H251829   2.014   1.726   1.835 -0.6014  0.5981 -3.1922
 9212TIP3   OH251830   7.408   5.140   2.293 -0.3555 -0.2519 -0.0614
 9212TIP3    H151831   7.447   5.226   2.279 -0.1538 -0.4698 -0.8879
 9212TIP3    H251832   7.446   5.110   2.376  1.7645 -0.7130 -1.1355
 9213TIP3   OH251833   3.168   6.335   1.562 -0.4849 -0.0816  0.0864
 9213TIP3    H151834   3.178   6.424   1.528 -1.1668 -0.5096 -1.3267
 9213TIP3    H251835   3.108   6.345   1.636  1.0051  0.8759  1.2368
 9214TIP3   OH251836   0.724   2.915   2.900  0.2957 -0.3436 -0.0154
 9214TIP3    H151837   0.681   2.996   2.872  1.5436  0.4288  0.2743
 9214TIP3    H251838   0.652   2.860   2.931 -0.7126  0.1701 -1.3521
 9215TIP3   OH251839   0.096   2.845   0.476 -0.1730  0.3116  0.0523
 9215TIP3    H151840   0.093   2.756   0.442  0.1532 -0.0678  0.9924
 9215TIP3    H251841   0.186   2.857   0.506  0.2648  1.5639 -1.6211
 9216TIP3   OH251842   7.374   7.073   1.208 -0.2396  0.1582 -0.3256
 9216TIP3    H151843   7.315   7.017   1.257  1.1436  0.1399  1.4215
 9216TIP3    H251844   7.439   7.013   1.171  0.3420  0.4206  0.2397
 9217TIP3   OH251845   0.060   5.111   1.756 -0.4332  0.0978  0.5144
 9217TIP3    H151846   0.026   5.139   1.840  0.8355  0.1732  1.0214
 9217TIP3    H251847   0.036   5.182   1.696 -3.0329 -0.8032  0.3261
 9218TIP3   OH251848   2.348   7.107   1.936  0.0772  0.2307  0.2408
 9218TIP3    H151849   2.305   7.191   1.951  0.8091  0.9182 -1.2348
 9218TIP3    H251850   2.442   7.128   1.938  0.3004 -0.7710  0.9772
 9219TIP3   OH251851   7.302   4.959   1.649  0.0072 -0.3843  0.2686
 9219TIP3    H151852   7.260   5.015   1.715 -0.7016  0.4482 -0.8458
 9219TIP3    H251853   7.394   4.956   1.675  0.2249  1.9563 -0.0290
 9220TIP3   OH251854   0.544   4.736   1.412 -0.0967 -0.0460 -0.5384
 9220TIP3    H151855   0.561   4.704   1.323  1.7321  0.2673 -0.3274
 9220TIP3    H251856   0.500   4.663   1.455  0.9249 -1.0038 -1.0795
 9221TIP3   OH251857   5.805   3.880   1.957  0.1399  0.2828 -0.3824
 9221TIP3    H151858   5.796   3.801   2.009 -2.1930  0.6248 -0.1400
 9221TIP3    H251859   5.732   3.876   1.894 -0.6493  2.6149  0.2499
 9222TIP3   OH251860   7.090   3.584   2.433 -0.6441  0.3679  0.1686
 9222TIP3    H151861   7.048   3.622   2.510 -0.3279  0.4880  0.2846
 9222TIP3    H251862   7.132   3.658   2.389  0.8364  0.0301  0.9433
 9223TIP3   OH251863   1.477   1.240   0.675  0.5324  0.0050  0.2606
 9223TIP3    H151864   1.524   1.213   0.754  1.4358 -0.0670 -0.2866
 9223TIP3    H251865   1.481   1.335   0.676  1.9706 -0.0165 -0.5066
 9224TIP3   OH251866   4.196   5.371   2.280 -0.5738 -0.0586  0.3699
 9224TIP3    H151867   4.264   5.437   2.283  0.6774 -1.3606  2.1534
 9224TIP3    H251868   4.194   5.343   2.188  0.6643  0.6146  0.1252
 9225TIP3   OH251869   7.607   1.615   2.016  0.0527  0.3409 -0.4194
 9225TIP3    H151870   7.603   1.613   1.921 -1.0431 -1.0390 -0.3928
 9225TIP3    H251871   7.524   1.655   2.043  0.3262  0.6650 -0.0445
 9226TIP3   OH251872   7.441   5.565   3.171  0.5292 -0.0873 -0.4795
 9226TIP3    H151873   7.510   5.503   3.149  1.0533  0.2429  0.1960
 9226TIP3    H251874   7.485   5.649   3.180  0.1124  0.0561  0.3537
 9227TIP3   OH251875   2.291   4.836   1.688  0.0631  0.2498  0.2903
 9227TIP3    H151876   2.204   4.852   1.653  0.5499  0.3913 -0.9044
 9227TIP3    H251877   2.348   4.897   1.641  0.8821 -0.2019  0.6614
 9228TIP3   OH251878   4.985   0.812   1.830 -0.4383  0.0622 -0.4225
 9228TIP3    H151879   4.937   0.862   1.764 -1.1143 -0.3017 -0.2199
 9228TIP3    H251880   4.991   0.724   1.793  2.3687  0.6505 -1.6281
 9229TIP3   OH251881   2.115   1.239   2.059  0.6298 -0.3553  0.1817
 9229TIP3    H151882   2.038   1.243   2.002  0.8231 -0.1948 -0.0735
 9229TIP3    H251883   2.143   1.148   2.055 -0.5575 -0.8296  1.6484
 9230TIP3   OH251884   3.865   6.566   0.872  0.2285 -0.2043 -0.0403
 9230TIP3    H151885   3.857   6.515   0.791 -1.7466 -1.0616  0.6375
 9230TIP3    H251886   3.821   6.649   0.853 -0.5297 -0.5349  0.2354
 9231TIP3   OH251887   0.776   2.836   2.543  0.1072  0.4180  0.2278
 9231TIP3    H151888   0.706   2.801   2.487  0.5262 -0.0603 -0.0090
 9231TIP3    H251889   0.847   2.772   2.535  0.5787  0.9070  0.4498
 9232TIP3   OH251890   4.253   2.149   1.547 -0.0155  0.0580  0.0775
 9232TIP3    H151891   4.280   2.239   1.527  1.9686 -0.8313 -1.6667
 9232TIP3    H251892   4.303   2.125   1.624 -0.8432  0.5339  0.7850
 9233TIP3   OH251893   2.234   3.243   3.123 -0.6083  0.0913 -0.5482
 9233TIP3    H151894   2.155   3.189   3.125 -0.7907  0.3595 -0.4412
 9233TIP3    H251895   2.278   3.226   3.206 -0.8287  0.3442 -0.3762
 9234TIP3   OH251896   1.597   4.969   3.039 -0.1488  0.4025  0.4865
 9234TIP3    H151897   1.593   5.049   3.092  0.3592  0.3163  0.6616
 9234TIP3    H251898   1.638   4.997   2.957  0.6767  0.1893  0.8153
 9235TIP3   OH251899   1.108   5.406   1.789  0.3649  0.0238  0.3407
 9235TIP3    H151900   1.032   5.461   1.773 -0.1622 -1.1630 -1.5388
 9235TIP3    H251901   1.073   5.317   1.793  1.6093 -0.5212 -0.3360
 9236TIP3   OH251902   4.364   7.087   3.594  0.3943  0.0389 -0.2920
 9236TIP3    H151903   4.457   7.098   3.613  0.0151  0.6547  1.4010
 9236TIP3    H251904   4.328   7.175   3.605 -0.8137 -0.6404  1.9089
 9237TIP3   OH251905   4.762   2.258   2.064  0.1619 -0.2070 -0.1040
 9237TIP3    H151906   4.843   2.297   2.031 -0.3978  0.0076 -1.2774
 9237TIP3    H251907   4.765   2.167   2.032  1.0885 -0.9744  1.9565
 9238TIP3   OH251908   3.813   4.409   2.180 -0.4382  0.1299 -0.3680
 9238TIP3    H151909   3.861   4.329   2.154 -1.3522 -0.9927  1.2346
 9238TIP3    H251910   3.746   4.420   2.113 -1.1806 -1.2845  0.0981
 9239TIP3   OH251911   6.707   7.161   1.909 -0.2411  0.3477 -0.2748
 9239TIP3    H151912   6.671   7.239   1.866  0.4365  1.5948  1.3019
 9239TIP3    H251913   6.672   7.165   1.997  0.7656 -0.4814  0.1758
 9240TIP3   OH251914   5.294   6.963   0.685 -0.0200 -0.3560  0.3582
 9240TIP3    H151915   5.315   6.881   0.729  1.2441 -0.3882 -0.2806
 9240TIP3    H251916   5.369   6.980   0.628 -0.9029  0.5099 -0.5814
 9241TIP3   OH251917   0.466   2.356   1.370  0.1340  0.1861  0.2113
 9241TIP3    H151918   0.417   2.433   1.341  2.8492  3.5421  3.4744
 9241TIP3    H251919   0.412   2.320   1.442  0.9030  2.0572  1.8170
 9242TIP3   OH251920   5.370   6.700   0.719 -0.2454 -0.0028 -0.0905
 9242TIP3    H151921   5.368   6.656   0.804 -0.4512  1.5061  0.7246
 9242TIP3    H251922   5.314   6.647   0.663  0.4811 -1.4315  0.4955
 9243TIP3   OH251923   1.423   0.444   1.573  0.1257  0.6892  0.7193
 9243TIP3    H151924   1.359   0.411   1.510  1.6375  1.3405 -1.2814
 9243TIP3    H251925   1.417   0.539   1.567  1.5272  0.7731  0.1596
 9244TIP3   OH251926   3.508   1.981   0.639  0.6783 -0.4102  0.1946
 9244TIP3    H151927   3.555   1.913   0.593  0.3100  0.6257 -1.8097
 9244TIP3    H251928   3.415   1.959   0.626  0.5671  0.1498  0.0096
 9245TIP3   OH251929   0.552   3.483   2.783 -0.5756 -0.4450  0.2604
 9245TIP3    H151930   0.537   3.410   2.723  0.9143 -0.1212 -0.5491
 9245TIP3    H251931   0.625   3.455   2.837  1.2084  1.0883 -1.2420
 9246TIP3   OH251932   0.144   2.641   2.984 -0.0276  0.3276 -0.1357
 9246TIP3    H151933   0.177   2.692   3.058 -1.8663 -0.0733  1.0326
 9246TIP3    H251934   0.149   2.701   2.910 -2.6344  2.5792  1.2930
 9247TIP3   OH251935   7.058   1.777   2.815  0.2218 -0.0833 -0.3023
 9247TIP3    H151936   6.992   1.839   2.846  0.8352  0.6486 -0.4437
 9247TIP3    H251937   7.011   1.721   2.754 -0.6857 -0.6816  0.8951
 9248TIP3   OH251938   6.899   2.379   0.589 -0.0410  0.3990 -0.2319
 9248TIP3    H151939   6.966   2.407   0.526 -0.1466  1.2291  0.0132
 9248TIP3    H251940   6.893   2.284   0.577 -0.7765  0.6384 -2.1959
 9249TIP3   OH251941   3.583   6.545   2.889  0.5076  0.2681  0.0247
 9249TIP3    H151942   3.565   6.638   2.876 -1.1197  0.0158  0.2515
 9249TIP3    H251943   3.678   6.538   2.886  0.7045  2.0661  0.8797
 9250TIP3   OH251944   1.532   5.761   1.270 -0.2348  0.5039  0.1748
 9250TIP3    H151945   1.534   5.724   1.358 -0.0869  0.2694  0.0771
 9250TIP3    H251946   1.528   5.684   1.212  1.4819  0.5617 -0.0896
 9251TIP3   OH251947   1.200   7.469   2.559  0.0231  0.2265 -0.0801
 9251TIP3    H151948   1.251   7.508   2.488  0.1805 -0.1201 -0.1636
 9251TIP3    H251949   1.190   7.377   2.533 -0.5299  0.2599  0.0007
 9252TIP3   OH251950   5.974   2.260   0.641  0.3752  0.0461 -0.3571
 9252TIP3    H151951   6.066   2.235   0.640  0.4122  0.0419  1.0265
 9252TIP3    H251952   5.927   2.178   0.623  0.5791 -0.5466  1.6131
 9253TIP3   OH251953   3.873   5.600   2.458  0.2987 -0.3281 -0.4297
 9253TIP3    H151954   3.849   5.690   2.480  1.0905 -0.8932  3.2712
 9253TIP3    H251955   3.968   5.596   2.469  0.3172 -1.5903 -0.8038
 9254TIP3   OH251956   0.048   3.714   3.073  0.0545  0.6937 -0.3735
 9254TIP3    H151957   0.101   3.766   3.012 -0.2514 -0.8765 -2.0629
 9254TIP3    H251958   0.102   3.707   3.151  1.1361  1.4809 -1.0152
 9255TIP3   OH251959   6.770   4.233   0.758 -0.5422  0.0257 -0.2204
 9255TIP3    H151960   6.812   4.204   0.677  1.2836 -0.4288  0.8358
 9255TIP3    H251961   6.711   4.161   0.782 -2.0616  0.7014 -1.7595
 9256TIP3   OH251962   7.359   7.519   1.557 -0.0886  0.4089  0.4738
 9256TIP3    H151963   7.421   7.521   1.483 -0.6728 -0.6927 -0.0702
 9256TIP3    H251964   7.376   7.435   1.600  0.0956  0.9452  1.4781
 9257TIP3   OH251965   2.427   0.843   2.654  0.5549  0.1667 -0.9427
 9257TIP3    H151966   2.509   0.823   2.701 -1.3734 -2.7266  1.5780
 9257TIP3    H251967   2.397   0.924   2.694  0.3523 -0.7933  0.9789
 9258TIP3   OH251968   6.193   6.981   2.283  0.3354  0.2351  0.5675
 9258TIP3    H151969   6.142   7.056   2.252 -0.1501 -0.2768  0.1024
 9258TIP3    H251970   6.140   6.943   2.353  0.2279 -0.1023  0.3072
 9259TIP3   OH251971   2.267   7.645   0.913 -0.1207  0.2571  0.4104
 9259TIP3    H151972   2.355   7.631   0.876 -0.1647 -2.1689  1.0306
 9259TIP3    H251973   2.282   7.701   0.989  1.0949 -0.9153  1.0925
 9260TIP3   OH251974   5.387   3.195   3.114  0.5207  0.2441  0.1625
 9260TIP3    H151975   5.391   3.284   3.079  0.2768  0.4743  0.7059
 9260TIP3    H251976   5.338   3.203   3.195  3.0717  0.1544  1.8368
 9261TIP3   OH251977   1.760   6.902   2.421 -0.1668  0.1210  0.0245
 9261TIP3    H151978   1.697   6.964   2.384 -0.5297 -0.3209 -0.0965
 9261TIP3    H251979   1.822   6.885   2.350 -0.6626 -0.4580 -0.2710
 9262TIP3   OH251980   6.452   6.049   3.462 -0.5355  0.2769  0.0031
 9262TIP3    H151981   6.380   6.003   3.420 -0.2211  1.1967 -1.6051
 9262TIP3    H251982   6.430   6.142   3.454  1.5090  0.6855 -1.9506
 9263TIP3   OH251983   0.906   3.381   0.874 -0.6418 -0.2788  0.4206
 9263TIP3    H151984   0.948   3.319   0.933  0.3646  0.8895  0.9636
 9263TIP3    H251985   0.939   3.357   0.787 -0.7705 -0.9015  0.5385
 9264TIP3   OH251986   7.495   2.432   0.769 -0.2625 -0.7807  0.3303
 9264TIP3    H151987   7.514   2.424   0.676  0.0788  0.0014  0.3312
 9264TIP3    H251988   7.457   2.519   0.779  3.7316  1.0891  1.5343
 9265TIP3   OH251989   5.832   0.625   1.219 -0.1803  0.3997  0.3425
 9265TIP3    H151990   5.926   0.615   1.205 -0.0321 -0.4677  1.7951
 9265TIP3    H251991   5.805   0.686   1.151  1.3394  0.2868 -0.4178
 9266TIP3   OH251992   4.897   0.962   1.597 -0.4280  0.0062  0.7423
 9266TIP3    H151993   4.988   0.960   1.566  0.2628  0.3727  2.5977
 9266TIP3    H251994   4.846   0.927   1.524  1.3881 -1.7344  0.2030
 9267TIP3   OH251995   3.407   2.058   1.163  0.4102 -0.5854 -0.4141
 9267TIP3    H151996   3.326   2.043   1.212 -0.4487  1.2175 -1.2013
 9267TIP3    H251997   3.466   1.990   1.194 -0.6829 -0.6255  1.7955
 9268TIP3   OH251998   0.917   6.067   0.720 -0.6508  0.1001  0.0619
 9268TIP3    H151999   0.867   6.011   0.660 -3.0821  2.2923 -0.1276
 9268TIP3    H252000   0.858   6.081   0.793 -0.1162  2.3428  0.1184
 9269TIP3   OH252001   4.388   5.381   2.958 -0.1692 -0.2262  0.2887
 9269TIP3    H152002   4.396   5.311   2.893  0.2227 -0.2429  0.3555
 9269TIP3    H252003   4.445   5.354   3.030 -0.3392 -0.0411  0.4937
 9270TIP3   OH252004   6.073   0.276   2.060 -0.2528  0.5140  0.0705
 9270TIP3    H152005   6.114   0.198   2.022 -1.4476  0.2486 -0.7309
 9270TIP3    H252006   6.145   0.322   2.102  0.6194 -0.6304 -0.1001
 9271TIP3   OH252007   1.270   3.256   0.743 -0.3169  0.0712  0.1033
 9271TIP3    H152008   1.287   3.319   0.813 -0.6267 -1.0337  1.1952
 9271TIP3    H252009   1.336   3.188   0.754  0.9829  0.9042 -2.0053
 9272TIP3   OH252010   6.643   6.774   1.178 -0.2680  0.2347 -0.0806
 9272TIP3    H152011   6.700   6.734   1.112  0.7315  1.8513 -0.2492
 9272TIP3    H252012   6.695   6.773   1.259  1.2743  4.0626 -0.7696
 9273TIP3   OH252013   3.068   0.404   1.768  0.1711 -0.2086 -0.6946
 9273TIP3    H152014   3.145   0.423   1.715  0.1436 -0.8377 -0.9666
 9273TIP3    H252015   3.063   0.478   1.829  1.1181 -0.2641 -0.5219
 9274TIP3   OH252016   4.426   3.315   2.649 -0.3774  0.2752  0.4993
 9274TIP3    H152017   4.492   3.249   2.671  0.0120  0.8352  1.0629
 9274TIP3    H252018   4.420   3.369   2.728 -1.4453  0.2910  0.4175
 9275TIP3   OH252019   0.502   5.713   1.300 -0.2267 -0.0183 -0.1019
 9275TIP3    H152020   0.480   5.767   1.224 -0.7197 -1.4530 -1.0191
 9275TIP3    H252021   0.418   5.694   1.342 -0.2998 -1.5410 -0.8513
 9276TIP3   OH252022   1.209   2.921   2.154 -0.4596 -0.4910 -0.0325
 9276TIP3    H152023   1.137   2.862   2.173 -1.4738  0.1740 -1.6261
 9276TIP3    H252024   1.170   3.009   2.154  0.4510 -0.0656 -0.3582
 9277TIP3   OH252025   6.079   6.102   0.725 -0.4391 -0.4822 -0.1895
 9277TIP3    H152026   6.173   6.084   0.733 -0.7576 -1.6943  1.3765
 9277TIP3    H252027   6.057   6.147   0.806 -1.0704  0.6084 -0.9431
 9278TIP3   OH252028   3.745   4.910   0.770  0.0487 -0.6671  0.0080
 9278TIP3    H152029   3.817   4.879   0.825  1.9513  0.0627 -1.9117
 9278TIP3    H252030   3.786   4.928   0.685 -2.3400  0.2218 -1.0504
 9279TIP3   OH252031   1.373   5.494   2.193  0.2790  0.4574 -0.0799
 9279TIP3    H152032   1.370   5.508   2.287  0.5525  1.7270 -0.2417
 9279TIP3    H252033   1.434   5.560   2.161 -1.6289  1.6585 -1.4262
 9280TIP3   OH252034   5.618   5.541   1.060  0.0330  0.4293  0.5744
 9280TIP3    H152035   5.532   5.524   1.099  0.2579  0.4083  1.0708
 9280TIP3    H252036   5.676   5.554   1.135  1.1868 -2.8886  0.4324
 9281TIP3   OH252037   3.290   1.315   0.412 -0.4436  0.0452  0.3145
 9281TIP3    H152038   3.274   1.221   0.419  0.3096 -0.3699 -2.4625
 9281TIP3    H252039   3.385   1.322   0.402 -0.5684  1.0092 -0.3313
 9282TIP3   OH252040   1.190   4.236   2.083 -0.2469  0.1761  0.2252
 9282TIP3    H152041   1.108   4.188   2.072 -0.5716  0.2462  1.9788
 9282TIP3    H252042   1.228   4.201   2.164  0.3884  1.6198  0.5940
 9283TIP3   OH252043   6.525   1.488   2.040  0.0674  0.7343 -0.0342
 9283TIP3    H152044   6.586   1.500   2.113  1.7542 -2.6328 -0.6951
 9283TIP3    H252045   6.462   1.424   2.071  0.3953 -0.2153 -1.2425
 9284TIP3   OH252046   2.995   6.984   1.218 -0.1896 -0.0310 -0.5589
 9284TIP3    H152047   2.941   7.047   1.266  1.2614  1.9700 -1.4344
 9284TIP3    H252048   3.030   6.926   1.286 -1.2723  0.3106  0.3250
 9285TIP3   OH252049   7.651   1.117   0.961 -0.6149  0.5045  0.4262
 9285TIP3    H152050   7.724   1.059   0.942 -1.2903  0.0914 -1.1258
 9285TIP3    H252051   7.575   1.059   0.968 -0.5114  0.6247  4.5773
 9286TIP3   OH252052   5.277   2.160   1.883  0.0774 -0.1771  0.0481
 9286TIP3    H152053   5.370   2.147   1.864 -0.6293 -3.2860 -2.2868
 9286TIP3    H252054   5.256   2.092   1.947 -0.8243 -0.4727 -0.5326
 9287TIP3   OH252055   6.328   5.512   1.360 -0.0597 -0.1109 -0.7469
 9287TIP3    H152056   6.413   5.479   1.333  0.1574  0.4734 -0.7785
 9287TIP3    H252057   6.346   5.595   1.404 -0.4518 -0.7885  0.7606
 9288TIP3   OH252058   6.226   0.663   1.112 -0.1340  0.0034 -0.2721
 9288TIP3    H152059   6.180   0.581   1.133 -0.1622  0.2032  0.4997
 9288TIP3    H252060   6.267   0.647   1.028 -1.1379 -0.3904 -0.7064
 9289TIP3   OH252061   2.669   3.882   2.313 -0.2183 -0.2243 -0.1759
 9289TIP3    H152062   2.714   3.850   2.235 -0.4982 -1.4862  0.1569
 9289TIP3    H252063   2.653   3.975   2.295  0.4143 -0.3135 -1.2796
 9290TIP3   OH252064   3.285   2.423   2.702 -0.3283  0.5816 -0.3301
 9290TIP3    H152065   3.317   2.352   2.646  3.4780  0.3817  1.8089
 9290TIP3    H252066   3.234   2.379   2.770  0.8200  0.0119  0.1809
 9291TIP3   OH252067   7.405   7.302   1.803  0.7026  0.1446 -0.1395
 9291TIP3    H152068   7.345   7.230   1.824  1.1635  0.1927  1.4942
 9291TIP3    H252069   7.440   7.280   1.717 -1.2873 -0.1165 -0.9442
 9292TIP3   OH252070   2.752   1.709   2.328  0.0621  0.1310 -0.5059
 9292TIP3    H152071   2.795   1.787   2.292 -1.3010  1.3135  0.3276
 9292TIP3    H252072   2.824   1.655   2.361  1.0065  1.3498 -0.5017
 9293TIP3   OH252073   3.980   3.767   1.495  0.1665 -0.3968  0.1757
 9293TIP3    H152074   4.054   3.751   1.554  0.5343 -0.1893 -0.2234
 9293TIP3    H252075   4.021   3.800   1.415 -0.3030 -1.0385 -0.3327
 9294TIP3   OH252076   3.203   3.931   2.302 -0.0369 -0.2521  0.0314
 9294TIP3    H152077   3.272   3.889   2.251  0.2930 -0.3110  0.5279
 9294TIP3    H252078   3.124   3.921   2.247  0.1619 -0.9574 -0.1405
 9295TIP3   OH252079   5.356   4.913   1.059  0.3584 -0.1913 -0.4733
 9295TIP3    H152080   5.324   4.890   0.972  0.9660  1.9749 -1.3434
 9295TIP3    H252081   5.447   4.939   1.044  0.2446  0.9468  0.6741
 9296TIP3   OH252082   2.721   1.474   3.075  0.7115  0.4633  0.1326
 9296TIP3    H152083   2.773   1.395   3.086  1.4623  0.8078 -0.7500
 9296TIP3    H252084   2.636   1.443   3.045  0.8803 -0.0327  0.1631
 9297TIP3   OH252085   1.546   1.564   2.530 -0.1917  0.5656  0.8219
 9297TIP3    H152086   1.520   1.630   2.465 -0.3552 -0.9119 -0.6680
 9297TIP3    H252087   1.502   1.484   2.503  0.0560 -0.2072  2.5542
 9298TIP3   OH252088   6.294   3.593   2.782  0.3852 -0.0202 -0.6046
 9298TIP3    H152089   6.237   3.644   2.839  2.8141 -0.1097  2.1781
 9298TIP3    H252090   6.277   3.627   2.694 -1.0902  2.6381  0.5810
 9299TIP3   OH252091   6.725   6.032   1.374  0.5107  0.1597  0.4459
 9299TIP3    H152092   6.816   6.002   1.371  0.3755 -0.1828 -1.6423
 9299TIP3    H252093   6.683   5.974   1.438  1.4033 -0.7941  0.2081
 9300TIP3   OH252094   5.170   2.671   1.429  0.7126  0.0974  0.4168
 9300TIP3    H152095   5.153   2.585   1.467  0.0570  0.3156  0.6272
 9300TIP3    H252096   5.117   2.731   1.481  2.1999  0.8352  1.1652
 9301TIP3   OH252097   2.341   4.657   2.776  0.0438 -0.2125 -0.1428
 9301TIP3    H152098   2.303   4.641   2.862 -0.5887  0.4626 -0.2876
 9301TIP3    H252099   2.266   4.656   2.716  0.6390 -2.3213 -0.9429
 9302TIP3   OH252100   3.911   2.643   2.187  0.2289  0.1083 -0.4126
 9302TIP3    H152101   3.983   2.666   2.245 -0.2604  1.7494 -0.3913
 9302TIP3    H252102   3.843   2.708   2.207 -0.6543 -0.4511 -1.4978
 9303TIP3   OH252103   5.891   3.786   0.793  0.0252 -0.2699 -0.1781
 9303TIP3    H152104   5.854   3.867   0.756  0.7372  0.6926  1.1427
 9303TIP3    H252105   5.815   3.736   0.823 -0.4058  0.0145 -0.7639
 9304TIP3   OH252106   7.065   3.567   2.087  0.1034 -0.4893 -0.9790
 9304TIP3    H152107   7.117   3.593   2.163 -0.8316  0.3690 -0.6073
 9304TIP3    H252108   7.124   3.578   2.012 -0.3384  3.3239 -0.9271
 9305TIP3   OH252109   7.322   1.687   2.494 -0.4005  0.3044  0.0553
 9305TIP3    H152110   7.329   1.601   2.452  0.9325  0.1023  0.6410
 9305TIP3    H252111   7.251   1.731   2.447  0.6838 -0.0850 -2.0867
 9306TIP3   OH252112   7.121   6.925   3.207 -0.0329 -0.4790  0.1455
 9306TIP3    H152113   7.215   6.940   3.204  0.0139 -0.5205  1.0341
 9306TIP3    H252114   7.106   6.854   3.145  0.3392  0.3447 -0.9162
 9307TIP3   OH252115   0.953   4.526   2.478 -0.2661 -0.3456 -0.3918
 9307TIP3    H152116   0.917   4.516   2.390 -0.7993 -0.5151 -0.1583
 9307TIP3    H252117   1.034   4.475   2.476 -0.1714 -0.1810 -0.8447
 9308TIP3   OH252118   2.277   3.200   1.025  0.1175  0.1187 -0.6412
 9308TIP3    H152119   2.277   3.110   0.991  1.1410 -0.0135 -0.3187
 9308TIP3    H252120   2.295   3.190   1.118 -2.6965  0.4782  0.0315
 9309TIP3   OH252121   6.100   2.477   2.674 -0.1827  0.3800 -0.3573
 9309TIP3    H152122   6.136   2.493   2.761  2.6377  3.6583 -1.8650
 9309TIP3    H252123   6.175   2.453   2.620 -1.5125  0.2161 -2.2720
 9310TIP3   OH252124   0.354   3.245   3.857 -0.1085 -0.3757  0.2851
 9310TIP3    H152125   0.447   3.247   3.834 -0.0793  0.1570  0.4472
 9310TIP3    H252126   0.337   3.153   3.878  0.3365 -0.5088  0.0827
 9311TIP3   OH252127   2.015   3.036   1.350 -0.2441 -0.2252  0.2645
 9311TIP3    H152128   2.080   3.014   1.416 -1.7139 -2.9166  0.9618
 9311TIP3    H252129   1.944   3.077   1.399 -0.9937 -1.5022  0.2938
 9312TIP3   OH252130   6.592   6.395   2.279 -0.3076 -0.4511  0.6659
 9312TIP3    H152131   6.575   6.484   2.250 -0.8844 -0.8229 -0.2031
 9312TIP3    H252132   6.536   6.383   2.355  0.2601  0.1320  1.1794
 9313TIP3   OH252133   1.166   5.008   0.774  0.1994 -1.1134 -0.1387
 9313TIP3    H152134   1.185   5.050   0.858 -1.3488 -0.4160 -0.1028
 9313TIP3    H252135   1.117   4.929   0.797 -3.0077  0.6400 -0.4042
 9314TIP3   OH252136   1.682   4.933   1.927  0.1663 -0.2591  0.3361
 9314TIP3    H152137   1.755   4.906   1.983  2.7185  1.8263 -1.7287
 9314TIP3    H252138   1.628   4.988   1.983 -0.4706 -2.5740  2.1648
 9315TIP3   OH252139   6.326   6.153   2.861 -0.5275  0.3129 -0.6787
 9315TIP3    H152140   6.410   6.179   2.899 -0.3507  0.4136 -1.1392
 9315TIP3    H252141   6.336   6.059   2.843 -0.9853  0.0124  0.4992
 9316TIP3   OH252142   0.817   7.012   2.183 -0.1408  0.2574 -0.3955
 9316TIP3    H152143   0.815   7.100   2.221 -0.9928 -0.3285  0.9913
 9316TIP3    H252144   0.770   7.021   2.099  0.3632  1.2438 -0.5824
 9317TIP3   OH252145   7.390   6.975   3.213  0.2072  0.3512 -0.0132
 9317TIP3    H152146   7.465   6.926   3.179 -0.2109 -0.8094  0.6602
 9317TIP3    H252147   7.352   7.017   3.136 -0.0220 -1.2401 -0.8144
 9318TIP3   OH252148   0.032   2.122   1.753  0.2562  0.1652 -0.1087
 9318TIP3    H152149  -0.006   2.043   1.715 -1.2362  0.2459  1.1280
 9318TIP3    H252150   0.036   2.184   1.681 -2.1709  0.2045 -0.2760
 9319TIP3   OH252151   6.768   6.119   3.171  0.1669  0.4601  0.7211
 9319TIP3    H152152   6.752   6.126   3.265  1.8956 -1.0682  1.1736
 9319TIP3    H252153   6.863   6.108   3.163 -0.0828 -0.9338 -1.0859
 9320TIP3   OH252154   5.190   0.962   1.948 -0.2885 -0.4562  0.2803
 9320TIP3    H152155   5.135   0.913   1.888  0.4822  2.1558 -2.8577
 9320TIP3    H252156   5.129   1.000   2.012 -2.0080  0.9256 -2.0435
 9321TIP3   OH252157   4.478   0.529   2.256 -0.2613 -0.2502  0.0084
 9321TIP3    H152158   4.447   0.563   2.340  0.6895  0.8060 -0.0379
 9321TIP3    H252159   4.568   0.501   2.274  1.1050  2.8364 -1.2679
 9322TIP3   OH252160   3.218   5.035   0.873  0.5215  0.5795  0.2310
 9322TIP3    H152161   3.183   5.022   0.961  0.3587  0.9533  0.2226
 9322TIP3    H252162   3.292   5.095   0.886  0.2046  1.0159  0.0593
 9323TIP3   OH252163   7.535   5.664   1.275  0.3040 -0.0692  0.2549
 9323TIP3    H152164   7.549   5.609   1.199 -0.0900  0.3578 -0.1343
 9323TIP3    H252165   7.485   5.739   1.242  0.3321  0.2375  0.8823
 9324TIP3   OH252166   7.519   5.752   1.545 -0.5843 -0.1216  0.2792
 9324TIP3    H152167   7.492   5.843   1.534 -1.7314 -0.3509  0.9525
 9324TIP3    H252168   7.519   5.715   1.457  2.2190  1.0939 -0.3365
 9325TIP3   OH252169   5.559   3.440   0.883  0.2120  0.3659  0.0134
 9325TIP3    H152170   5.504   3.483   0.818 -1.8400 -2.5134 -0.3365
 9325TIP3    H252171   5.600   3.367   0.836  0.3740 -0.4903  1.4151
 9326TIP3   OH252172   5.345   4.985   0.731 -0.2369 -0.3615  0.2763
 9326TIP3    H152173   5.321   5.068   0.771  0.9144  0.4523 -0.6326
 9326TIP3    H252174   5.435   4.998   0.700 -0.4782 -1.4936 -1.0445
 9327TIP3   OH252175   3.777   0.257   1.328  0.0730 -0.6085  0.7566
 9327TIP3    H152176   3.867   0.270   1.298 -0.3919  2.1208  0.2708
 9327TIP3    H252177   3.734   0.212   1.256  0.2595  1.1709 -0.5270
 9328TIP3   OH252178   6.498   5.283   2.828 -0.5978  0.4284  0.5871
 9328TIP3    H152179   6.410   5.305   2.798  0.0795  0.6378 -1.4375
 9328TIP3    H252180   6.492   5.191   2.854 -1.1930  0.1013 -0.6040
 9329TIP3   OH252181   3.767   6.119   1.121 -0.1107 -0.3187 -0.1472
 9329TIP3    H152182   3.743   6.207   1.093  0.9044 -0.1004 -0.3653
 9329TIP3    H252183   3.860   6.124   1.140  0.2498 -1.6393 -1.3482
 9330TIP3   OH252184   2.949   2.727   1.391  0.0400 -0.9529  0.0406
 9330TIP3    H152185   2.957   2.722   1.295 -1.3034 -0.3119 -0.1328
 9330TIP3    H252186   2.924   2.818   1.408  0.4486 -1.0115  1.0256
 9331TIP3   OH252187   1.239   1.611   1.199 -0.2983 -0.2555 -0.2338
 9331TIP3    H152188   1.274   1.653   1.277  0.4360  2.6891 -1.9788
 9331TIP3    H252189   1.164   1.665   1.175 -1.2274 -1.7976 -0.9653
 9332TIP3   OH252190   7.643   3.897   1.212  0.3012 -0.6884 -0.0811
 9332TIP3    H152191   7.646   3.964   1.145  2.2874 -1.3647 -0.7393
 9332TIP3    H252192   7.645   3.946   1.295  1.0966  0.0746 -0.5404
 9333TIP3   OH252193   7.677   5.966   2.073 -0.3854 -0.1539  0.1397
 9333TIP3    H152194   7.678   6.009   2.158  0.0284  0.3631 -0.1191
 9333TIP3    H252195   7.703   5.875   2.091 -3.0608 -0.8416  0.9535
 9334TIP3   OH252196   2.192   3.026   0.683  0.1398 -0.0228 -0.1384
 9334TIP3    H152197   2.176   3.005   0.775 -0.0287  0.9852  0.0685
 9334TIP3    H252198   2.220   2.943   0.644  1.0767 -0.2736  1.0180
 9335TIP3   OH252199   0.934   2.951   0.741 -0.0077 -0.0872  0.4978
 9335TIP3    H152200   0.899   2.872   0.699 -0.2503 -0.4415  1.3370
 9335TIP3    H252201   0.857   3.003   0.764  0.1936  0.9300 -1.0248
 9336TIP3   OH252202   0.464   2.654   1.241 -0.1270 -0.4775  0.2335
 9336TIP3    H152203   0.388   2.612   1.280  0.0022 -0.0149  0.9985
 9336TIP3    H252204   0.473   2.612   1.155 -0.2326 -1.7273  0.8096
 9337TIP3   OH252205   7.460   1.555   1.466 -0.1236  0.2620  0.3400
 9337TIP3    H152206   7.512   1.474   1.468 -0.8720 -0.2341  2.1926
 9337TIP3    H252207   7.491   1.601   1.388  0.6881 -1.5609 -0.4864
 9338TIP3   OH252208   0.520   3.287   2.587  0.0731 -0.4169  0.0599
 9338TIP3    H152209   0.567   3.230   2.526 -1.0919  0.4509 -1.7546
 9338TIP3    H252210   0.448   3.323   2.535 -0.2621  1.3415  1.6294
 9339TIP3   OH252211   6.635   6.387   1.827 -0.3198 -0.1191 -0.0153
 9339TIP3    H152212   6.662   6.462   1.775  0.9960 -1.9203 -2.0984
 9339TIP3    H252213   6.564   6.347   1.776  0.5054 -1.5163 -0.1032
 9340TIP3   OH252214   0.464   2.629   1.628 -0.7133  0.7430 -0.3098
 9340TIP3    H152215   0.376   2.592   1.617  0.0067 -1.3921  0.5560
 9340TIP3    H252216   0.520   2.575   1.573  0.8514 -1.6461  3.2103
 9341TIP3   OH252217   3.960   4.759   2.451 -0.2164 -0.5153 -0.3050
 9341TIP3    H152218   3.921   4.672   2.443  0.4371 -0.9691  1.1213
 9341TIP3    H252219   3.942   4.801   2.367 -0.2540 -2.1506 -1.1560
 9342TIP3   OH252220   7.563   1.580   1.753 -0.1527 -0.0688 -0.2005
 9342TIP3    H152221   7.488   1.608   1.701 -1.9397 -1.6697  1.3963
 9342TIP3    H252222   7.639   1.606   1.700 -1.7788  1.3782 -1.9933
 9343TIP3   OH252223   6.074   5.260   1.006 -0.0719 -0.1173 -0.4573
 9343TIP3    H152224   6.133   5.327   1.039 -2.2366  1.5235  0.2971
 9343TIP3    H252225   6.052   5.289   0.918 -1.0062  0.1769 -0.1332
 9344TIP3   OH252226   0.823   0.773   1.361 -0.1987  0.9910 -0.1200
 9344TIP3    H152227   0.919   0.777   1.366 -0.1256 -0.3243  0.0999
 9344TIP3    H252228   0.800   0.699   1.417 -1.2114  0.2681 -1.4384
 9345TIP3   OH252229   5.803   6.258   0.506  0.2452  0.1696  0.2428
 9345TIP3    H152230   5.886   6.211   0.519  0.1775  0.2513  0.9858
 9345TIP3    H252231   5.828   6.350   0.499  0.7347 -0.0834 -4.2064
 9346TIP3   OH252232   6.002   4.343   0.501  0.7644  0.2139 -0.7766
 9346TIP3    H152233   5.998   4.250   0.526  2.0545  0.8987  2.4136
 9346TIP3    H252234   5.967   4.390   0.576  0.9144  2.3995 -1.9878
 9347TIP3   OH252235   0.983   4.644   1.193  0.1976  0.0979  0.6522
 9347TIP3    H152236   1.003   4.666   1.283 -0.9828 -1.0484  1.2307
 9347TIP3    H252237   1.048   4.577   1.169 -0.0679 -0.2776  0.9744
 9348TIP3   OH252238   1.867   3.118   2.216 -0.0602  0.1757  0.0742
 9348TIP3    H152239   1.814   3.151   2.143  0.2969  0.9138  0.1367
 9348TIP3    H252240   1.844   3.025   2.223 -0.9034  0.3468 -0.2811
 9349TIP3   OH252241   6.129   2.401   1.829  0.3540 -0.1805  0.3240
 9349TIP3    H152242   6.157   2.322   1.876 -0.4231 -0.9685 -0.5070
 9349TIP3    H252243   6.110   2.371   1.740 -1.2997  0.6665  0.3528
 9350TIP3   OH252244   3.384   3.609   2.229  0.3683 -0.0865 -0.1270
 9350TIP3    H152245   3.387   3.549   2.154 -1.5671 -2.4345  1.5063
 9350TIP3    H252246   3.366   3.695   2.190 -2.7425 -1.5387 -2.3249
 9351TIP3   OH252247   0.516   6.867   0.500  0.6135  0.3998 -0.2704
 9351TIP3    H152248   0.607   6.871   0.528 -0.1033 -3.0648  3.4387
 9351TIP3    H252249   0.482   6.955   0.517  2.2245  0.5543  2.9299
 9352TIP3   OH252250   3.793   0.970   0.608  0.6359  0.0380  0.4767
 9352TIP3    H152251   3.858   0.909   0.643  0.5855 -0.1048  0.3185
 9352TIP3    H252252   3.842   1.052   0.596  0.3795  0.4550  2.0299
 9353TIP3   OH252253   5.019   6.951   0.846 -0.4721  0.2212 -0.3375
 9353TIP3    H152254   4.978   6.896   0.779 -1.1412  1.1379 -0.7092
 9353TIP3    H252255   5.073   6.891   0.897 -1.5143 -0.8670 -0.4598
 9354TIP3   OH252256   0.927   4.216   1.589  0.7399 -0.4355  0.2966
 9354TIP3    H152257   0.894   4.269   1.516 -1.1237 -0.5455  1.0126
 9354TIP3    H252258   0.987   4.274   1.636 -0.9751  0.9367  0.8598
 9355TIP3   OH252259   6.211   4.531   0.512  0.1375  0.5426  0.4439
 9355TIP3    H152260   6.145   4.462   0.519  1.7113 -0.9025  1.8236
 9355TIP3    H252261   6.193   4.573   0.428 -1.1254 -1.2901 -0.2664
 9356TIP3   OH252262   1.963   0.280   1.142  0.5659  0.0697  0.2974
 9356TIP3    H152263   1.890   0.300   1.200  2.1635 -0.3355  2.6277
 9356TIP3    H252264   1.986   0.190   1.163  3.9581  1.2362  2.4688
 9357TIP3   OH252265   1.068   6.463   3.064  0.1113 -0.1065 -0.3140
 9357TIP3    H152266   1.112   6.459   3.148  0.9263  0.1167 -0.7235
 9357TIP3    H252267   1.018   6.381   3.059  1.2001 -0.7923 -0.2253
 9358TIP3   OH252268   6.522   4.455   3.385  0.0828 -0.2257  0.3034
 9358TIP3    H152269   6.440   4.497   3.360 -0.8231 -0.6012  2.4475
 9358TIP3    H252270   6.497   4.391   3.451  2.0391 -0.7878  0.5543
 9359TIP3   OH252271   7.290   3.762   1.498 -0.1418 -0.1163 -0.4197
 9359TIP3    H152272   7.315   3.742   1.408  0.3439 -0.7234 -0.1639
 9359TIP3    H252273   7.235   3.840   1.492 -1.1687 -0.8752 -1.3690
 9360TIP3   OH252274   6.697   3.999   0.943  0.4275  0.2483 -0.0083
 9360TIP3    H152275   6.628   4.016   0.879  1.6139 -1.2674 -1.7852
 9360TIP3    H252276   6.676   4.056   1.017 -1.5136  1.3794 -1.3585
 9361TIP3   OH252277   3.343   1.066   2.480 -0.2740 -0.2763  0.1612
 9361TIP3    H152278   3.249   1.052   2.489 -0.2425  0.1521  1.2926
 9361TIP3    H252279   3.378   1.056   2.568  0.9306 -1.6411 -0.4163
 9362TIP3   OH252280   2.568   5.789   2.629 -0.1562  0.2050  0.0373
 9362TIP3    H152281   2.585   5.723   2.562 -2.0799 -1.3175  0.9270
 9362TIP3    H252282   2.608   5.753   2.708  1.8872  1.8711 -0.1546
 9363TIP3   OH252283   2.446   1.168   0.832 -0.3986 -0.4229  0.6275
 9363TIP3    H152284   2.368   1.192   0.883 -1.6087 -0.4524 -1.1231
 9363TIP3    H252285   2.411   1.125   0.754  1.1817  2.1931 -1.6937
 9364TIP3   OH252286   7.449   4.501   1.002  0.6102 -0.6423  0.2475
 9364TIP3    H152287   7.534   4.538   1.027  0.6184 -0.8599  0.5564
 9364TIP3    H252288   7.469   4.436   0.935  0.4532  0.9334 -1.4100
 9365TIP3   OH252289   0.295   3.548   1.638 -1.0149  0.4742 -0.2590
 9365TIP3    H152290   0.294   3.642   1.653 -0.6662  0.3862  0.3668
 9365TIP3    H252291   0.388   3.524   1.642 -1.1865 -0.0706  0.7739
 9366TIP3   OH252292   3.413   5.655   2.159  0.0329  0.7735  0.2859
 9366TIP3    H152293   3.503   5.681   2.140  0.2845 -1.1615 -1.4287
 9366TIP3    H252294   3.421   5.586   2.224 -0.1456  0.1521 -0.3411
 9367TIP3   OH252295   5.088   4.235   1.348 -0.7068 -0.3740 -0.4032
 9367TIP3    H152296   4.996   4.227   1.374 -1.0376  0.6109 -1.1912
 9367TIP3    H252297   5.086   4.246   1.253  0.1881  0.1760 -0.3743
 9368TIP3   OH252298   3.963   5.389   1.029  0.2720  0.7456 -0.9256
 9368TIP3    H152299   3.998   5.466   1.073  3.9162  0.9280 -3.6227
 9368TIP3    H252300   4.041   5.336   1.010 -1.8967 -2.8203 -0.6997
 9369TIP3   OH252301   1.520   7.638   2.380 -1.0506 -0.5746 -0.3424
 9369TIP3    H152302   1.581   7.684   2.438 -1.8076 -0.7850  0.6560
 9369TIP3    H252303   1.512   7.551   2.418 -0.4564 -1.2060 -1.6113
 9370TIP3   OH252304   6.939   1.857   1.688 -0.6701 -0.2979  0.6757
 9370TIP3    H152305   7.001   1.786   1.675 -0.7826 -0.2996  0.1162
 9370TIP3    H252306   6.862   1.814   1.726 -0.7892 -0.5041  0.2128
 9371TIP3   OH252307   6.519   6.117   2.130 -0.0994 -0.0467 -0.0125
 9371TIP3    H152308   6.464   6.170   2.187  0.7905  0.2230  0.6152
 9371TIP3    H252309   6.470   6.111   2.048 -0.8120  0.6280  0.3520
 9372TIP3   OH252310   1.579   3.053   1.236 -0.1715 -0.6013 -0.2776
 9372TIP3    H152311   1.577   2.959   1.253 -1.1291 -0.2498  1.8195
 9372TIP3    H252312   1.535   3.093   1.311  1.1895  1.6165 -0.5523
 9373TIP3   OH252313   0.563   0.877   1.366 -0.2706 -0.1285 -0.2397
 9373TIP3    H152314   0.548   0.869   1.460 -2.2832  0.3134 -0.4623
 9373TIP3    H252315   0.642   0.826   1.349  0.1350 -0.2058  1.6818
 9374TIP3   OH252316   7.232   7.050   2.077  0.3491 -0.5316 -0.0664
 9374TIP3    H152317   7.232   7.036   1.982 -1.1275 -1.7453  0.0707
 9374TIP3    H252318   7.201   7.139   2.088 -0.6949 -0.7919 -0.7235
 9375TIP3   OH252319   3.468   6.198   0.400  0.5969 -0.0242 -0.5182
 9375TIP3    H152320   3.508   6.149   0.328 -1.6552 -1.7828 -0.6872
 9375TIP3    H252321   3.376   6.207   0.374 -0.4829 -1.3777  2.4058
 9376TIP3   OH252322   6.372   4.460   1.340  0.5783 -0.5406  0.2992
 9376TIP3    H152323   6.296   4.463   1.400  1.1652 -0.3103  1.0486
 9376TIP3    H252324   6.396   4.368   1.337 -2.6030 -1.5356 -3.7020
 9377TIP3   OH252325   3.489   7.627   0.876  0.8780  0.3720  0.3872
 9377TIP3    H152326   3.482   7.536   0.848 -1.0563  0.6437 -0.1149
 9377TIP3    H252327   3.580   7.635   0.906  0.7939 -2.0067  1.5105
 9378TIP3   OH252328   0.493   0.550   0.999 -1.0001  0.6695 -0.1549
 9378TIP3    H152329   0.487   0.586   1.087 -0.9549  1.0780 -0.3181
 9378TIP3    H252330   0.411   0.574   0.957 -0.8212  0.8921 -0.3791
 9379TIP3   OH252331   7.646   3.794   0.659 -0.2807  0.3530  0.0951
 9379TIP3    H152332   7.729   3.749   0.641 -0.8113 -0.6370  0.1048
 9379TIP3    H252333   7.629   3.778   0.752 -1.7046 -1.5564 -0.4347
 9380TIP3   OH252334   4.286   5.909   2.432 -0.1126 -0.3751  0.0811
 9380TIP3    H152335   4.353   5.977   2.432  0.9562 -1.3925  0.0532
 9380TIP3    H252336   4.203   5.956   2.444  0.6072  0.9022  0.1747
 9381TIP3   OH252337   3.754   5.050   1.783 -0.5386  0.2317  0.1164
 9381TIP3    H152338   3.711   4.970   1.753  1.3274 -1.7178  2.2464
 9381TIP3    H252339   3.689   5.094   1.837 -0.9617 -0.8795  0.5309
 9382TIP3   OH252340   2.739   2.286   2.526  0.1329  0.0535  0.0426
 9382TIP3    H152341   2.812   2.312   2.469  1.3626 -1.4204  0.8609
 9382TIP3    H252342   2.745   2.346   2.601 -0.1285  0.5897 -0.3630
 9383TIP3   OH252343   2.336   4.828   2.222  0.0558  0.2760 -0.0588
 9383TIP3    H152344   2.412   4.880   2.198 -0.1858  0.6223 -0.0754
 9383TIP3    H252345   2.325   4.767   2.149 -0.1783  0.7769 -0.4484
 9384TIP3   OH252346   4.934   3.316   2.358  0.1571 -0.4180  0.1459
 9384TIP3    H152347   4.937   3.248   2.425  1.9196 -0.0649  0.4938
 9384TIP3    H252348   4.971   3.275   2.280  2.3436  0.3789  0.6752
 9385TIP3   OH252349   1.873   2.647   2.306  0.0144 -0.2658 -0.2055
 9385TIP3    H152350   1.876   2.592   2.227  0.2433  0.9720 -1.1013
 9385TIP3    H252351   1.827   2.726   2.277  1.1622  0.7118  0.5691
 9386TIP3   OH252352   1.255   3.532   0.885  0.0774  0.1974  0.3953
 9386TIP3    H152353   1.299   3.616   0.896 -1.5418  1.0886  0.4071
 9386TIP3    H252354   1.237   3.502   0.974  1.9830 -0.9528  0.4505
 9387TIP3   OH252355   3.258   1.709   2.432 -0.6561  0.0042  0.1672
 9387TIP3    H152356   3.247   1.804   2.425  0.0943  0.1249  0.5761
 9387TIP3    H252357   3.328   1.697   2.496 -0.7446 -0.8294  0.1216
 9388TIP3   OH252358   1.821   3.491   1.267  0.0080 -0.0223 -0.2225
 9388TIP3    H152359   1.814   3.473   1.173 -0.0445 -1.6292  0.0626
 9388TIP3    H252360   1.732   3.513   1.294 -0.2565 -0.9672 -0.2932
 9389TIP3   OH252361   7.094   6.014   1.943 -0.0063 -0.1090 -0.3677
 9389TIP3    H152362   7.179   5.982   1.972 -0.6166 -2.2248 -0.7558
 9389TIP3    H252363   7.079   6.093   1.995  1.7342 -0.2452  0.4138
 9390TIP3   OH252364   1.548   1.314   1.115 -0.2464 -0.3671  0.2949
 9390TIP3    H152365   1.581   1.256   1.184  0.9435  0.5258  0.4882
 9390TIP3    H252366   1.597   1.288   1.037  0.5358  0.5923  0.4583
 9391TIP3   OH252367   6.857   1.212   0.950 -0.7188  0.0051  0.0692
 9391TIP3    H152368   6.932   1.182   0.899 -0.1930 -1.8230  1.7759
 9391TIP3    H252369   6.885   1.296   0.986  0.8782 -0.9973  1.3091
 9392TIP3   OH252370   5.776   7.488   1.153  0.4215 -0.1658 -0.2742
 9392TIP3    H152371   5.682   7.474   1.144  0.5625 -1.8150  0.5676
 9392TIP3    H252372   5.793   7.568   1.103 -1.4244  0.1907 -0.3868
 9393TIP3   OH252373   1.182   4.571   1.660 -0.6987  0.4146  0.8658
 9393TIP3    H152374   1.172   4.486   1.703 -1.2027 -0.7174 -1.3549
 9393TIP3    H252375   1.238   4.621   1.719  0.0734 -1.6536  1.9932
 9394TIP3   OH252376   1.564   5.051   2.440 -0.2554 -0.4092 -0.5737
 9394TIP3    H152377   1.631   4.989   2.469  0.5727  0.0500 -1.4550
 9394TIP3    H252378   1.559   5.038   2.345 -2.2900 -1.2739 -0.4007
 9395TIP3   OH252379   7.148   1.383   3.354  0.8693 -0.2569  0.4069
 9395TIP3    H152380   7.243   1.393   3.351  0.8604 -0.2566  0.1464
 9395TIP3    H252381   7.134   1.311   3.416  0.9850  0.5231  1.3672
 9396TIP3   OH252382   4.607   5.842   2.317 -1.1596  0.3034 -0.7502
 9396TIP3    H152383   4.528   5.859   2.266 -0.5885 -0.3389 -1.8747
 9396TIP3    H252384   4.666   5.796   2.257  1.0279  2.7995 -0.7305
 9397TIP3   OH252385   1.239   4.251   2.713  0.5871 -0.2104 -0.0359
 9397TIP3    H152386   1.257   4.303   2.791 -0.4137  1.8652 -1.1055
 9397TIP3    H252387   1.211   4.165   2.747  1.2158  0.2740  1.8220
 9398TIP3   OH252388   4.618   3.029   2.519 -0.2509  0.0648 -0.0049
 9398TIP3    H152389   4.680   2.961   2.495 -0.3453  0.1117 -0.3783
 9398TIP3    H252390   4.534   2.984   2.525  0.1894 -0.5714  3.1150
 9399TIP3   OH252391   7.370   1.358   2.905 -0.0483  0.2716  0.1960
 9399TIP3    H152392   7.461   1.350   2.876  0.2997 -0.0595  1.3200
 9399TIP3    H252393   7.374   1.417   2.980 -0.8605  0.7830 -0.1611
 9400TIP3   OH252394   6.464   4.834   2.321 -0.1911  0.0294  0.4423
 9400TIP3    H152395   6.521   4.812   2.395 -0.6125  1.2916  1.1869
 9400TIP3    H252396   6.432   4.750   2.290 -1.1474 -0.5049  2.6451
 9401TIP3   OH252397   1.706   6.680   0.614  0.8067  0.3822 -0.1907
 9401TIP3    H152398   1.611   6.669   0.616  0.7589  0.4883 -1.0869
 9401TIP3    H252399   1.723   6.753   0.673  0.0722  1.8212 -1.6691
 9402TIP3   OH252400   7.181   4.267   2.618  0.4254  0.3732 -0.0909
 9402TIP3    H152401   7.175   4.210   2.541 -0.7194 -1.1834  1.0653
 9402TIP3    H252402   7.274   4.268   2.640  0.6552  0.1598 -1.0111
 9403TIP3   OH252403   1.792   2.977   1.953 -0.1381 -0.1110 -0.0406
 9403TIP3    H152404   1.727   3.048   1.957  1.8429  1.7934  0.3287
 9403TIP3    H252405   1.743   2.898   1.975 -2.5552  1.0463 -0.9254
 9404TIP3   OH252406   7.313   4.486   2.228 -0.5186  0.0833 -0.2876
 9404TIP3    H152407   7.315   4.522   2.140  2.3950  0.0563 -0.3312
 9404TIP3    H252408   7.229   4.516   2.264 -0.6392  2.3052 -2.1587
 9405TIP3   OH252409   3.729   3.818   1.568  0.0058  1.0570  0.0571
 9405TIP3    H152410   3.813   3.806   1.523  0.8627  0.2854  1.7362
 9405TIP3    H252411   3.724   3.912   1.585  0.8342  1.0372  0.4609
 9406TIP3   OH252412   0.490   7.517   2.088 -0.3802  0.0337  0.1588
 9406TIP3    H152413   0.492   7.475   2.174 -3.5493  1.7459  1.2175
 9406TIP3    H252414   0.455   7.605   2.105  1.9652  1.6358 -2.5127
 9407TIP3   OH252415   5.570   1.752   0.536 -0.4726  0.0764 -0.2029
 9407TIP3    H152416   5.559   1.844   0.510 -0.6253  0.4326  1.0436
 9407TIP3    H252417   5.484   1.713   0.518 -0.5072  0.2512 -0.4356
 9408TIP3   OH252418   4.669   0.287   1.876  0.1305  0.5331 -0.0168
 9408TIP3    H152419   4.591   0.338   1.853 -0.4806  0.8761  2.5648
 9408TIP3    H252420   4.634   0.204   1.908  0.8720  0.3575  0.3427
 9409TIP3   OH252421   6.856   2.388   1.638  0.4523  0.3853  0.2344
 9409TIP3    H152422   6.869   2.480   1.660 -0.0966  0.5482 -0.0836
 9409TIP3    H252423   6.814   2.390   1.552  2.4569 -0.2277 -0.8188
 9410TIP3   OH252424   5.764   7.199   2.093  0.2884  0.4989  0.2789
 9410TIP3    H152425   5.680   7.246   2.090 -0.3893 -0.6700  0.3799
 9410TIP3    H252426   5.791   7.191   2.002 -1.4466 -2.0701 -0.1165
 9411TIP3   OH252427   0.548   3.119   1.556 -0.3433  0.4957 -0.5230
 9411TIP3    H152428   0.560   3.026   1.575 -0.9285  0.3699 -0.7656
 9411TIP3    H252429   0.570   3.163   1.638 -0.8630  0.0917 -0.1648
 9412TIP3   OH252430   3.021   1.761   1.376 -0.4739  0.3103  0.3506
 9412TIP3    H152431   2.949   1.787   1.434  0.0245 -0.7327  1.4835
 9412TIP3    H252432   3.091   1.732   1.435 -0.8625 -3.3337 -0.7115
 9413TIP3   OH252433   3.222   7.445   2.406 -0.1125  0.7693 -0.4088
 9413TIP3    H152434   3.210   7.523   2.461 -1.3691  1.1456 -1.1672
 9413TIP3    H252435   3.263   7.478   2.326  0.1984  0.5036 -0.3574
 9414TIP3   OH252436   3.536   4.012   2.876 -0.3454 -0.5596  0.3389
 9414TIP3    H152437   3.537   4.023   2.971  1.0372 -1.6116  0.4809
 9414TIP3    H252438   3.628   3.998   2.852 -0.6552 -0.2600 -1.1705
 9415TIP3   OH252439   2.838   4.232   2.776 -0.5306  0.2082 -0.0110
 9415TIP3    H152440   2.890   4.310   2.756 -1.8331  1.1200 -0.0344
 9415TIP3    H252441   2.901   4.166   2.802  0.4797  2.1961  3.1607
 9416TIP3   OH252442   0.871   5.978   2.623  0.2654  0.0860 -0.0186
 9416TIP3    H152443   0.820   5.898   2.608  1.3229 -0.2452 -2.3957
 9416TIP3    H252444   0.806   6.043   2.650 -1.6456 -0.1785 -3.3978
 9417TIP3   OH252445   5.749   0.926   0.618 -0.1418  0.1703  0.2925
 9417TIP3    H152446   5.821   0.865   0.632  0.6962  0.1284 -3.1362
 9417TIP3    H252447   5.760   0.992   0.685  2.6469 -0.2735  0.4040
 9418TIP3   OH252448   2.208   6.386   2.460  0.0153 -0.0391 -0.7410
 9418TIP3    H152449   2.151   6.334   2.403 -0.1061 -1.5203  0.6778
 9418TIP3    H252450   2.148   6.441   2.510  0.0670  0.6183 -1.3777
 9419TIP3   OH252451   1.141   3.984   0.858 -0.4188  0.1389 -0.1110
 9419TIP3    H152452   1.081   3.925   0.904  0.7472 -0.8318  0.2256
 9419TIP3    H252453   1.130   3.962   0.766  0.0376 -0.6407  0.0171
 9420TIP3   OH252454   5.345   2.782   3.196  0.7507  0.2161 -0.1364
 9420TIP3    H152455   5.438   2.802   3.210  0.9293  0.0498 -1.0201
 9420TIP3    H252456   5.314   2.852   3.138  0.6527 -0.4382 -0.8867
 9421TIP3   OH252457   6.686   2.515   0.707  0.0716  0.1771  0.4243
 9421TIP3    H152458   6.619   2.447   0.709 -0.9079  0.8160 -3.1179
 9421TIP3    H252459   6.765   2.472   0.675  0.7385 -0.0515  2.2243
 9422TIP3   OH252460   0.773   3.992   3.285  0.3461 -0.4576  0.6414
 9422TIP3    H152461   0.745   4.083   3.286 -1.3491 -0.9365 -0.5631
 9422TIP3    H252462   0.798   3.974   3.376 -2.1469  0.3883  1.5786
 9423TIP3   OH252463   1.869   0.601   0.981  0.1935  0.4489  0.0100
 9423TIP3    H152464   1.849   0.512   0.952 -0.4260  0.0674  1.5431
 9423TIP3    H252465   1.940   0.590   1.045  0.6772  1.1469 -0.3972
 9424TIP3   OH252466   5.639   6.843   2.908 -0.2619  0.0951 -0.4763
 9424TIP3    H152467   5.647   6.770   2.970  2.4976  1.6427  1.1869
 9424TIP3    H252468   5.712   6.832   2.848 -0.0267  1.2381 -0.4337
 9425TIP3   OH252469   3.728   4.788   2.205  0.3933  0.2344  0.0923
 9425TIP3    H152470   3.785   4.744   2.142 -0.7494 -1.8761  0.4637
 9425TIP3    H252471   3.658   4.825   2.152 -0.2809 -1.0803  0.0380
 9426TIP3   OH252472   0.779   1.441   2.549 -0.3967  0.1012  0.5141
 9426TIP3    H152473   0.803   1.499   2.477 -3.0329 -0.8814 -1.2987
 9426TIP3    H252474   0.718   1.493   2.602  0.5577  0.3833  1.3748
 9427TIP3   OH252475   0.802   6.847   2.756 -0.5100  0.3600  0.3311
 9427TIP3    H152476   0.723   6.821   2.803 -0.3923  0.7019  0.7170
 9427TIP3    H252477   0.874   6.808   2.805 -0.4109  0.4304  0.2425
 9428TIP3   OH252478   6.840   2.200   0.821 -0.6848 -0.1855  0.3364
 9428TIP3    H152479   6.755   2.159   0.832 -0.7982 -0.0394  0.0257
 9428TIP3    H252480   6.850   2.257   0.897  0.4238 -2.3883  1.9893
 9429TIP3   OH252481   2.567   5.243   1.129 -0.5932  0.4872  0.2812
 9429TIP3    H152482   2.557   5.295   1.050  0.4412 -0.6830 -0.6648
 9429TIP3    H252483   2.489   5.187   1.131 -0.6459  0.5548  0.1094
 9430TIP3   OH252484   4.750   2.649   1.115  0.5546 -0.1678 -0.3965
 9430TIP3    H152485   4.798   2.584   1.064  0.2782 -0.7388  0.0681
 9430TIP3    H252486   4.664   2.653   1.073  0.6469  0.0755 -0.5681
 9431TIP3   OH252487   4.912   5.216   0.784  0.2592 -0.3623 -0.3131
 9431TIP3    H152488   4.843   5.153   0.806  1.0765 -1.3363 -0.5137
 9431TIP3    H252489   4.963   5.225   0.864 -1.3820  2.1167  0.5921
 9432TIP3   OH252490   0.984   7.558   2.077  0.0460 -0.2038 -0.1458
 9432TIP3    H152491   0.921   7.562   2.149  0.2758 -0.5625  0.0792
 9432TIP3    H252492   1.027   7.644   2.078  0.0667 -0.2153  0.1669
 9433TIP3   OH252493   1.328   5.393   1.326  0.7138  0.2969  0.1240
 9433TIP3    H152494   1.304   5.337   1.253  0.5722  0.6723 -0.1176
 9433TIP3    H252495   1.293   5.348   1.403  0.5974  0.0569 -0.0674
 9434TIP3   OH252496   1.677   0.557   2.688  0.0467 -0.2690  0.1367
 9434TIP3    H152497   1.657   0.465   2.670 -1.3182  0.0098  0.0962
 9434TIP3    H252498   1.601   0.588   2.738  0.4457  0.8575  0.0617
 9435TIP3   OH252499   4.521   4.131   2.017 -0.1349  0.1729  0.1016
 9435TIP3    H152500   4.452   4.196   2.008 -0.7040 -0.4739 -0.3924
 9435TIP3    H252501   4.588   4.173   2.071 -1.3394  0.4856  1.4247
 9436TIP3   OH252502   7.515   3.735   2.192 -0.1720  0.1134  0.2034
 9436TIP3    H152503   7.585   3.793   2.163  0.6859 -1.0722 -0.1736
 9436TIP3    H252504   7.514   3.664   2.128 -1.4228 -0.1286  0.4625
 9437TIP3   OH252505   2.123   3.795   1.843  0.1924  0.2073  0.5423
 9437TIP3    H152506   2.103   3.731   1.911 -2.7469 -2.8213 -2.7876
 9437TIP3    H252507   2.038   3.830   1.816  1.2998  1.7892 -1.1689
 9438TIP3   OH252508   1.397   0.779   2.291  0.4395 -0.4649 -0.1790
 9438TIP3    H152509   1.451   0.854   2.317  0.4883 -0.6728  0.3389
 9438TIP3    H252510   1.328   0.775   2.358 -0.1635 -0.2562 -0.7852
 9439TIP3   OH252511   1.932   7.672   1.001  0.2980 -0.4173 -0.1214
 9439TIP3    H152512   1.956   7.697   0.912  0.3186  0.5232  0.1409
 9439TIP3    H252513   1.842   7.640   0.993  0.4116 -0.6472 -0.5283
 9440TIP3   OH252514   4.799   1.361   2.852  0.4252 -0.0383 -0.0406
 9440TIP3    H152515   4.738   1.435   2.861 -0.1264  0.0001 -3.0116
 9440TIP3    H252516   4.794   1.315   2.936 -2.4109  0.9448  0.4347
 9441TIP3   OH252517   5.014   5.165   1.559 -0.0238  0.8416  0.6992
 9441TIP3    H152518   5.043   5.088   1.510 -0.9314  1.7918 -1.4661
 9441TIP3    H252519   5.095   5.205   1.592  0.6290  0.1522 -0.0268
 9442TIP3   OH252520   7.622   0.518   0.544 -0.2081  0.4425  0.2484
 9442TIP3    H152521   7.614   0.613   0.556 -1.1712  0.4010  0.0474
 9442TIP3    H252522   7.554   0.481   0.601 -0.1547 -0.0947 -0.0325
 9443TIP3   OH252523   6.747   1.063   1.933 -0.3558 -0.0089 -0.2727
 9443TIP3    H152524   6.744   0.971   1.910 -0.4487  0.1571 -0.9314
 9443TIP3    H252525   6.794   1.105   1.861  2.6702  0.0003  1.5152
 9444TIP3   OH252526   5.326   1.264   2.152 -0.0031  0.2674 -0.0373
 9444TIP3    H152527   5.291   1.220   2.230  0.6004  0.9185  0.6271
 9444TIP3    H252528   5.325   1.357   2.176 -0.2501  0.5197 -0.9984
 9445TIP3   OH252529   6.442   6.655   1.564  0.6137  0.8994  0.3550
 9445TIP3    H152530   6.418   6.743   1.535 -2.9398  0.3407  1.0995
 9445TIP3    H252531   6.467   6.610   1.483  1.9828  2.4051 -0.1046
 9446TIP3   OH252532   3.370   4.880   1.477 -0.5530 -0.5024 -0.2663
 9446TIP3    H152533   3.459   4.912   1.464 -0.2006 -1.5858 -0.6546
 9446TIP3    H252534   3.343   4.848   1.390 -1.1919 -0.4929 -0.0763
 9447TIP3   OH252535   5.956   6.900   1.065  0.5848 -0.2515 -0.1835
 9447TIP3    H152536   5.966   6.995   1.073 -1.5498  0.0799 -0.8281
 9447TIP3    H252537   5.964   6.883   0.971  1.1102 -0.7558 -0.0555
 9448TIP3   OH252538   6.134   2.243   1.608  0.5665  0.3877  0.0720
 9448TIP3    H152539   6.149   2.214   1.517  1.6907  1.5495 -0.1371
 9448TIP3    H252540   6.220   2.239   1.649 -0.3412 -3.1836  2.1116
 9449TIP3   OH252541   0.461   1.396   1.413  0.2441  0.1570 -0.1977
 9449TIP3    H152542   0.493   1.316   1.371 -1.8587 -1.0858  0.4216
 9449TIP3    H252543   0.489   1.388   1.504  2.7092  1.6944 -0.7282
 9450TIP3   OH252544   1.442   2.518   0.394  0.1959  0.1956 -0.3826
 9450TIP3    H152545   1.390   2.545   0.319  0.1393 -2.3658 -1.3794
 9450TIP3    H252546   1.389   2.543   0.470 -2.3146 -1.7701 -1.3422
 9451TIP3   OH252547   2.538   3.359   1.330 -0.5399  0.2227 -0.2655
 9451TIP3    H152548   2.499   3.351   1.417 -1.2040  0.7020 -0.5077
 9451TIP3    H252549   2.471   3.326   1.271 -0.4205  0.6776 -0.6605
 9452TIP3   OH252550   5.530   1.414   2.477  0.3128 -0.9393 -0.5596
 9452TIP3    H152551   5.559   1.340   2.424  0.0703 -2.1967  0.9762
 9452TIP3    H252552   5.449   1.384   2.517  0.4338 -0.0072  0.4166
 9453TIP3   OH252553   0.802   7.617   2.250  0.3359  0.0735 -0.6584
 9453TIP3    H152554   0.761   7.690   2.204  0.6892  0.1256 -0.8990
 9453TIP3    H252555   0.805   7.644   2.342  3.0206  1.6133 -1.1048
 9454TIP3   OH252556   6.702   0.513   0.722 -0.2643  0.1327  0.1183
 9454TIP3    H152557   6.725   0.596   0.681  1.8338 -0.6602 -0.4503
 9454TIP3    H252558   6.783   0.484   0.765 -1.0803 -1.3632  0.7153
 9455TIP3   OH252559   5.931   1.018   2.498 -0.5640 -0.1807  0.3934
 9455TIP3    H152560   5.854   1.017   2.555 -1.2047  0.3524 -0.4408
 9455TIP3    H252561   5.897   1.044   2.413  0.7527  1.5087  0.3311
 9456TIP3   OH252562   3.571   0.648   2.622  0.0454  0.0986  0.7349
 9456TIP3    H152563   3.659   0.614   2.638  0.2425  0.0324 -0.4531
 9456TIP3    H252564   3.515   0.570   2.626  0.0676  0.1016  1.2083
 9457TIP3   OH252565   4.435   1.230   1.222  0.0893  0.0130 -0.9710
 9457TIP3    H152566   4.339   1.231   1.215  0.0789 -1.9107 -1.9311
 9457TIP3    H252567   4.464   1.188   1.140  1.6525 -0.6675 -0.1052
 9458TIP3   OH252568   3.695   3.035   1.954  0.2231  0.2210  0.1542
 9458TIP3    H152569   3.671   3.121   1.988  0.7340 -0.0443  1.2307
 9458TIP3    H252570   3.788   3.042   1.933 -0.0149  0.2858 -0.9124
 9459TIP3   OH252571   5.093   6.898   1.599  0.7848 -0.1108  0.1188
 9459TIP3    H152572   5.069   6.930   1.513 -0.6097 -0.6997  0.2634
 9459TIP3    H252573   5.112   6.806   1.586  0.5675 -0.2025  0.4330
 9460TIP3   OH252574   3.549   3.589   0.513 -0.1654  0.1109 -0.2395
 9460TIP3    H152575   3.609   3.570   0.441  0.3317  1.7247 -0.2917
 9460TIP3    H252576   3.549   3.684   0.520 -2.3793  0.1460  0.0618
 9461TIP3   OH252577   7.114   2.387   2.725 -0.0216  0.1062  0.3380
 9461TIP3    H152578   7.150   2.345   2.804  2.1329  1.9264  0.4421
 9461TIP3    H252579   7.020   2.390   2.741  0.2475 -0.4116  2.4300
 9462TIP3   OH252580   5.706   4.653   2.205  0.2778  0.2805  0.9187
 9462TIP3    H152581   5.786   4.646   2.154  0.1032 -1.1992  0.8124
 9462TIP3    H252582   5.644   4.697   2.147  0.5072 -0.0820  0.4004
 9463TIP3   OH252583   6.372   1.934   1.796 -0.3300 -0.5150 -0.0815
 9463TIP3    H152584   6.416   1.861   1.840 -1.5708 -1.3667 -0.2013
 9463TIP3    H252585   6.372   1.909   1.703 -1.8512 -0.9904  0.0189
 9464TIP3   OH252586   2.430   6.093   0.839 -0.8170  0.2527  0.0229
 9464TIP3    H152587   2.445   6.044   0.920 -0.1012 -0.7173 -0.6699
 9464TIP3    H252588   2.363   6.157   0.861  1.0446  1.6717  2.0659
 9465TIP3   OH252589   2.664   5.241   3.182 -0.0755  0.0752 -0.6221
 9465TIP3    H152590   2.646   5.243   3.276  0.3984  0.4800 -0.5319
 9465TIP3    H252591   2.760   5.240   3.177 -0.0515  1.8029 -1.1088
 9466TIP3   OH252592   5.835   4.316   1.912  0.1705 -0.4277 -0.1483
 9466TIP3    H152593   5.802   4.314   1.822  0.5080 -0.1749 -0.2798
 9466TIP3    H252594   5.882   4.399   1.919  2.3846 -1.5526 -0.5639
 9467TIP3   OH252595   5.832   5.960   0.917 -0.0509  0.0357 -1.0450
 9467TIP3    H152596   5.763   5.935   0.978  1.4383 -1.6881  0.0324
 9467TIP3    H252597   5.798   6.038   0.873 -1.7616  0.5366  0.9921
 9468TIP3   OH252598   0.950   1.961   2.884 -0.0352 -0.4865 -0.1283
 9468TIP3    H152599   0.917   1.971   2.974  0.0601 -1.9644  0.0981
 9468TIP3    H252600   1.013   1.890   2.890  3.2282  2.1175 -0.5695
 9469TIP3   OH252601   6.825   7.365   2.438 -0.0321  0.2591  0.2635
 9469TIP3    H152602   6.749   7.360   2.496 -0.7002  1.1944 -0.4894
 9469TIP3    H252603   6.837   7.459   2.424  0.8478  0.0853 -0.1719
 9470TIP3   OH252604   0.966   2.696   1.440 -0.4139 -0.0788 -0.2633
 9470TIP3    H152605   1.002   2.618   1.397  0.7078  0.9923 -1.3594
 9470TIP3    H252606   1.026   2.713   1.512  0.8978  1.2151 -1.5816
 9471TIP3   OH252607   1.458   4.032   2.944  0.5301 -0.6018 -0.2579
 9471TIP3    H152608   1.471   4.095   3.016  0.6056  0.5048 -1.2094
 9471TIP3    H252609   1.528   3.968   2.956  2.3106  1.1166 -0.9446
 9472TIP3   OH252610   5.114   2.649   3.341 -0.2993  0.1930  0.1583
 9472TIP3    H152611   5.113   2.569   3.287  1.5610 -0.2265  0.6899
 9472TIP3    H252612   5.196   2.692   3.319 -0.6092  1.2319  0.9603
 9473TIP3   OH252613   1.026   2.146   1.024 -0.9112  0.0002 -0.0384
 9473TIP3    H152614   1.051   2.238   1.014  0.0856 -0.0936  1.2862
 9473TIP3    H252615   1.090   2.110   1.085 -0.8385 -1.7865 -1.0979
 9474TIP3   OH252616   2.140   6.752   2.527  0.3188 -0.0945  0.0214
 9474TIP3    H152617   2.201   6.713   2.464 -1.0597 -0.0720 -1.4142
 9474TIP3    H252618   2.097   6.677   2.568  0.5468 -0.0998  0.2551
 9475TIP3   OH252619   3.309   1.893   0.904 -0.5448  0.5421 -0.3459
 9475TIP3    H152620   3.214   1.902   0.890 -0.9083 -1.0553  0.7346
 9475TIP3    H252621   3.327   1.951   0.978 -0.8370  0.3215 -0.0936
 9476TIP3   OH252622   3.108   4.293   1.958  0.1984 -0.1389  0.1447
 9476TIP3    H152623   3.039   4.229   1.944 -1.0388  0.9226  1.0861
 9476TIP3    H252624   3.187   4.241   1.976 -0.5688 -1.3682  0.0539
 9477TIP3   OH252625   0.761   1.362   1.299 -0.3650 -0.3990 -0.0372
 9477TIP3    H152626   0.710   1.331   1.224 -2.1968 -2.6368  1.9586
 9477TIP3    H252627   0.851   1.340   1.277 -0.5299  0.9476 -2.4280
 9478TIP3   OH252628   4.075   0.239   1.131  0.2017 -0.0414  0.4590
 9478TIP3    H152629   4.148   0.239   1.069  0.8610  1.5344  1.1921
 9478TIP3    H252630   4.017   0.309   1.100  0.3007  0.4396  1.3310
 9479TIP3   OH252631   0.363   2.414   0.327 -0.6529  0.1399  0.6094
 9479TIP3    H152632   0.401   2.389   0.411 -1.1054 -0.0876  0.7535
 9479TIP3    H252633   0.434   2.455   0.279 -0.1951 -0.3927  0.8219
 9480TIP3   OH252634   3.112   6.546   2.099  0.2121 -0.8002 -0.3787
 9480TIP3    H152635   3.136   6.637   2.082  1.5342 -0.8446  1.0386
 9480TIP3    H252636   3.177   6.494   2.051  0.4006 -0.9636  0.0414
 9481TIP3   OH252637   4.151   1.150   2.890 -0.2298  0.8172  0.5425
 9481TIP3    H152638   4.098   1.123   2.964  0.4434  1.0313  1.1157
 9481TIP3    H252639   4.121   1.095   2.817 -1.9784  1.6623  0.5628
 9482TIP3   OH252640   5.409   0.669   3.038 -0.4031 -0.1037  0.5043
 9482TIP3    H152641   5.360   0.590   3.063 -0.0707 -0.5373 -0.1609
 9482TIP3    H252642   5.428   0.656   2.945 -0.4619  0.8323  0.3534
 9483TIP3   OH252643   5.430   0.229   1.731  0.1448 -0.0638  0.1333
 9483TIP3    H152644   5.499   0.281   1.691 -0.4440  0.7829  0.1827
 9483TIP3    H252645   5.367   0.294   1.763 -0.4938 -0.8037  0.4028
 9484TIP3   OH252646   7.434   3.369   2.257 -0.2298 -0.3539  0.1361
 9484TIP3    H152647   7.497   3.357   2.186 -0.3014  1.0815 -0.1964
 9484TIP3    H252648   7.348   3.367   2.214 -0.2448  1.2111  0.0583
 9485TIP3   OH252649   0.173   5.978   1.759 -0.4036 -1.2237 -0.2471
 9485TIP3    H152650   0.137   5.896   1.793  0.6830 -1.3270  0.7298
 9485TIP3    H252651   0.099   6.021   1.717 -0.8865 -2.9417 -1.2441
 9486TIP3   OH252652   4.043   5.111   0.759 -0.0257  0.2191  0.0992
 9486TIP3    H152653   3.972   5.162   0.721 -1.1589 -0.9170  0.6327
 9486TIP3    H252654   4.089   5.173   0.817  0.7891  1.5425 -1.8439
 9487TIP3   OH252655   0.326   6.649   0.420  0.2901  0.0556  0.1162
 9487TIP3    H152656   0.345   6.667   0.328 -1.0358  0.3702 -0.1141
 9487TIP3    H252657   0.373   6.717   0.468 -0.0997  0.7120 -0.4182
 9488TIP3   OH252658   3.238   0.806   0.858 -0.1215 -0.3599  0.3614
 9488TIP3    H152659   3.145   0.784   0.859 -0.5547  1.2922  1.6241
 9488TIP3    H252660   3.268   0.782   0.770 -2.4389  1.7132 -1.1331
 9489TIP3   OH252661   0.343   5.340   2.720 -1.1162 -0.6904 -0.0823
 9489TIP3    H152662   0.393   5.303   2.793  1.4843  0.8667 -0.9316
 9489TIP3    H252663   0.275   5.392   2.762 -0.9677 -1.4784  1.1848
 9490TIP3   OH252664   1.385   2.695   2.194 -0.0205 -0.4859  0.1562
 9490TIP3    H152665   1.369   2.787   2.171 -1.2772 -1.0957 -1.5613
 9490TIP3    H252666   1.479   2.683   2.180 -0.4106 -0.3578 -3.2765
 9491TIP3   OH252667   4.790   2.365   1.345  0.5206 -0.0598  0.0255
 9491TIP3    H152668   4.881   2.348   1.321  0.2230 -1.1501 -0.4224
 9491TIP3    H252669   4.739   2.309   1.286 -0.4020  0.0206  0.7204
 9492TIP3   OH252670   2.377   4.956   0.570  0.0918 -0.0962 -0.1265
 9492TIP3    H152671   2.326   4.978   0.492  0.2993  1.4482  0.1436
 9492TIP3    H252672   2.389   4.861   0.565 -1.5002 -0.2880 -0.9857
 9493TIP3   OH252673   3.594   3.093   1.711 -0.3062  0.3855  0.3675
 9493TIP3    H152674   3.623   3.058   1.795 -1.2573  1.8956  1.3664
 9493TIP3    H252675   3.664   3.153   1.685  0.3834 -0.6886 -0.3771
 9494TIP3   OH252676   6.013   7.183   2.192 -0.4554  0.5949 -0.1315
 9494TIP3    H152677   5.928   7.177   2.149 -0.0409  0.0229 -0.8919
 9494TIP3    H252678   6.037   7.275   2.186 -0.9799  0.7450  0.0190
 9495TIP3   OH252679   6.738   4.436   1.987  0.9278  0.4077 -0.4963
 9495TIP3    H152680   6.723   4.525   1.955  1.8452  0.8310  0.2066
 9495TIP3    H252681   6.668   4.421   2.051  0.4977  0.4466 -0.9560
 9496TIP3   OH252682   2.470   1.842   1.042  0.1511  0.4634  0.2777
 9496TIP3    H152683   2.537   1.803   0.987 -0.9609  0.5892 -1.2408
 9496TIP3    H252684   2.515   1.913   1.089  1.4707 -0.6319  0.7189
 9497TIP3   OH252685   7.266   2.084   2.948  0.5114  0.1366 -0.6316
 9497TIP3    H152686   7.227   2.003   2.980  2.2458 -0.6555 -0.4337
 9497TIP3    H252687   7.198   2.150   2.962 -0.2798 -0.9343  0.8830
 9498TIP3   OH252688   6.643   3.187   1.200  0.4115  0.5370  0.5389
 9498TIP3    H152689   6.559   3.230   1.214  0.4056  0.8835 -0.4598
 9498TIP3    H252690   6.707   3.246   1.240  0.0290 -0.8807  3.4762
 9499TIP3   OH252691   6.518   3.038   2.970 -0.1289 -0.1191 -0.5934
 9499TIP3    H152692   6.530   2.944   2.983  0.8306  0.0346 -0.3159
 9499TIP3    H252693   6.469   3.045   2.888 -1.1734 -0.8906 -0.0685
 9500TIP3   OH252694   3.659   6.371   2.470  0.6218 -0.5949 -0.0065
 9500TIP3    H152695   3.652   6.417   2.554  0.1377 -1.1501  0.2621
 9500TIP3    H252696   3.603   6.422   2.411  0.0693 -0.8338  0.2975
 9501TIP3   OH252697   0.667   4.935   1.565 -0.1574  0.1553 -0.1595
 9501TIP3    H152698   0.625   4.918   1.649 -0.2795  0.3923 -0.1687
 9501TIP3    H252699   0.639   4.863   1.509  0.4513 -0.3519  0.1834
 9502TIP3   OH252700   3.222   4.948   1.697 -0.4152 -0.4468 -0.4276
 9502TIP3    H152701   3.220   4.870   1.752  0.3014 -0.9582 -1.1020
 9502TIP3    H252702   3.271   4.921   1.619 -0.0701  0.6980 -0.6275
 9503TIP3   OH252703   6.622   1.090   2.467 -0.3614  0.4760  0.3293
 9503TIP3    H152704   6.552   1.064   2.527  0.0929 -0.1445  0.6148
 9503TIP3    H252705   6.681   1.014   2.466 -0.1148  0.6645 -0.5379
 9504TIP3   OH252706   3.760   5.229   2.140 -0.0272  0.0814 -0.1321
 9504TIP3    H152707   3.824   5.166   2.105  1.1314  1.1469 -0.0013
 9504TIP3    H252708   3.705   5.177   2.198  0.9143 -0.8256 -0.0146
 9505TIP3   OH252709   3.384   5.293   0.917 -0.1981 -0.3102 -0.5629
 9505TIP3    H152710   3.425   5.295   0.831  0.7836  0.2893 -0.1116
 9505TIP3    H252711   3.449   5.334   0.975  0.2228 -2.7656  0.8966
 9506TIP3   OH252712   4.739   3.032   1.538  0.1676  0.6430  0.2295
 9506TIP3    H152713   4.671   3.099   1.533 -0.4640 -0.0998 -1.7054
 9506TIP3    H252714   4.692   2.949   1.535  1.1068  0.1144 -0.1908
 9507TIP3   OH252715   6.697   4.665   1.854 -0.2338 -0.1756 -0.2994
 9507TIP3    H152716   6.724   4.715   1.777  2.1299  0.0483  0.5724
 9507TIP3    H252717   6.684   4.732   1.922  1.3656 -0.5725  0.4447
 9508TIP3   OH252718   6.001   6.348   2.161 -0.3877 -0.2761 -0.3274
 9508TIP3    H152719   5.957   6.264   2.176  1.9284 -1.4855  0.1423
 9508TIP3    H252720   5.995   6.394   2.245 -2.8673  0.7111 -0.9647
 9509TIP3   OH252721   6.438   2.941   2.688 -0.2310  0.5305  0.1486
 9509TIP3    H152722   6.399   2.858   2.717 -0.8156 -0.7896 -3.7377
 9509TIP3    H252723   6.529   2.918   2.669 -0.0725  1.0990  0.2266
 9510TIP3   OH252724   4.581   5.230   1.707 -0.1029  0.6032  0.2985
 9510TIP3    H152725   4.607   5.177   1.783  1.0095 -2.6472 -2.1056
 9510TIP3    H252726   4.662   5.274   1.680  0.0036  0.1432 -0.1460
 9511TIP3   OH252727   0.789   4.110   1.038  0.8738 -0.3109  0.3378
 9511TIP3    H152728   0.846   4.033   1.045 -0.1484 -1.1647 -0.5526
 9511TIP3    H252729   0.732   4.105   1.114  0.0589 -1.0692 -0.3104
 9512TIP3   OH252730   4.206   2.743   2.056 -0.7009  0.1322 -0.4850
 9512TIP3    H152731   4.284   2.778   2.100 -1.0265 -0.3274  0.4892
 9512TIP3    H252732   4.165   2.687   2.122 -1.5069 -0.1446 -1.2092
 9513TIP3   OH252733   1.799   2.456   0.897  0.4090  0.3751 -0.9150
 9513TIP3    H152734   1.819   2.497   0.981 -2.1376  4.1592 -1.8790
 9513TIP3    H252735   1.773   2.367   0.919 -1.9709  1.7319  2.6255
 9514TIP3   OH252736   2.917   4.733   2.448  0.0692 -0.0763  0.4183
 9514TIP3    H152737   2.962   4.783   2.517  0.3218  0.1373  0.1019
 9514TIP3    H252738   2.931   4.784   2.369  1.7142 -1.4291 -0.2284
 9515TIP3   OH252739   4.185   4.653   2.547  0.8075  0.3253  0.5012
 9515TIP3    H152740   4.160   4.645   2.639 -0.9126  1.0975  0.1441
 9515TIP3    H252741   4.109   4.693   2.505  1.6119  0.1240 -1.2391
 9516TIP3   OH252742   3.859   6.437   2.883 -0.3162  0.1415  0.3867
 9516TIP3    H152743   3.890   6.470   2.799  2.1647 -0.7108  0.8857
 9516TIP3    H252744   3.911   6.483   2.948 -0.1434 -1.2715  1.2952
 9517TIP3   OH252745   5.931   6.368   3.134  0.1642  0.2662 -0.2235
 9517TIP3    H152746   5.932   6.434   3.203 -0.3414  0.8140 -0.7324
 9517TIP3    H252747   5.937   6.284   3.180  1.2939  0.6781  0.3996
 9518TIP3   OH252748   3.008   1.945   2.221 -0.3971 -0.3280  0.0789
 9518TIP3    H152749   2.922   1.987   2.220  0.3975  1.4579 -1.9335
 9518TIP3    H252750   3.070   2.017   2.227  0.9950 -1.3475 -1.2012
 9519TIP3   OH252751   3.269   0.141   0.791  0.0708  0.0857  0.2847
 9519TIP3    H152752   3.304   0.216   0.743  1.0117  0.1271  0.9997
 9519TIP3    H252753   3.345   0.085   0.808 -0.7028 -1.3266 -0.7159
 9520TIP3   OH252754   1.279   2.084   3.091 -0.1142 -0.2804  0.3616
 9520TIP3    H152755   1.269   2.089   3.186  2.3997 -2.1096  0.8387
 9520TIP3    H252756   1.373   2.093   3.076 -0.0855 -2.6226 -1.6787
 9521TIP3   OH252757   4.297   7.496   1.722  0.5936  1.0651 -0.5136
 9521TIP3    H152758   4.219   7.445   1.701  1.5306 -0.8145  0.3570
 9521TIP3    H252759   4.367   7.431   1.730  1.5815  2.3036  2.0389
 9522TIP3   OH252760   5.391   5.575   1.830 -0.2973 -0.0583 -0.0854
 9522TIP3    H152761   5.409   5.607   1.918 -0.9353 -0.2096  0.1096
 9522TIP3    H252762   5.352   5.488   1.844 -3.0827  1.0473 -0.3392
 9523TIP3   OH252763   1.597   7.107   2.297  0.1418  0.1975  0.5466
 9523TIP3    H152764   1.570   7.180   2.241  0.8143 -0.3789 -0.5702
 9523TIP3    H252765   1.518   7.083   2.346 -1.2283 -0.9196 -2.0186
 9524TIP3   OH252766   3.201   6.241   3.081  0.4253 -0.4782  0.3831
 9524TIP3    H152767   3.253   6.161   3.081 -1.2017 -1.6418  1.9159
 9524TIP3    H252768   3.136   6.226   3.150 -1.0909  1.4199 -0.5507
 9525TIP3   OH252769   1.735   2.911   1.575  0.2939  0.0488  0.2008
 9525TIP3    H152770   1.662   2.932   1.634  0.9216  1.3623  0.5634
 9525TIP3    H252771   1.774   2.996   1.555  0.8946 -0.5003 -1.0884
 9526TIP3   OH252772   1.035   2.429   1.680 -0.1473  0.4658  0.1379
 9526TIP3    H152773   0.946   2.448   1.652  0.3878  0.7195 -1.4720
 9526TIP3    H252774   1.081   2.513   1.675  0.0023  0.5098  1.7566
 9527TIP3   OH252775   1.737   5.391   2.261  0.6792 -0.1188  1.0447
 9527TIP3    H152776   1.783   5.307   2.254 -1.3808 -1.2901  0.8409
 9527TIP3    H252777   1.644   5.369   2.250  0.2177  2.4634 -1.2596
 9528TIP3   OH252778   0.239   4.025   1.999 -0.3532 -0.2885 -0.4596
 9528TIP3    H152779   0.285   4.017   2.083  0.8385 -1.9669 -1.2247
 9528TIP3    H252780   0.165   4.083   2.018  0.5996  0.3876  1.4362
 9529TIP3   OH252781   4.500   4.636   3.038 -0.0551 -0.3766  0.6541
 9529TIP3    H152782   4.468   4.548   3.021 -0.7876 -0.3979  1.9764
 9529TIP3    H252783   4.421   4.691   3.038  0.5387  0.6158 -1.8150
 9530TIP3   OH252784   2.622   6.168   0.672  0.0386 -0.2470 -0.6813
 9530TIP3    H152785   2.548   6.143   0.728  0.3563  1.3387  0.5195
 9530TIP3    H252786   2.584   6.174   0.584 -0.9867 -0.6001 -0.2825
 9531TIP3   OH252787   6.729   6.121   2.494  0.1954  0.0090  0.3440
 9531TIP3    H152788   6.747   6.041   2.444  1.0031  0.4292 -0.0619
 9531TIP3    H252789   6.775   6.190   2.446 -2.1458  1.1001 -0.4744
 9532TIP3   OH252790   4.702   2.895   0.604 -0.4179  0.3055  0.1175
 9532TIP3    H152791   4.777   2.949   0.576 -1.1149 -0.1117 -2.8969
 9532TIP3    H252792   4.707   2.895   0.699  2.5372  1.5358  0.0712
 9533TIP3   OH252793   2.794   5.001   1.931  0.4227 -0.0060 -0.3338
 9533TIP3    H152794   2.837   5.078   1.968  1.7219 -1.0037  0.3132
 9533TIP3    H252795   2.750   5.033   1.852  0.7516  1.4337  0.0503
 9534TIP3   OH252796   3.528   1.008   0.643  0.9307  0.4445 -0.6915
 9534TIP3    H152797   3.512   1.098   0.671  1.0822  0.1419  0.4267
 9534TIP3    H252798   3.624   1.001   0.641  0.9592 -0.3145  1.4302
 9535TIP3   OH252799   3.718   0.907   3.006 -0.7870 -0.6135 -0.7139
 9535TIP3    H152800   3.647   0.853   2.972 -0.7827 -0.3804 -1.0936
 9535TIP3    H252801   3.674   0.972   3.061 -1.0651  0.7420 -2.4785
 9536TIP3   OH252802   3.284   1.108   1.077  0.0970  0.2552  0.1450
 9536TIP3    H152803   3.222   1.071   1.141 -0.3704  0.3697 -0.2321
 9536TIP3    H252804   3.370   1.090   1.114 -0.1239 -0.9685  0.1103
 9537TIP3   OH252805   6.224   1.851   1.430 -0.0629 -0.1419  0.4261
 9537TIP3    H152806   6.304   1.824   1.384  0.1509  1.3352 -0.1244
 9537TIP3    H252807   6.215   1.944   1.411 -1.9843 -0.2767  0.3781
 9538TIP3   OH252808   4.918   0.935   2.082  0.2282 -0.2634 -0.1233
 9538TIP3    H152809   4.921   0.878   2.005  1.6465  2.2205 -2.0978
 9538TIP3    H252810   4.837   0.985   2.072  0.3215 -0.0685  0.0906
 9539TIP3   OH252811   5.400   4.155   2.417 -0.3750 -0.0892 -0.5384
 9539TIP3    H152812   5.396   4.228   2.479 -0.5912 -0.0309 -0.6193
 9539TIP3    H252813   5.361   4.191   2.337 -1.5179 -0.6294 -0.2476
 9540TIP3   OH252814   2.812   4.309   1.808  0.4132  0.7041  0.3855
 9540TIP3    H152815   2.838   4.400   1.819 -1.4522  1.2239  0.9538
 9540TIP3    H252816   2.771   4.307   1.721  1.7827  0.0214 -0.2827
 9541TIP3   OH252817   5.048   7.552   1.372  0.6710  0.5669  0.4523
 9541TIP3    H152818   5.092   7.585   1.451 -0.1763  1.7641  0.4468
 9541TIP3    H252819   4.955   7.572   1.385 -0.0950 -2.6893  0.8557
 9542TIP3   OH252820   3.211   4.889   2.888  0.1405  0.5667  0.6050
 9542TIP3    H152821   3.180   4.864   2.975 -0.2961  3.3072  1.3477
 9542TIP3    H252822   3.274   4.959   2.904 -0.4843  1.6430 -1.2969
 9543TIP3   OH252823   0.841   6.019   1.508 -0.8383  0.0728 -0.1812
 9543TIP3    H152824   0.860   6.020   1.415 -0.8809 -2.3897 -0.2791
 9543TIP3    H252825   0.925   6.038   1.550 -0.7421  0.8300 -0.6978
 9544TIP3   OH252826   5.241   2.174   0.908  0.2986 -0.9518 -0.1849
 9544TIP3    H152827   5.327   2.213   0.892 -0.3033  0.9267  0.9237
 9544TIP3    H252828   5.187   2.207   0.836  0.4007 -1.8743 -0.7000
 9545TIP3   OH252829   5.118   4.655   0.955 -0.0376 -0.0171 -0.0725
 9545TIP3    H152830   5.077   4.742   0.961  2.2983  1.0813  1.7633
 9545TIP3    H252831   5.208   4.673   0.930  0.6965 -1.8216  1.0950
 9546TIP3   OH252832   4.740   5.122   1.932  0.1798 -0.3794 -0.8236
 9546TIP3    H152833   4.829   5.149   1.910  0.5822 -0.6387  0.4275
 9546TIP3    H252834   4.750   5.067   2.009 -1.1746  0.5546  0.0635
 9547TIP3   OH252835   5.740   0.160   2.900 -0.7377 -0.4716 -0.2364
 9547TIP3    H152836   5.670   0.117   2.852 -0.9348 -1.9713  1.3077
 9547TIP3    H252837   5.744   0.114   2.984  1.8056 -0.1669 -0.1040
 9548TIP3   OH252838   0.355   3.132   2.754  0.3321 -0.2233  0.6523
 9548TIP3    H152839   0.417   3.059   2.761 -0.7954 -1.4304 -1.1896
 9548TIP3    H252840   0.396   3.192   2.692 -0.7834 -1.5966 -1.5132
 9549TIP3   OH252841   3.655   4.347   1.532  0.0965 -0.5089 -0.1719
 9549TIP3    H152842   3.640   4.306   1.447  0.6453  2.3416 -1.7832
 9549TIP3    H252843   3.734   4.401   1.519 -0.1269  0.4340  1.9561
 9550TIP3   OH252844   3.454   5.996   2.780 -0.2192 -0.2875 -0.3639
 9550TIP3    H152845   3.459   6.065   2.846 -0.5453 -1.1249  0.5467
 9550TIP3    H252846   3.377   5.945   2.804  0.4836 -1.4572 -0.5452
 9551TIP3   OH252847   6.382   5.699   1.537  0.4977 -0.2879 -0.3640
 9551TIP3    H152848   6.359   5.791   1.547 -2.1412 -0.8526 -0.5355
 9551TIP3    H252849   6.307   5.651   1.572  1.5326 -2.3886 -0.8178
 9552TIP3   OH252850   3.012   7.413   2.689  0.5760 -0.1538 -0.2621
 9552TIP3    H152851   3.085   7.474   2.699  3.1872 -3.0846  0.2207
 9552TIP3    H252852   2.994   7.382   2.778 -1.4662  0.6185 -0.3480
 9553TIP3   OH252853   5.348   7.542   3.144  0.4911  0.0077  0.3069
 9553TIP3    H152854   5.411   7.542   3.216  1.2538 -0.0800 -0.3486
 9553TIP3    H252855   5.356   7.454   3.105  1.7414  0.7688 -1.2825
 9554TIP3   OH252856   6.991   0.198   2.248 -0.5801 -0.4784  0.1223
 9554TIP3    H152857   7.053   0.269   2.261  0.9829 -1.4501 -1.5016
 9554TIP3    H252858   6.906   0.235   2.272  0.6611  0.6485  3.2939
 9555TIP3   OH252859   7.255   7.402   0.509  0.2266 -0.5337  0.5519
 9555TIP3    H152860   7.206   7.475   0.470 -0.4485 -1.7194 -0.9478
 9555TIP3    H252861   7.189   7.354   0.560  0.6560 -0.1597  1.4873
 9556TIP3   OH252862   1.554   0.340   1.086 -0.0415  0.5332 -0.0616
 9556TIP3    H152863   1.649   0.344   1.099 -0.1000  0.3550  0.4145
 9556TIP3    H252864   1.543   0.345   0.991  0.5389 -1.4494 -0.2749
 9557TIP3   OH252865   3.500   0.350   1.471  0.4610 -0.6192 -0.6254
 9557TIP3    H152866   3.547   0.394   1.400 -1.1220  0.4605 -1.0798
 9557TIP3    H252867   3.452   0.279   1.428 -1.8300  1.0494 -1.0459
 9558TIP3   OH252868   2.218   6.819   0.912  0.2464  0.0663  0.4166
 9558TIP3    H152869   2.123   6.831   0.915  0.1801 -0.5893  1.0878
 9558TIP3    H252870   2.253   6.893   0.962  0.0615  0.0065  0.6365
 9559TIP3   OH252871   4.994   1.899   1.194 -0.2352 -0.0327  0.5232
 9559TIP3    H152872   5.052   1.882   1.268  1.1797  0.6787 -0.3942
 9559TIP3    H252873   4.918   1.843   1.210  0.2166 -0.1961  2.2910
 9560TIP3   OH252874   1.410   6.777   0.750  0.3567 -0.3311 -0.1581
 9560TIP3    H152875   1.318   6.751   0.762  0.0271 -0.3647 -2.3492
 9560TIP3    H252876   1.460   6.703   0.783 -0.4095 -0.6740  0.2789
 9561TIP3   OH252877   5.830   3.654   2.294  0.1911 -0.4438  0.5504
 9561TIP3    H152878   5.893   3.645   2.223 -0.7596  0.0512 -0.3736
 9561TIP3    H252879   5.794   3.566   2.305 -0.8826 -0.1844 -0.7466
 9562TIP3   OH252880   5.702   7.582   0.547  0.2164  0.3136 -0.1305
 9562TIP3    H152881   5.663   7.661   0.586 -1.8199 -0.5382 -0.2932
 9562TIP3    H252882   5.635   7.549   0.487  0.6813 -1.9424  0.4888
 9563TIP3   OH252883   0.512   0.183   1.264  0.5128 -0.0915 -0.3897
 9563TIP3    H152884   0.502   0.263   1.315  3.2762  0.2509 -0.2129
 9563TIP3    H252885   0.548   0.211   1.180  0.2580 -1.0413 -0.8396
 9564TIP3   OH252886   5.007   5.837   0.844 -0.2415  0.1114  0.2209
 9564TIP3    H152887   5.001   5.899   0.772 -0.3348 -0.8363 -0.6075
 9564TIP3    H252888   5.082   5.781   0.822  0.8994  0.9249  1.7741
 9565TIP3   OH252889   2.038   5.289   1.512  0.3421  0.6029 -0.1017
 9565TIP3    H152890   2.101   5.218   1.519  0.2345  0.4115 -0.9688
 9565TIP3    H252891   2.020   5.296   1.418 -0.6310  0.9120  0.0982
 9566TIP3   OH252892   5.759   4.739   2.448  0.4247  0.6440 -0.0665
 9566TIP3    H152893   5.737   4.704   2.362  3.0334 -1.6527  0.0580
 9566TIP3    H252894   5.851   4.765   2.441  0.2009  2.1189  1.5623
 9567TIP3   OH252895   2.441   3.092   3.262 -0.3824  0.3651 -0.1263
 9567TIP3    H152896   2.484   3.172   3.292  1.9092 -0.8839  0.1395
 9567TIP3    H252897   2.451   3.093   3.167  0.4785 -0.0202 -0.0496
 9568TIP3   OH252898   6.034   4.793   2.389  0.1421 -0.3476  0.3587
 9568TIP3    H152899   6.002   4.872   2.344 -2.8421 -1.1655  0.8365
 9568TIP3    H252900   6.070   4.739   2.319 -0.2306  0.3203 -0.3687
 9569TIP3   OH252901   7.104   5.015   1.913  0.0493  0.4423  0.0819
 9569TIP3    H152902   7.118   5.096   1.863  0.7140  0.4440  0.2633
 9569TIP3    H252903   7.186   5.002   1.961 -0.8559  0.9097  1.8440
 9570TIP3   OH252904   5.486   2.272   3.049  0.0831 -0.1543  0.0716
 9570TIP3    H152905   5.465   2.212   3.121  1.0427  1.8295  2.1699
 9570TIP3    H252906   5.406   2.324   3.038  0.4463  0.6325  0.9348
 9571TIP3   OH252907   2.544   0.163   1.007 -0.3390  0.0768  0.1812
 9571TIP3    H152908   2.588   0.169   0.923 -0.0071  0.5206  0.3835
 9571TIP3    H252909   2.608   0.121   1.065 -0.8680 -1.0002  0.0108
 9572TIP3   OH252910   7.241   1.803   1.795 -0.1659  0.3885 -0.1773
 9572TIP3    H152911   7.205   1.754   1.721 -0.1364 -1.9343  1.2394
 9572TIP3    H252912   7.244   1.894   1.765 -1.7584 -0.2116 -2.3823
 9573TIP3   OH252913   7.339   4.971   2.050  0.9974 -0.2558  0.3142
 9573TIP3    H152914   7.380   5.056   2.035  3.0656 -1.5018 -1.7652
 9573TIP3    H252915   7.347   4.957   2.144  0.2762  1.9439  0.7719
 9574TIP3   OH252916   3.268   3.351   2.323 -0.4987 -0.0432 -0.0938
 9574TIP3    H152917   3.323   3.425   2.300  0.5742 -1.3461 -2.0222
 9574TIP3    H252918   3.179   3.382   2.309 -0.0403  0.6685 -1.6968
 9575TIP3   OH252919   7.301   0.877   1.066 -0.3922  0.9566 -0.8511
 9575TIP3    H152920   7.365   0.864   1.136 -0.2192  2.6006 -0.6669
 9575TIP3    H252921   7.271   0.967   1.078 -1.7768  0.6410 -1.7413
 9576TIP3   OH252922   3.591   6.369   1.621  0.0883 -0.6989 -0.2039
 9576TIP3    H152923   3.576   6.419   1.540 -2.8250 -2.7793 -1.1262
 9576TIP3    H252924   3.648   6.297   1.595 -0.6027 -1.1962 -0.3774
 9577TIP3   OH252925   6.581   1.767   1.070  0.0279 -0.4303  0.2207
 9577TIP3    H152926   6.512   1.731   1.015  0.2650  1.0888 -1.1270
 9577TIP3    H252927   6.658   1.714   1.050 -0.1773 -0.6558  0.0225
 9578TIP3   OH252928   0.469   5.572   2.597  0.5393 -0.4754 -0.1978
 9578TIP3    H152929   0.383   5.541   2.624  0.0501 -0.7508 -1.9217
 9578TIP3    H252930   0.531   5.519   2.647 -0.2704 -0.3691  0.9647
 9579TIP3   OH252931   3.340   4.592   1.508  0.4182  0.1581 -0.2637
 9579TIP3    H152932   3.325   4.686   1.521  0.3111  0.3757 -1.8058
 9579TIP3    H252933   3.387   4.586   1.425  0.9729 -1.1259  0.1127
 9580TIP3   OH252934   0.422   4.606   1.762 -0.0497 -0.1410  0.2467
 9580TIP3    H152935   0.445   4.632   1.852 -2.6201  1.0650  0.6315
 9580TIP3    H252936   0.366   4.676   1.731 -1.3591 -1.8152 -1.3628
 9581TIP3   OH252937   3.413   2.744   2.198  0.1133 -0.1371 -0.4482
 9581TIP3    H152938   3.473   2.688   2.248 -0.7512 -1.4067 -0.7674
 9581TIP3    H252939   3.466   2.777   2.126  1.6662  2.5277  1.7151
 9582TIP3   OH252940   4.471   6.104   2.391  0.0189 -0.1088  0.0877
 9582TIP3    H152941   4.492   6.179   2.446  1.3795  0.8978 -1.6875
 9582TIP3    H252942   4.546   6.097   2.331 -1.4552 -1.0243 -1.7465
 9583TIP3   OH252943   6.905   6.722   2.523 -0.3060 -0.2752  0.5463
 9583TIP3    H152944   6.974   6.711   2.588 -0.3988  1.2840  0.9444
 9583TIP3    H252945   6.888   6.633   2.491  0.6203 -0.9104  1.7311
 9584TIP3   OH252946   1.366   2.420   3.031 -0.3745 -0.3053  0.0562
 9584TIP3    H152947   1.405   2.372   2.958 -0.7322 -0.6701  0.1009
 9584TIP3    H252948   1.278   2.444   3.000  0.0065  0.8252 -0.1784
 9585TIP3   OH252949   4.428   7.674   2.327 -0.6692 -0.0780  0.2993
 9585TIP3    H152950   4.399   7.585   2.344 -1.0303 -0.2258 -0.9364
 9585TIP3    H252951   4.373   7.703   2.253 -0.7330  1.2508  0.8391
 9586TIP3   OH252952   5.510   5.078   2.418  0.1123  0.0806  0.2736
 9586TIP3    H152953   5.489   5.163   2.457  0.3552 -0.0974  0.7957
 9586TIP3    H252954   5.433   5.056   2.366  0.5839  1.2642 -0.9890
 9587TIP3   OH252955   1.099   6.234   1.030  0.0826 -0.0037 -0.3928
 9587TIP3    H152956   1.115   6.143   1.055  0.2482 -0.1128 -0.8803
 9587TIP3    H252957   1.157   6.285   1.086  1.4524 -0.3306 -1.4560
 9588TIP3   OH252958   2.577   3.345   1.776 -0.2984  0.4302 -0.3013
 9588TIP3    H152959   2.537   3.425   1.811 -1.2030  0.3012 -1.0105
 9588TIP3    H252960   2.663   3.373   1.745 -0.0195  0.8248  0.7686
 9589TIP3   OH252961   3.817   4.064   1.141  0.2728 -0.3918  0.0765
 9589TIP3    H152962   3.845   4.131   1.078  1.7876 -0.4955  0.5825
 9589TIP3    H252963   3.817   3.982   1.091 -0.4899 -0.1820 -0.2717
 9590TIP3   OH252964   4.450   7.560   2.731  0.1265  0.6150 -0.2136
 9590TIP3    H152965   4.434   7.486   2.789  0.4479 -0.2675 -1.2132
 9590TIP3    H252966   4.517   7.529   2.670  0.7012  1.9343 -0.2880
 9591TIP3   OH252967   5.868   3.576   2.959 -0.3624 -0.1287 -1.0833
 9591TIP3    H152968   5.816   3.555   3.036 -0.5725 -1.0920 -1.4720
 9591TIP3    H252969   5.886   3.492   2.918  2.3199  0.0280 -0.4655
 9592TIP3   OH252970   1.608   0.958   0.667 -0.1986  0.1665  0.2529
 9592TIP3    H152971   1.687   0.962   0.613  0.5719 -1.3717  1.1822
 9592TIP3    H252972   1.559   1.036   0.644 -0.5696 -1.0042 -3.6025
 9593TIP3   OH252973   3.427   6.536   1.076  0.0104  0.3096 -0.1802
 9593TIP3    H152974   3.369   6.593   1.025 -0.4700  1.0176  1.0938
 9593TIP3    H252975   3.421   6.451   1.033 -2.8885  0.0531  0.5067
 9594TIP3   OH252976   0.303   1.827   1.259  0.6658  0.3256  0.1057
 9594TIP3    H152977   0.315   1.791   1.347  1.7528  0.3181 -0.0313
 9594TIP3    H252978   0.356   1.907   1.258 -1.1771  1.6127  0.1875
 9595TIP3   OH252979   1.792   5.547   3.410 -0.7285  0.1705 -0.6866
 9595TIP3    H152980   1.841   5.476   3.452  0.6644  0.0753 -2.3655
 9595TIP3    H252981   1.819   5.626   3.456  0.7298  0.0645 -1.3281
 9596TIP3   OH252982   2.654   5.181   1.724 -0.2151 -0.2218 -0.7107
 9596TIP3    H152983   2.638   5.237   1.649 -0.0477  0.6892 -0.0840
 9596TIP3    H252984   2.574   5.129   1.733 -0.8493  0.7312 -0.6263
 9597TIP3   OH252985   6.607   0.231   2.655 -0.8512  0.2559 -0.0711
 9597TIP3    H152986   6.602   0.224   2.751 -1.3523  0.8319 -0.0552
 9597TIP3    H252987   6.543   0.297   2.632  0.6477  1.5740 -0.6405
 9598TIP3   OH252988   1.485   5.230   0.838  0.0751 -0.1660  0.8650
 9598TIP3    H152989   1.523   5.152   0.877 -0.2423  0.4234  2.4622
 9598TIP3    H252990   1.547   5.300   0.859 -0.8907  0.4497  1.7576
 9599TIP3   OH252991   7.545   6.407   2.071  0.3435  0.3581  0.1905
 9599TIP3    H152992   7.538   6.335   2.134  2.4858  1.1475  1.4498
 9599TIP3    H252993   7.587   6.368   1.994  0.0850 -0.0527  0.2543
 9600TIP3   OH252994   7.670   5.289   2.001 -0.3128 -0.1519  0.0717
 9600TIP3    H152995   7.711   5.371   1.972  1.6023 -1.1544 -0.2236
 9600TIP3    H252996   7.733   5.251   2.062 -0.4365 -2.1288 -0.9424
 9601TIP3   OH252997   3.047   4.335   3.214 -0.0514 -0.0060  0.3315
 9601TIP3    H152998   3.003   4.389   3.148 -0.5929  1.6885  1.9952
 9601TIP3    H252999   3.000   4.252   3.212 -2.6169  1.3079  1.1703
 9602TIP3   OH253000   5.225   2.573   2.763  0.3136 -0.1034 -0.3887
 9602TIP3    H153001   5.149   2.629   2.747 -0.7537 -0.6681  2.1591
 9602TIP3    H253002   5.286   2.628   2.813 -0.4456 -0.9058  1.5249
 9603TIP3   OH253003   1.840   6.552   0.889  0.3418 -0.6485 -0.3321
 9603TIP3    H153004   1.813   6.590   0.805  1.1948  1.5953  0.3362
 9603TIP3    H253005   1.762   6.508   0.922 -0.9941  1.1982 -0.8365
 9604TIP3   OH253006   6.144   1.179   3.472 -0.2424  0.0161  0.0310
 9604TIP3    H153007   6.195   1.121   3.415 -0.7540 -1.4178  0.9922
 9604TIP3    H253008   6.075   1.123   3.508 -0.7172  1.2107  1.0409
 9605TIP3   OH253009   6.791   0.888   2.395 -0.4924 -0.1263 -0.0600
 9605TIP3    H153010   6.854   0.881   2.323 -1.6953  2.2525 -1.4541
 9605TIP3    H253011   6.713   0.843   2.363 -0.8912  0.5606 -0.0549
 9606TIP3   OH253012   3.801   5.154   2.437 -0.1300  0.9250 -0.4201
 9606TIP3    H153013   3.715   5.176   2.401 -0.5511  0.8052  0.4898
 9606TIP3    H253014   3.831   5.080   2.384  0.1906  2.0515 -1.8684
 9607TIP3   OH253015   4.148   1.628   2.238 -0.1603 -0.9567 -0.0432
 9607TIP3    H153016   4.086   1.558   2.215 -1.0547 -0.2794  0.2242
 9607TIP3    H253017   4.155   1.622   2.333 -0.0775 -0.8198 -0.0421
 9608TIP3   OH253018   6.050   3.035   2.644 -0.1301 -0.5377 -0.1453
 9608TIP3    H153019   6.110   3.106   2.666  1.5082 -1.8560 -0.1144
 9608TIP3    H253020   5.963   3.073   2.652  0.6991  2.1431 -2.4799
 9609TIP3   OH253021   7.034   1.946   2.026 -0.1401 -0.2558 -0.1328
 9609TIP3    H153022   7.033   2.026   1.972 -1.1292 -0.2268 -0.0949
 9609TIP3    H253023   7.108   1.896   1.992 -0.3073  0.0819 -1.0499
 9610TIP3   OH253024   6.333   4.879   0.795 -0.2309  0.1163  0.2643
 9610TIP3    H153025   6.318   4.810   0.859  1.7958 -0.8849 -0.2487
 9610TIP3    H253026   6.251   4.883   0.745 -0.2620 -2.3441 -0.0404
 9611TIP3   OH253027   0.338   3.591   2.901  0.2031 -0.2789 -0.1464
 9611TIP3    H153028   0.272   3.566   2.836 -0.2506  1.3451 -0.3374
 9611TIP3    H253029   0.422   3.574   2.857 -0.0675 -1.4215 -0.2616
 9612TIP3   OH253030   1.741   6.036   2.402  0.0845 -0.1951  0.3958
 9612TIP3    H153031   1.791   6.023   2.483 -0.7601  0.6410  1.0673
 9612TIP3    H253032   1.772   6.120   2.368 -1.3345  0.7033  1.2075
 9613TIP3   OH253033   6.513   1.604   0.852 -0.7509  0.1134 -0.3323
 9613TIP3    H153034   6.565   1.527   0.829  0.4377  0.4914  0.9844
 9613TIP3    H253035   6.484   1.639   0.768 -0.7114 -1.3464 -0.9845
 9614TIP3   OH253036   0.285   3.909   1.404  0.1308  0.1940  0.1770
 9614TIP3    H153037   0.223   3.982   1.408 -0.9122 -0.7001  0.8820
 9614TIP3    H253038   0.334   3.924   1.323 -0.5095  1.3206 -0.0270
 9615TIP3   OH253039   0.889   5.380   3.025 -0.1262  0.1652 -0.9897
 9615TIP3    H153040   0.949   5.437   2.977 -0.1489  0.5654 -0.5520
 9615TIP3    H253041   0.834   5.341   2.958 -0.2016  0.7713 -1.2814
 9616TIP3   OH253042   6.092   6.385   0.587 -0.1519 -0.3285 -0.7216
 9616TIP3    H153043   6.149   6.437   0.643 -1.1849  0.2636 -0.2018
 9616TIP3    H253044   6.127   6.296   0.592  0.2195 -0.1305  0.2492
 9617TIP3   OH253045   7.633   7.257   1.022  0.1633 -0.2019  0.0200
 9617TIP3    H153046   7.676   7.309   1.089 -2.3708 -0.4778  2.0436
 9617TIP3    H253047   7.702   7.235   0.959  2.4402  0.9595  1.9766
 9618TIP3   OH253048   6.283   4.489   3.264 -0.0869 -0.3293  0.6909
 9618TIP3    H153049   6.226   4.565   3.275  0.4862  0.3975 -0.9744
 9618TIP3    H253050   6.223   4.419   3.238 -0.4317 -0.0048  0.5929
 9619TIP3   OH253051   6.520   7.507   2.410  0.3566  0.4091  0.3289
 9619TIP3    H153052   6.480   7.583   2.368  0.9184 -0.1686 -1.3544
 9619TIP3    H253053   6.446   7.459   2.448 -0.0679  1.4460  0.8221
 9620TIP3   OH253054   1.133   2.524   2.938 -0.8040 -0.3808 -0.7528
 9620TIP3    H153055   1.072   2.451   2.938 -0.4367 -0.7074  0.0398
 9620TIP3    H253056   1.078   2.602   2.932 -1.2138 -0.7080 -1.2933
 9621TIP3   OH253057   3.312   5.339   1.309  0.6755  0.0477  0.1600
 9621TIP3    H153058   3.379   5.399   1.276 -0.8139  0.7291 -1.8201
 9621TIP3    H253059   3.274   5.385   1.384  2.9486 -0.7506  1.9157
 9622TIP3   OH253060   2.274   4.172   2.110  0.1829  0.1812 -0.6156
 9622TIP3    H153061   2.246   4.094   2.159 -0.6582  1.4586  1.0495
 9622TIP3    H253062   2.201   4.191   2.052 -0.9615  1.3711  1.0966
 9623TIP3   OH253063   2.468   5.756   1.192 -0.1880  0.3289  0.7271
 9623TIP3    H153064   2.474   5.850   1.172  4.0907  0.1925  0.5545
 9623TIP3    H253065   2.458   5.752   1.287  1.0612  1.0099  0.9069
 9624TIP3   OH253066   6.357   0.055   0.570  0.6438 -0.3226 -0.0557
 9624TIP3    H153067   6.401   0.062   0.654 -1.4203  1.1826  0.9741
 9624TIP3    H253068   6.408   0.110   0.511  1.0010  0.1787  0.7077
 9625TIP3   OH253069   3.465   3.706   1.570 -0.0044 -0.4365 -0.3168
 9625TIP3    H153070   3.556   3.736   1.568 -0.1043  0.0242  0.9727
 9625TIP3    H253071   3.414   3.783   1.542 -0.1319  0.0235  1.1244
 9626TIP3   OH253072   1.657   5.025   0.922 -0.5840  0.3243 -0.0857
 9626TIP3    H153073   1.696   5.070   0.997 -1.4954  1.4648 -0.2619
 9626TIP3    H253074   1.727   4.969   0.888  0.7680  1.9596 -0.1264
 9627TIP3   OH253075   7.521   3.576   1.982 -0.0303 -0.1676  0.0413
 9627TIP3    H153076   7.433   3.587   1.945  0.2489 -0.2304 -0.6578
 9627TIP3    H253077   7.575   3.640   1.934  0.4340 -0.5807  0.0062
 9628TIP3   OH253078   3.186   7.219   0.794  0.0984 -0.5189  0.0649
 9628TIP3    H153079   3.159   7.203   0.884 -0.9929 -1.2224 -0.3636
 9628TIP3    H253080   3.123   7.283   0.761  1.4679  0.9694  0.2715
 9629TIP3   OH253081   5.802   4.125   1.411 -0.7904 -0.3931  0.0683
 9629TIP3    H153082   5.838   4.056   1.354 -0.8472 -0.0283 -0.4124
 9629TIP3    H253083   5.709   4.104   1.417 -0.6098 -1.0426  0.8991
 9630TIP3   OH253084   2.754   2.039   2.918  0.5035  0.2794 -0.4942
 9630TIP3    H153085   2.720   1.973   2.858  0.2441  1.1198 -1.3121
 9630TIP3    H253086   2.846   2.050   2.892  0.6362  0.0133 -0.1437
 9631TIP3   OH253087   6.861   6.944   2.020 -0.0402  0.3801  0.0474
 9631TIP3    H153088   6.768   6.929   2.006 -0.4219 -0.0260  2.4809
 9631TIP3    H253089   6.865   7.008   2.091  1.5518  1.0479 -0.6016
 9632TIP3   OH253090   1.555   1.796   1.265  0.0074  0.0083 -0.0091
 9632TIP3    H153091   1.569   1.730   1.196 -2.1220  0.0576 -0.5419
 9632TIP3    H253092   1.631   1.854   1.258  0.6674 -0.9524 -1.2065
 9633TIP3   OH253093   1.452   7.057   0.743 -0.1809  0.2730  0.1675
 9633TIP3    H153094   1.445   6.967   0.711  1.4002 -0.7032  2.3144
 9633TIP3    H253095   1.545   7.078   0.734 -0.6467  2.0756 -1.0861
 9634TIP3   OH253096   4.647   1.209   0.570 -0.2096  0.0387 -0.0150
 9634TIP3    H153097   4.554   1.225   0.557  0.0182  1.0961 -0.4206
 9634TIP3    H253098   4.653   1.115   0.587 -1.4380  0.0899  0.8437
 9635TIP3   OH253099   4.364   7.017   1.060 -0.3266 -0.0392  0.1182
 9635TIP3    H153100   4.442   6.980   1.101 -0.0991 -1.2889 -1.3245
 9635TIP3    H253101   4.351   7.101   1.103  0.2751 -0.9520  2.2023
 9636TIP3   OH253102   0.038   3.396   2.859  0.5844  0.3027  0.0906
 9636TIP3    H153103   0.062   3.474   2.810 -1.3421  0.5070 -0.6281
 9636TIP3    H253104  -0.057   3.399   2.864  0.5522 -1.2722  1.2872
 9637TIP3   OH253105   3.277   0.896   2.714 -0.1601  0.1565 -0.3178
 9637TIP3    H153106   3.213   0.904   2.642 -0.1744  1.0960 -0.2151
 9637TIP3    H253107   3.257   0.970   2.771 -0.5435 -0.9130  0.9944
 9638TIP3   OH253108   1.584   3.212   2.358 -0.3485 -0.0625 -0.1397
 9638TIP3    H153109   1.605   3.201   2.265 -0.8400  0.5708 -0.3351
 9638TIP3    H253110   1.532   3.292   2.361  0.0052  0.1454  0.7357
 9639TIP3   OH253111   1.229   0.043   2.351 -0.7160 -0.1570  0.1922
 9639TIP3    H153112   1.203   0.063   2.261 -2.0435 -1.1130  0.3457
 9639TIP3    H253113   1.319   0.013   2.344 -1.2304 -1.4977 -1.0057
 9640TIP3   OH253114   0.541   2.852   0.885 -0.1831  0.1511 -0.8330
 9640TIP3    H153115   0.497   2.768   0.901  0.3752  0.0030 -0.0240
 9640TIP3    H253116   0.597   2.865   0.961  1.0731  0.4050 -1.7680
 9641TIP3   OH253117   2.888   4.530   1.190 -0.1936 -0.5454  0.0832
 9641TIP3    H153118   2.889   4.488   1.104 -0.2380 -0.8256  0.2182
 9641TIP3    H253119   2.939   4.610   1.178  0.3089 -0.8799 -0.0600
 9642TIP3   OH253120   6.912   5.440   2.431 -0.2468  0.3753 -0.5526
 9642TIP3    H153121   7.001   5.409   2.449 -0.6744 -1.1331 -0.9462
 9642TIP3    H253122   6.858   5.361   2.430 -1.5361  1.2272 -0.7287
 9643TIP3   OH253123   5.158   1.197   1.455  0.1785  0.1239  0.2213
 9643TIP3    H153124   5.248   1.219   1.478 -0.2802  1.1526  1.1103
 9643TIP3    H253125   5.155   1.101   1.457  2.2195 -0.2039 -3.6923
 9644TIP3   OH253126   3.669   3.564   2.315  0.7533  0.2676 -0.0990
 9644TIP3    H153127   3.596   3.606   2.269  2.7323  3.5430 -0.5085
 9644TIP3    H253128   3.653   3.583   2.407  0.4914 -0.0975 -0.0645
 9645TIP3   OH253129   0.892   4.304   1.322 -0.3032  0.7527  0.1429
 9645TIP3    H153130   0.800   4.280   1.322  0.6160 -3.6539  1.0522
 9645TIP3    H253131   0.915   4.310   1.229 -1.0420 -0.4745 -0.1413
 9646TIP3   OH253132   3.372   0.466   1.032  0.5901 -0.7408  0.1868
 9646TIP3    H153133   3.335   0.555   1.035  0.4506 -0.8156  1.1312
 9646TIP3    H253134   3.366   0.441   0.940  0.0512 -0.0105  0.0084
 9647TIP3   OH253135   0.493   4.780   0.716  0.3570  0.7923 -0.0610
 9647TIP3    H153136   0.465   4.860   0.672 -0.3894  0.1718 -0.7340
 9647TIP3    H253137   0.587   4.775   0.698  0.4648  1.6548  0.2231
 9648TIP3   OH253138   7.100   3.295   0.603 -0.1074 -0.5264  0.3569
 9648TIP3    H153139   7.179   3.330   0.644  0.7376  0.0466 -1.6514
 9648TIP3    H253140   7.132   3.229   0.542 -1.0061  0.5834 -1.4022
 9649TIP3   OH253141   7.371   5.229   1.984 -0.6832  0.2977  0.2981
 9649TIP3    H153142   7.354   5.282   1.906  0.5445  1.4026  0.7426
 9649TIP3    H253143   7.466   5.231   1.994 -0.8626  0.9140  2.2998
 9650TIP3   OH253144   1.162   4.353   2.468 -0.3104  0.1076 -0.0971
 9650TIP3    H153145   1.225   4.355   2.396 -0.7305 -1.1796 -0.5321
 9650TIP3    H253146   1.214   4.330   2.545  0.1775  1.7035  0.0742
 9651TIP3   OH253147   6.644   4.520   1.489  0.0305  0.3451  0.0441
 9651TIP3    H153148   6.630   4.595   1.546  0.6548  0.7077 -0.2667
 9651TIP3    H253149   6.571   4.523   1.427 -0.2490  0.3672  0.3697
 9652TIP3   OH253150   3.633   1.560   0.464  0.0880 -0.5944  0.2648
 9652TIP3    H153151   3.649   1.650   0.493  0.7355 -1.0165  1.3072
 9652TIP3    H253152   3.551   1.535   0.506 -0.6720 -0.1521 -0.9021
 9653TIP3   OH253153   1.175   5.153   2.433  0.1966  0.1835 -0.0700
 9653TIP3    H153154   1.118   5.110   2.370  1.4137 -1.3353 -0.1843
 9653TIP3    H253155   1.116   5.206   2.486 -1.0981 -0.0665 -1.2019
 9654TIP3   OH253156   5.400   5.292   1.926  0.8449 -0.3697 -0.2369
 9654TIP3    H153157   5.431   5.213   1.970  0.5740 -0.4424 -0.1735
 9654TIP3    H253158   5.325   5.321   1.979  0.6592 -0.3302 -0.5168
 9655TIP3   OH253159   3.295   1.232   1.622  0.3704 -0.2224  0.3988
 9655TIP3    H153160   3.212   1.185   1.615  0.8094 -0.9942  0.2411
 9655TIP3    H253161   3.321   1.221   1.713 -0.3525  1.1847  0.8100
 9656TIP3   OH253162   5.520   7.325   2.737 -0.2249 -0.6169  0.4024
 9656TIP3    H153163   5.562   7.245   2.768 -1.9749 -0.9969  1.9278
 9656TIP3    H253164   5.558   7.394   2.790  1.0991 -0.4000 -0.7437
 9657TIP3   OH253165   1.533   2.294   2.823 -0.7502 -0.2304  0.1719
 9657TIP3    H153166   1.530   2.228   2.893 -0.3799 -2.6822 -1.9970
 9657TIP3    H253167   1.491   2.252   2.748 -0.5373  2.0553 -1.3280
 9658TIP3   OH253168   0.223   4.830   3.550 -0.5186  0.0895 -0.5055
 9658TIP3    H153169   0.221   4.739   3.520  1.4481 -0.9004  1.9883
 9658TIP3    H253170   0.187   4.827   3.639  1.9278  1.2003  0.6119
 9659TIP3   OH253171   7.672   2.307   1.183 -0.3092 -0.8397  0.6895
 9659TIP3    H153172   7.677   2.278   1.274  1.1780  0.2335  0.9839
 9659TIP3    H253173   7.579   2.301   1.161 -0.8976  0.0381  2.6835
 9660TIP3   OH253174   1.005   1.789   1.201  0.7207 -0.0981  0.5025
 9660TIP3    H153175   0.911   1.793   1.181  0.3885  0.6321  2.0284
 9660TIP3    H253176   1.011   1.813   1.294  2.3080 -1.4016  0.7882
 9661TIP3   OH253177   4.787   6.033   2.140  0.3538 -0.2050 -0.2013
 9661TIP3    H153178   4.824   6.020   2.053 -0.2344  0.8759 -0.6325
 9661TIP3    H253179   4.707   6.083   2.125  0.7672  0.8946  1.0367
 9662TIP3   OH253180   0.727   6.110   0.904 -0.3120  0.2807 -0.0127
 9662TIP3    H153181   0.645   6.143   0.868 -0.1510  2.0683  1.1178
 9662TIP3    H253182   0.735   6.154   0.989  2.1644  0.7501 -0.4054
 9663TIP3   OH253183   4.643   6.795   2.211 -0.1476  0.0341  0.0640
 9663TIP3    H153184   4.652   6.879   2.166  0.5664 -0.0087  0.1210
 9663TIP3    H253185   4.548   6.780   2.215 -0.2509  0.4680 -0.6235
 9664TIP3   OH253186   5.183   3.960   0.623 -0.1788  0.2713  0.0616
 9664TIP3    H153187   5.123   4.033   0.631  1.1078  1.8264 -2.9326
 9664TIP3    H253188   5.134   3.894   0.574  0.0325  0.9598 -1.1132
 9665TIP3   OH253189   4.799   6.946   2.646  0.2683 -0.3813  0.3583
 9665TIP3    H153190   4.760   6.868   2.606 -0.3865 -0.7699  1.6841
 9665TIP3    H253191   4.892   6.925   2.655  0.4740 -0.1883 -1.1369
 9666TIP3   OH253192   6.905   4.073   2.111  0.3830  0.4349  0.1792
 9666TIP3    H153193   6.979   4.122   2.144  0.3285  1.1062 -0.6692
 9666TIP3    H253194   6.905   4.089   2.017  1.1268 -2.2227 -0.3541
 9667TIP3   OH253195   2.247   1.183   0.335 -0.0471  0.4692  0.4039
 9667TIP3    H153196   2.170   1.225   0.374  0.5787  1.1577  0.9302
 9667TIP3    H253197   2.318   1.245   0.350  1.3231 -1.4800  2.8195
 9668TIP3   OH253198   7.155   3.051   0.454 -0.5445  0.2745 -0.4482
 9668TIP3    H153199   7.114   2.968   0.481 -0.8227  0.9066  1.1790
 9668TIP3    H253200   7.249   3.032   0.456 -0.6275 -0.1811 -0.6999
 9669TIP3   OH253201   5.966   0.995   1.163  0.2261 -0.1482 -0.6410
 9669TIP3    H153202   6.008   0.974   1.080 -0.2264  1.5049 -1.3327
 9669TIP3    H253203   5.949   1.089   1.158  0.8513  0.1404  1.6335
 9670TIP3   OH253204   3.912   3.648   0.925 -0.0680  0.0588  0.5469
 9670TIP3    H153205   4.002   3.651   0.893 -1.3067  0.4949 -3.3856
 9670TIP3    H253206   3.877   3.736   0.909 -1.7074 -0.6055  0.2153
 9671TIP3   OH253207   0.599   4.542   1.031 -0.3086 -0.1735  0.3388
 9671TIP3    H153208   0.631   4.616   1.082  0.7351  0.9860 -1.8704
 9671TIP3    H253209   0.662   4.532   0.960 -2.7918 -0.2026 -2.0706
 9672TIP3   OH253210   1.773   5.406   1.147  0.1428 -0.0016  0.1052
 9672TIP3    H153211   1.727   5.331   1.185  0.7288 -0.7051 -0.5356
 9672TIP3    H253212   1.741   5.482   1.197 -1.5444 -0.4756 -0.1689
 9673TIP3   OH253213   0.507   2.303   2.272 -0.1944  0.4899 -0.7191
 9673TIP3    H153214   0.592   2.339   2.248  0.2412  0.6554  0.9024
 9673TIP3    H253215   0.527   2.229   2.329 -1.1337  0.0011 -1.0009
 9674TIP3   OH253216   0.716   3.227   1.376  0.3205 -0.4314  0.0484
 9674TIP3    H153217   0.628   3.211   1.413 -0.2941  1.3392 -0.5743
 9674TIP3    H253218   0.738   3.145   1.332 -0.9838 -0.9529  0.3107
 9675TIP3   OH253219   4.292   5.425   2.657 -0.2567 -0.0339 -0.2048
 9675TIP3    H153220   4.339   5.372   2.722  0.3888  0.7461 -0.0174
 9675TIP3    H253221   4.284   5.367   2.581  1.4494 -0.0449 -0.4229
 9676TIP3   OH253222   0.660   7.329   0.608 -0.7173 -0.7599 -0.0618
 9676TIP3    H153223   0.728   7.307   0.545  0.3639 -2.1197  1.4675
 9676TIP3    H253224   0.708   7.364   0.683 -1.4226 -3.3649  1.7474
 9677TIP3   OH253225   6.311   0.408   2.132 -0.0209  0.3347  0.1440
 9677TIP3    H153226   6.395   0.395   2.176 -0.2210 -0.3124  0.3509
 9677TIP3    H253227   6.327   0.478   2.068  0.2942  1.2466  1.1867
 9678TIP3   OH253228   1.838   4.694   1.455 -0.2131  0.3743 -0.0891
 9678TIP3    H153229   1.875   4.636   1.388  1.4861  1.0558  0.2183
 9678TIP3    H253230   1.772   4.640   1.499  0.4017 -0.8966 -0.6658
 9679TIP3   OH253231   4.214   3.719   1.654 -0.2180  0.3734 -0.4393
 9679TIP3    H153232   4.231   3.630   1.683  0.0494  0.3982 -0.5169
 9679TIP3    H253233   4.287   3.740   1.596 -0.6797  0.3750 -1.0248
 9680TIP3   OH253234   3.985   4.771   1.748  0.5651 -0.4468 -0.4772
 9680TIP3    H153235   3.931   4.693   1.735 -2.3970  1.1177  1.2573
 9680TIP3    H253236   3.995   4.808   1.660 -1.3115 -0.8025 -0.8930
 9681TIP3   OH253237   1.105   0.436   2.931 -1.1095 -0.3107  0.0477
 9681TIP3    H153238   1.011   0.450   2.943 -1.5045 -1.9696 -0.8233
 9681TIP3    H253239   1.113   0.343   2.910  0.7318 -0.1907  0.0373
 9682TIP3   OH253240   0.541   6.180   1.487  0.3199  0.3112  0.1944
 9682TIP3    H153241   0.576   6.141   1.566  0.5311  0.7828  0.3376
 9682TIP3    H253242   0.583   6.265   1.481 -0.3938  0.6695  0.0836
 9683TIP3   OH253243   1.437   5.562   1.812 -0.0007  0.3269 -0.9347
 9683TIP3    H153244   1.523   5.593   1.785 -0.1131 -1.2428 -3.3778
 9683TIP3    H253245   1.378   5.633   1.791  0.4753  0.7769 -0.7794
 9684TIP3   OH253246   3.182   7.049   1.500  0.3008  0.0963 -0.0476
 9684TIP3    H153247   3.243   7.046   1.573  0.8041  0.6929 -0.4272
 9684TIP3    H253248   3.110   7.104   1.530  1.2440  1.6457 -0.5182
 9685TIP3   OH253249   6.828   6.865   3.297 -0.0755  0.8864  0.7458
 9685TIP3    H153250   6.922   6.873   3.279 -0.4640  0.8007 -1.5549
 9685TIP3    H253251   6.803   6.951   3.331  0.5820  1.3672  0.0536
 9686TIP3   OH253252   2.206   2.444   0.900 -0.3415  0.3418 -0.3660
 9686TIP3    H153253   2.279   2.502   0.878 -0.2614 -0.2620 -1.7906
 9686TIP3    H253254   2.134   2.474   0.845  0.0343 -1.5852 -2.0320
 9687TIP3   OH253255   3.987   2.219   2.680 -0.3782 -0.1024  0.0921
 9687TIP3    H153256   3.906   2.171   2.697 -1.1285  0.2709 -2.0678
 9687TIP3    H253257   3.958   2.300   2.637  1.1321 -0.0860 -0.9807
 9688TIP3   OH253258   4.582   0.393   2.531  0.7078  0.1850  0.2561
 9688TIP3    H153259   4.546   0.309   2.504 -0.5078  0.4480  0.9975
 9688TIP3    H253260   4.507   0.453   2.530  1.2051  0.8632  1.3694
 9689TIP3   OH253261   4.174   2.149   2.096 -0.7307  0.0388  0.0974
 9689TIP3    H153262   4.125   2.174   2.018 -0.0371  1.5812  0.1237
 9689TIP3    H253263   4.171   2.053   2.097 -1.3734  0.0206 -1.4040
 9690TIP3   OH253264   0.366   4.870   2.759 -0.6057 -0.8581  0.2610
 9690TIP3    H153265   0.368   4.811   2.834 -0.5401 -2.2177 -0.7538
 9690TIP3    H253266   0.443   4.926   2.770  0.3277 -2.1159  0.4016
 9691TIP3   OH253267   2.973   3.138   1.227 -0.1192  0.4371  0.8144
 9691TIP3    H153268   3.069   3.145   1.221 -0.2776  2.0158 -1.9924
 9691TIP3    H253269   2.952   3.062   1.172 -0.4824 -0.3898  2.0592
 9692TIP3   OH253270   4.055   7.641   2.250  0.1594 -0.0403  0.3279
 9692TIP3    H153271   4.045   7.691   2.331  1.6882 -1.2885  1.3423
 9692TIP3    H253272   4.098   7.702   2.190 -1.4060  1.0484  0.2401
 9693TIP3   OH253273   3.932   6.477   2.584  0.0454  0.6468  0.4064
 9693TIP3    H153274   3.893   6.419   2.518  0.6458  0.6097  0.0790
 9693TIP3    H253275   4.012   6.433   2.611  0.2219  1.0567  0.5630
 9694TIP3   OH253276   4.766   0.794   0.456  0.1540  0.2253  0.0558
 9694TIP3    H153277   4.748   0.810   0.363  0.0702 -0.5381 -0.0745
 9694TIP3    H253278   4.744   0.876   0.500  2.0925  1.2838 -0.8229
 9695TIP3   OH253279   5.548   2.657   2.073 -0.4476 -0.3690  0.1032
 9695TIP3    H153280   5.480   2.720   2.049 -0.2045  0.3329  1.1975
 9695TIP3    H253281   5.615   2.668   2.005 -1.3823 -1.0645 -0.9838
 9696TIP3   OH253282   3.972   4.035   2.286  0.1592  0.2236  0.8813
 9696TIP3    H153283   3.928   4.076   2.211  1.2653 -0.3968 -0.1455
 9696TIP3    H253284   3.919   3.958   2.306  0.3734 -0.1351  0.1030
 9697TIP3   OH253285   1.139   0.946   1.646 -0.5108 -0.1065  0.4380
 9697TIP3    H153286   1.050   0.982   1.646 -0.0970  1.0183 -0.9944
 9697TIP3    H253287   1.188   1.002   1.706 -0.8773 -1.1542  1.7828
 9698TIP3   OH253288   2.846   4.645   2.080 -0.0411 -0.0150 -0.2822
 9698TIP3    H153289   2.881   4.596   2.005 -0.9179 -0.7523 -0.2305
 9698TIP3    H253290   2.865   4.589   2.155 -1.1808 -0.3767 -0.2389
 9699TIP3   OH253291   1.643   6.605   2.435 -0.1190 -0.4464  0.6101
 9699TIP3    H153292   1.609   6.611   2.524  1.1656 -1.7778  1.2409
 9699TIP3    H253293   1.697   6.684   2.425  0.8277 -0.9538  1.5345
 9700TIP3   OH253294   4.627   6.754   0.581  0.0248  0.3482 -0.8491
 9700TIP3    H153295   4.608   6.843   0.553 -1.8566  0.4113  0.4622
 9700TIP3    H253296   4.544   6.707   0.572 -0.1728 -0.1582  2.3593
 9701TIP3   OH253297   5.231   2.821   0.702  0.6470  0.1230 -0.3100
 9701TIP3    H153298   5.135   2.822   0.706  0.6758  1.3516  0.8735
 9701TIP3    H253299   5.258   2.898   0.753  2.3161 -1.2856  1.0542
 9702TIP3   OH253300   0.958   3.859   1.039  0.4764 -0.5863 -0.2457
 9702TIP3    H153301   0.990   3.811   1.116  1.2072  0.8109  0.3579
 9702TIP3    H253302   0.909   3.794   0.989 -0.3308 -1.4607  1.5737
 9703TIP3   OH253303   4.490   6.938   2.530 -0.5045 -0.2866 -0.2210
 9703TIP3    H153304   4.544   6.870   2.572 -0.8685 -0.2745  0.2717
 9703TIP3    H253305   4.402   6.901   2.529 -0.8982  0.5697  0.9440
 9704TIP3   OH253306   4.389   1.550   2.027  0.4530 -0.2100  0.3790
 9704TIP3    H153307   4.389   1.568   1.933  1.8220 -0.4245  0.3258
 9704TIP3    H253308   4.344   1.625   2.066  2.8100  1.6012 -0.1682
 9705TIP3   OH253309   6.594   0.409   0.502  0.4282  0.1845 -0.0344
 9705TIP3    H153310   6.623   0.437   0.589 -0.0286  0.7463 -0.0560
 9705TIP3    H253311   6.499   0.404   0.509  0.4194 -0.1466 -0.3920
 9706TIP3   OH253312   4.830   5.459   0.725  0.2480  0.5588  0.0064
 9706TIP3    H153313   4.878   5.376   0.721  1.0488  1.0247 -0.4569
 9706TIP3    H253314   4.823   5.478   0.819 -1.3854 -0.8159  0.2046
 9707TIP3   OH253315   0.057   1.084   3.294  0.4925  0.7576 -0.3157
 9707TIP3    H153316  -0.012   1.105   3.231  0.0662 -0.8606 -0.4255
 9707TIP3    H253317   0.094   1.002   3.262  0.9720  0.4577  0.9633
 9708TIP3   OH253318   5.190   4.880   1.846  0.2664 -0.4085  0.2235
 9708TIP3    H153319   5.125   4.848   1.908 -0.6400  0.7549 -0.0998
 9708TIP3    H253320   5.264   4.907   1.901 -0.7723  1.2238  0.9043
 9709TIP3   OH253321   6.219   2.115   1.337 -0.0184  0.3611 -0.1454
 9709TIP3    H153322   6.290   2.117   1.272 -0.4547 -0.9309 -0.7059
 9709TIP3    H253323   6.139   2.127   1.285 -0.1812  3.2421  0.6448
 9710TIP3   OH253324   7.104   6.392   1.075 -0.0670  0.3262  0.3791
 9710TIP3    H153325   7.034   6.366   1.135 -0.1659 -1.4053 -0.4155
 9710TIP3    H253326   7.184   6.361   1.118 -0.2571 -2.3937 -1.0014
 9711TIP3   OH253327   4.601   2.507   2.129  0.1057 -0.5676  0.1388
 9711TIP3    H153328   4.652   2.429   2.148  0.1358 -1.2895 -2.4657
 9711TIP3    H253329   4.515   2.491   2.168  0.0855 -1.9718 -0.4443
 9712TIP3   OH253330   1.687   3.660   2.535  0.2901 -0.2562  0.4341
 9712TIP3    H153331   1.626   3.725   2.569  1.4687  1.4287 -0.4997
 9712TIP3    H253332   1.634   3.604   2.479 -0.4826  0.9823 -0.1317
 9713TIP3   OH253333   1.119   5.085   3.360 -0.2747 -0.1168  0.3905
 9713TIP3    H153334   1.187   5.146   3.334  0.1361 -0.4673  0.6133
 9713TIP3    H253335   1.055   5.087   3.289 -1.4109  2.2232  1.4014
 9714TIP3   OH253336   4.100   4.180   0.757 -0.0225 -0.2077  0.1474
 9714TIP3    H153337   4.007   4.158   0.763 -0.6043  1.9885 -0.0521
 9714TIP3    H253338   4.120   4.225   0.839  0.9234 -0.8118  0.2653
 9715TIP3   OH253339   4.409   4.357   2.418 -0.4269  0.1163  0.0245
 9715TIP3    H153340   4.406   4.263   2.399 -1.5095  0.3224 -0.9004
 9715TIP3    H253341   4.361   4.398   2.346 -0.0285  1.3829  0.4537
 9716TIP3   OH253342   0.527   3.705   2.217  0.1789  0.0349  0.3425
 9716TIP3    H153343   0.528   3.738   2.307 -0.6405 -1.1777  0.8150
 9716TIP3    H253344   0.600   3.643   2.213  0.4212  0.3327  0.0641
 9717TIP3   OH253345   3.453   1.716   2.612  0.2938  0.6157 -0.1471
 9717TIP3    H153346   3.526   1.752   2.663  0.3094  0.5732 -0.1389
 9717TIP3    H253347   3.402   1.666   2.675  1.8124 -1.7341 -0.6698
 9718TIP3   OH253348   4.415   1.082   2.543 -0.6380  0.1123  0.3113
 9718TIP3    H153349   4.356   1.091   2.468 -0.5142  1.5053  0.3533
 9718TIP3    H253350   4.440   0.990   2.543  1.4584  0.5035 -2.9948
 9719TIP3   OH253351   1.587   3.989   0.516  0.4600  0.0987 -0.8070
 9719TIP3    H153352   1.606   4.075   0.479 -0.2514  0.7823  0.3431
 9719TIP3    H253353   1.669   3.940   0.510  0.8198  0.7893 -1.6334
 9720TIP3   OH253354   0.862   3.323   2.792 -0.2629  0.0383  0.7594
 9720TIP3    H153355   0.949   3.285   2.802  0.6490  1.7155 -0.2354
 9720TIP3    H253356   0.838   3.353   2.880  1.5386  2.2359  0.6095
 9721TIP3   OH253357   2.231   1.458   2.179  0.0336 -0.5236  0.6132
 9721TIP3    H153358   2.186   1.385   2.138 -0.7253 -1.0022  2.2268
 9721TIP3    H253359   2.312   1.421   2.214 -0.1192 -0.4937  1.0051
 9722TIP3   OH253360   1.952   1.578   0.945 -0.2840  0.1655  0.3217
 9722TIP3    H153361   1.930   1.670   0.961  0.5443  0.5644 -0.6899
 9722TIP3    H253362   2.044   1.579   0.919  0.0691 -1.0972  1.4105
 9723TIP3   OH253363   2.043   3.933   2.273 -0.1589 -0.6383  0.2663
 9723TIP3    H153364   1.972   3.949   2.210 -0.6720 -1.9032  0.4885
 9723TIP3    H253365   2.057   4.018   2.315 -2.0138 -0.5010  0.6835
 9724TIP3   OH253366   3.535   0.921   0.909  0.2794 -0.3473 -0.1926
 9724TIP3    H153367   3.506   0.829   0.912  0.7680 -0.5000 -0.0344
 9724TIP3    H253368   3.511   0.950   0.822 -2.3138  0.1967  0.5977
 9725TIP3   OH253369   2.304   2.125   1.772  0.0569  0.2348 -0.0150
 9725TIP3    H153370   2.273   2.081   1.851  0.9424 -1.1766 -0.4187
 9725TIP3    H253371   2.246   2.093   1.703  1.8260 -1.8388 -0.6433
 9726TIP3   OH253372   5.798   2.029   0.655 -0.3570  0.6596 -0.4952
 9726TIP3    H153373   5.743   2.026   0.577 -0.7328  0.5051 -0.2276
 9726TIP3    H253374   5.740   2.061   0.724  0.2077  1.6686 -0.4714
 9727TIP3   OH253375   5.304   6.183   1.243  0.8339 -0.8296 -0.4649
 9727TIP3    H153376   5.235   6.119   1.261  1.2638 -1.2619 -0.3200
 9727TIP3    H253377   5.292   6.205   1.150 -0.9104  0.8278  0.0916
 9728TIP3   OH253378   4.064   3.061   1.043  0.3850 -0.2667  0.1191
 9728TIP3    H153379   4.015   2.979   1.043  0.2417 -0.1827 -0.8632
 9728TIP3    H253380   4.014   3.120   0.988  0.4189  0.5403  0.9184
 9729TIP3   OH253381   5.745   0.078   3.179  0.1039 -0.4370  0.5808
 9729TIP3    H153382   5.818   0.125   3.219 -0.9802  1.7541  0.1743
 9729TIP3    H253383   5.745  -0.007   3.221  0.8895  0.6660  3.0055
 9730TIP3   OH253384   1.463   4.316   0.798 -0.2183  0.1910  0.2199
 9730TIP3    H153385   1.380   4.337   0.839  1.6862  1.9093  3.5793
 9730TIP3    H253386   1.518   4.394   0.811  2.5521 -1.5520 -0.0806
 9731TIP3   OH253387   4.900   4.540   2.680 -0.1352  0.1362  0.5591
 9731TIP3    H153388   4.954   4.466   2.707 -0.5429 -0.5616 -0.4968
 9731TIP3    H253389   4.828   4.542   2.743  0.1279 -0.0670  0.8678
 9732TIP3   OH253390   6.093   2.396   1.009 -0.3073 -0.0266 -0.0045
 9732TIP3    H153391   6.037   2.319   1.000  0.2957 -0.4911  0.1670
 9732TIP3    H253392   6.062   2.439   1.089 -0.8497  0.0825 -0.2727
 9733TIP3   OH253393   5.450   3.066   1.183 -0.9572 -0.0198 -0.5548
 9733TIP3    H153394   5.457   2.979   1.145 -2.1703 -0.1311 -0.5497
 9733TIP3    H253395   5.485   3.125   1.116 -0.3796 -0.4787 -0.6610
 9734TIP3   OH253396   6.034   3.517   1.246  0.4134  0.0042 -0.5379
 9734TIP3    H153397   6.100   3.579   1.214 -0.5488  1.1238 -0.4609
 9734TIP3    H253398   6.006   3.554   1.330  2.0304 -2.2335  1.1027
 9735TIP3   OH253399   2.500   3.745   2.494 -0.6426  0.4587  0.1666
 9735TIP3    H153400   2.519   3.653   2.477 -2.2695 -0.0091  0.6820
 9735TIP3    H253401   2.558   3.794   2.436  1.8771 -0.8100  1.4673
 9736TIP3   OH253402   4.909   2.530   0.880 -0.2394 -0.2022  0.1342
 9736TIP3    H153403   5.004   2.543   0.884 -0.2178  0.1155 -1.0108
 9736TIP3    H253404   4.899   2.441   0.846 -0.3475 -0.2100  0.1880
 9737TIP3   OH253405   2.333   3.266   2.081 -0.1778  0.0996  0.1985
 9737TIP3    H153406   2.258   3.263   2.140 -0.8101  1.9436 -0.4366
 9737TIP3    H253407   2.342   3.176   2.049 -0.2934 -0.7738  2.4457
 9738TIP3   OH253408   4.062   2.158   0.953  0.4479  0.3981  0.5213
 9738TIP3    H153409   4.126   2.223   0.926  0.8538 -0.6323 -1.1522
 9738TIP3    H253410   4.090   2.131   1.041  1.3236  1.1555  0.4889
 9739TIP3   OH253411   7.465   1.987   2.443  0.0831 -0.8413  0.5982
 9739TIP3    H153412   7.547   1.981   2.493  0.1759 -1.3839  0.3890
 9739TIP3    H253413   7.402   2.025   2.504  0.4383 -0.6214  0.8292
 9740TIP3   OH253414   2.982   0.964   1.271 -0.1348  0.1888  0.1250
 9740TIP3    H153415   3.068   1.004   1.283  0.4536  0.2652 -3.3666
 9740TIP3    H253416   2.961   0.926   1.356  3.9173 -0.9989  0.7864
 9741TIP3   OH253417   3.145   4.673   2.005 -0.0167 -0.1453 -0.6914
 9741TIP3    H153418   3.059   4.699   1.971 -0.3402 -0.3914 -0.0859
 9741TIP3    H253419   3.161   4.731   2.079  0.5242  0.1600 -1.0441
 9742TIP3   OH253420   6.139   2.098   2.153  0.4259  0.4344 -0.4891
 9742TIP3    H153421   6.156   2.148   2.233 -1.3136  0.6780 -0.2470
 9742TIP3    H253422   6.166   2.009   2.174  0.4156  0.5934  0.2053
 9743TIP3   OH253423   6.565   5.429   0.910  0.2158  0.3778  0.1188
 9743TIP3    H153424   6.498   5.497   0.921 -0.2185 -0.3439  2.4322
 9743TIP3    H253425   6.519   5.356   0.868 -0.3345  0.1095  1.1548
 9744TIP3   OH253426   5.476   5.231   1.562 -0.7595 -0.4182  0.4071
 9744TIP3    H153427   5.540   5.280   1.510 -1.4945  2.8573  2.3220
 9744TIP3    H253428   5.528   5.191   1.632 -0.3282 -1.2754 -0.3830
 9745TIP3   OH253429   3.527   0.964   1.210 -0.8513  0.3122  0.3993
 9745TIP3    H153430   3.520   0.930   1.300  1.3123 -0.3506  0.3773
 9745TIP3    H253431   3.606   1.019   1.212 -0.3406 -0.3081 -1.2528
 9746TIP3   OH253432   5.615   2.293   1.253  0.1426  0.1871 -0.0761
 9746TIP3    H153433   5.525   2.285   1.283  0.0614  0.9717 -0.0947
 9746TIP3    H253434   5.633   2.210   1.207 -0.5043 -0.0406  0.0780
 9747TIP3   OH253435   0.767   5.711   1.403 -0.7224  0.1317 -0.4265
 9747TIP3    H153436   0.675   5.704   1.376 -1.2495  0.6092  1.1043
 9747TIP3    H253437   0.794   5.797   1.372 -1.5968  1.0610  1.2336
 9748TIP3   OH253438   0.133   3.361   1.831  0.5457  0.2758  0.2827
 9748TIP3    H153439   0.203   3.360   1.765  0.2273 -1.9633 -0.1125
 9748TIP3    H253440   0.165   3.306   1.901 -0.5337 -0.2282  0.4021
 9749TIP3   OH253441   5.483   3.911   0.867  0.2850 -0.1593  0.4207
 9749TIP3    H153442   5.455   3.969   0.937 -0.3731 -0.5970  0.5337
 9749TIP3    H253443   5.401   3.877   0.831  0.6560 -0.9864  0.3436
 9750TIP3   OH253444   1.440   3.102   2.878  0.0708  0.2438 -0.0674
 9750TIP3    H153445   1.464   3.133   2.790  0.3263  0.0291 -0.0737
 9750TIP3    H253446   1.355   3.060   2.866  1.1923 -2.0261 -0.7119
 9751TIP3   OH253447   6.558   1.246   1.489 -0.2683 -0.0276  0.1438
 9751TIP3    H153448   6.473   1.225   1.528 -0.6216  1.6738  0.3349
 9751TIP3    H253449   6.575   1.173   1.429 -1.9119 -0.3565  0.0330
 9752TIP3   OH253450   2.695   5.613   2.802 -1.4433 -0.4025  0.2814
 9752TIP3    H153451   2.704   5.553   2.876 -1.2845 -0.4735  0.2056
 9752TIP3    H253452   2.705   5.700   2.841 -0.5308 -0.4711  0.2264
 9753TIP3   OH253453   0.699   0.629   2.027  0.2847  0.2610 -0.1101
 9753TIP3    H153454   0.629   0.580   2.071  0.6086  1.2037  1.5547
 9753TIP3    H253455   0.653   0.697   1.978 -0.0646 -0.4946 -0.8509
 9754TIP3   OH253456   0.406   2.609   0.961 -0.0148  0.4012  0.3605
 9754TIP3    H153457   0.401   2.520   0.927  0.6910 -0.1825  1.7202
 9754TIP3    H253458   0.323   2.649   0.934  0.2319 -0.2135 -1.4410
 9755TIP3   OH253459   1.514   4.115   1.945  0.8071 -0.5086  0.8543
 9755TIP3    H153460   1.460   4.106   2.024 -1.0540 -0.3251 -0.3353
 9755TIP3    H253461   1.564   4.196   1.959  0.4183 -0.4156  1.7865
 9756TIP3   OH253462   2.541   1.513   1.011 -0.2487  0.1712 -0.1873
 9756TIP3    H153463   2.583   1.598   1.022 -1.6715  0.7605  0.9308
 9756TIP3    H253464   2.597   1.467   0.948  0.1006  2.2288 -1.4703
 9757TIP3   OH253465   7.364   3.211   1.697  0.3625  0.3809  0.0123
 9757TIP3    H153466   7.453   3.181   1.718  0.9368  1.1239 -1.2307
 9757TIP3    H253467   7.377   3.299   1.661 -0.8606  0.3745 -0.4647
 9758TIP3   OH253468   1.667   3.767   1.653 -0.5269 -0.5054 -0.5286
 9758TIP3    H153469   1.621   3.825   1.592 -1.9129  0.8465  1.6278
 9758TIP3    H253470   1.615   3.687   1.654 -1.5599  0.1401  0.1428
 9759TIP3   OH253471   5.587   1.301   2.769 -0.2252  0.0846 -0.0426
 9759TIP3    H153472   5.617   1.274   2.856  0.4879 -0.0171 -0.3148
 9759TIP3    H253473   5.498   1.334   2.783 -1.3299 -2.7818  0.2533
 9760TIP3   OH253474   1.885   3.919   1.700  0.3705 -0.3799  0.1714
 9760TIP3    H153475   1.842   3.997   1.736  0.3668  1.0140 -2.6037
 9760TIP3    H253476   1.812   3.866   1.666  0.5196 -0.4866  0.0188
 9761TIP3   OH253477   6.683   5.426   2.055  0.5297  0.3450  0.0461
 9761TIP3    H153478   6.726   5.397   1.975 -0.8212  0.9855 -0.9471
 9761TIP3    H253479   6.666   5.345   2.104  1.3173 -0.0527 -0.3161
 9762TIP3   OH253480   1.659   5.769   1.874 -0.6260 -0.3153  0.3730
 9762TIP3    H153481   1.731   5.709   1.857  0.2460  0.0256  2.5281
 9762TIP3    H253482   1.627   5.793   1.787  1.8774 -0.4350 -0.6719
 9763TIP3   OH253483   2.831   6.939   0.785 -0.3764  0.1299  0.4688
 9763TIP3    H153484   2.863   7.028   0.805 -1.8673  0.6675  0.5830
 9763TIP3    H253485   2.834   6.894   0.870  1.4002 -0.3040  0.2182
 9764TIP3   OH253486   1.253   4.953   1.140 -0.2924 -0.0538 -0.7281
 9764TIP3    H153487   1.251   4.859   1.158  1.4762 -0.0312 -0.2669
 9764TIP3    H253488   1.218   4.993   1.220 -1.2863 -0.3170 -1.0234
 9765TIP3   OH253489   2.147   2.112   0.666  0.1163  0.0825 -0.4841
 9765TIP3    H153490   2.063   2.144   0.699  0.3799  1.6003 -1.1852
 9765TIP3    H253491   2.148   2.140   0.574  1.0509 -0.6396 -0.7098
 9766TIP3   OH253492   7.423   4.579   1.381  0.6334 -0.4546 -0.0898
 9766TIP3    H153493   7.513   4.558   1.405  0.1580 -2.6016  0.0225
 9766TIP3    H253494   7.384   4.613   1.461  2.2962  4.4403 -1.0550
 9767TIP3   OH253495   0.693   5.396   2.670  0.0586  0.3288  0.5529
 9767TIP3    H153496   0.754   5.365   2.603  2.0945  2.3646  1.3306
 9767TIP3    H253497   0.713   5.344   2.747 -0.9916 -0.7228  0.1493
 9768TIP3   OH253498   0.527   0.701   1.662 -0.9755  0.2072  0.2970
 9768TIP3    H153499   0.595   0.635   1.644 -1.9887 -1.0236  0.7753
 9768TIP3    H253500   0.551   0.739   1.745 -0.6145  0.0987  0.2419
 9769TIP3   OH253501   2.972   4.835   1.830 -0.7858  0.5945 -0.8664
 9769TIP3    H153502   3.004   4.893   1.761 -0.4790  0.2521 -1.0097
 9769TIP3    H253503   2.906   4.888   1.876 -0.5449  1.0405 -1.0255
 9770TIP3   OH253504   1.382   4.301   2.294  0.0993  0.0116 -0.4340
 9770TIP3    H153505   1.408   4.210   2.278  0.0132  0.1444 -1.3965
 9770TIP3    H253506   1.464   4.347   2.313  0.4705  0.1871 -2.2673
 9771TIP3   OH253507   3.327   5.751   0.806  0.3029 -0.2344 -0.1532
 9771TIP3    H153508   3.330   5.806   0.884  2.6436  0.1456 -0.4496
 9771TIP3    H253509   3.303   5.811   0.735 -0.6884 -0.3488  0.0755
 9772TIP3   OH253510   1.638   3.451   1.038 -0.1504  0.2135 -0.1382
 9772TIP3    H153511   1.611   3.397   0.963 -0.9882 -0.0957  0.3725
 9772TIP3    H253512   1.673   3.531   0.999  1.4099 -0.7877 -0.9340
 9773TIP3   OH253513   3.531   7.070   0.976  0.2901 -0.6892 -0.9694
 9773TIP3    H153514   3.564   7.060   1.065  0.6768  0.6875 -0.9272
 9773TIP3    H253515   3.607   7.056   0.920  0.7042  1.0976 -0.9316
 9774TIP3   OH253516   5.221   5.119   1.162  0.3337 -0.4397  0.6178
 9774TIP3    H153517   5.233   5.132   1.256 -0.8293  0.4525  0.6583
 9774TIP3    H253518   5.282   5.048   1.140  1.4982  0.1566  1.8005
 9775TIP3   OH253519   2.299   7.383   1.999  0.0153 -0.3528  0.4971
 9775TIP3    H153520   2.286   7.477   2.001  1.7400 -0.0392 -0.6434
 9775TIP3    H253521   2.290   7.355   2.090 -1.7110  0.6942  0.6921
 9776TIP3   OH253522   2.297   0.726   1.727 -0.1319  0.0938  0.3091
 9776TIP3    H153523   2.222   0.782   1.706  0.1248  0.0797 -0.6483
 9776TIP3    H253524   2.361   0.744   1.659 -0.8058 -2.7993 -1.2233
 9777TIP3   OH253525   6.806   3.363   0.599  0.2173  0.4902  0.3546
 9777TIP3    H153526   6.738   3.296   0.606  0.5574  0.2330  1.4213
 9777TIP3    H253527   6.873   3.324   0.543 -0.5345  0.7843 -0.7840
 9778TIP3   OH253528   3.108   3.441   1.516  0.0760 -0.5045 -0.7697
 9778TIP3    H153529   3.115   3.453   1.421 -2.6712 -0.8796 -1.1053
 9778TIP3    H253530   3.061   3.359   1.527  1.4932 -1.1534  1.0019
 9779TIP3   OH253531   4.657   6.868   0.905 -0.4239 -0.2268  0.2579
 9779TIP3    H153532   4.718   6.877   0.977 -0.1016 -0.9102  0.0747
 9779TIP3    H253533   4.703   6.815   0.840 -0.5407  0.7343 -0.6408
 9780TIP3   OH253534   1.024   1.715   2.056  0.6562 -0.3530 -0.0961
 9780TIP3    H153535   1.052   1.624   2.047 -0.7900 -0.8150 -0.2290
 9780TIP3    H253536   1.040   1.753   1.970 -0.9636 -1.1724 -0.8091
 9781TIP3   OH253537   0.252   5.483   2.320  0.1079  0.1753  0.7422
 9781TIP3    H153538   0.346   5.463   2.315 -0.0921 -0.7894  0.6142
 9781TIP3    H253539   0.248   5.578   2.316  0.8751  0.1871 -2.7334
 9782TIP3   OH253540   6.477   4.102   0.800  0.2881  0.3271 -0.0290
 9782TIP3    H153541   6.409   4.168   0.808 -0.5439 -0.6129  0.9957
 9782TIP3    H253542   6.445   4.042   0.733  0.5904  0.4342 -0.2718
 9783TIP3   OH253543   3.231   2.477   3.218 -0.0831  0.1536 -0.0462
 9783TIP3    H153544   3.272   2.438   3.295  1.1297 -0.7976 -1.1218
 9783TIP3    H253545   3.287   2.450   3.145 -1.1312  1.1161 -1.2547
 9784TIP3   OH253546   1.488   0.662   1.823 -0.2719  0.2255 -0.4361
 9784TIP3    H153547   1.583   0.672   1.820 -0.3065  0.3109 -1.4755
 9784TIP3    H253548   1.461   0.713   1.900  0.6381 -0.9411  0.6994
 9785TIP3   OH253549   4.438   1.351   2.662 -0.4875  0.1279 -0.2029
 9785TIP3    H153550   4.434   1.261   2.631  0.4341 -0.3959  1.1212
 9785TIP3    H253551   4.352   1.388   2.641 -2.1027 -2.0178  2.0426
 9786TIP3   OH253552   0.136   3.692   1.273 -0.4738 -0.5689 -0.1576
 9786TIP3    H153553   0.171   3.757   1.334 -0.6903 -0.3777 -0.2367
 9786TIP3    H253554   0.087   3.743   1.208 -1.8194 -0.8856  0.5582
 9787TIP3   OH253555   2.604   0.445   0.659 -0.0336 -0.1259 -0.5133
 9787TIP3    H153556   2.679   0.504   0.649 -0.0284  0.1218  0.8702
 9787TIP3    H253557   2.538   0.481   0.600  0.8523 -0.2477 -1.6261
 9788TIP3   OH253558   1.876   7.111   1.108  0.0782  0.4984  0.2350
 9788TIP3    H153559   1.892   7.175   1.038 -0.6702 -0.4384 -0.8154
 9788TIP3    H253560   1.781   7.107   1.116  0.0770 -1.0133 -0.2347
 9789TIP3   OH253561   1.928   2.495   1.630 -0.1278 -0.2571  0.1273
 9789TIP3    H153562   1.949   2.467   1.541 -3.2268 -0.6918 -0.6159
 9789TIP3    H253563   1.832   2.492   1.633 -0.1414  0.0571  3.3992
 9790TIP3   OH253564   0.871   3.140   1.902 -0.7275  0.1738  0.1230
 9790TIP3    H153565   0.952   3.107   1.862  0.3666  1.3200  1.3083
 9790TIP3    H253566   0.830   3.062   1.939 -0.4247 -0.4954 -0.8888
 9791TIP3   OH253567   7.614   6.651   1.995 -0.7450 -0.1033  0.2442
 9791TIP3    H153568   7.636   6.694   2.078  1.3541 -0.5087 -0.0619
 9791TIP3    H253569   7.553   6.582   2.020  0.0404 -0.3734  1.5027
 9792TIP3   OH253570   4.621   3.618   2.868 -0.0419 -0.1952  0.0520
 9792TIP3    H153571   4.646   3.587   2.955 -1.7133 -1.5147  0.1092
 9792TIP3    H253572   4.692   3.677   2.842  1.4891 -1.3253  1.4609
 9793TIP3   OH253573   4.242   6.942   0.430  0.5275  0.7572  0.2857
 9793TIP3    H153574   4.159   6.948   0.383  0.6060 -0.5988 -0.0908
 9793TIP3    H253575   4.291   6.873   0.383  2.7575  2.9462 -0.8385
 9794TIP3   OH253576   3.627   4.809   2.840  0.4896  0.1140 -0.0334
 9794TIP3    H153577   3.721   4.803   2.821  0.4147 -1.7266 -0.0844
 9794TIP3    H253578   3.586   4.760   2.769 -0.3500 -0.6942  0.9876
 9795TIP3   OH253579   3.642   7.174   2.633  0.2720  0.4922  0.1088
 9795TIP3    H153580   3.658   7.081   2.614 -0.3134  0.3269  0.3845
 9795TIP3    H253581   3.619   7.175   2.726 -2.0668  0.5831 -0.4175
 9796TIP3   OH253582   5.428   3.899   2.491 -0.6805  0.1502  0.2436
 9796TIP3    H153583   5.408   3.992   2.474  1.9127  0.9142  0.9185
 9796TIP3    H253584   5.413   3.856   2.407 -1.4403  1.2683 -0.2220
 9797TIP3   OH253585   6.154   3.076   1.732 -0.1471  0.0444  0.3131
 9797TIP3    H153586   6.231   3.033   1.693  1.2042  2.1993  0.4713
 9797TIP3    H253587   6.144   3.034   1.817  1.1212  0.0243  0.4703
 9798TIP3   OH253588   3.848   0.934   2.058 -0.3578 -0.0205  0.3209
 9798TIP3    H153589   3.801   1.008   2.096  0.3088  0.6883 -0.2022
 9798TIP3    H253590   3.780   0.885   2.011 -0.9361 -0.1654  1.2817
 9799TIP3   OH253591   3.531   0.053   2.016 -0.3430 -0.6557  0.0853
 9799TIP3    H153592   3.483   0.006   1.947 -1.2760 -0.2517  0.4371
 9799TIP3    H253593   3.585  -0.014   2.058  0.7590 -0.7879 -1.4572
 9800TIP3   OH253594   2.260   3.470   0.797  0.0579  0.1360  0.2218
 9800TIP3    H153595   2.273   3.404   0.865  1.0012  0.3345  0.2549
 9800TIP3    H253596   2.224   3.421   0.723 -1.2218 -0.0348  0.9345
 9801TIP3   OH253597   5.444   4.133   2.713  0.4946 -0.3303 -0.0373
 9801TIP3    H153598   5.448   4.197   2.642 -0.3264  0.1266  0.3132
 9801TIP3    H253599   5.373   4.164   2.769  1.2935 -0.5317  1.1311
 9802TIP3   OH253600   7.298   5.950   1.269  0.0452 -0.2596 -0.3038
 9802TIP3    H153601   7.265   5.928   1.356 -0.3567  1.8000  0.1093
 9802TIP3    H253602   7.242   5.900   1.209 -1.2628  0.1620  0.5312
 9803TIP3   OH253603   1.419   2.489   2.373  0.4319 -0.0383 -0.3000
 9803TIP3    H153604   1.405   2.563   2.314  1.4884 -1.1745 -2.0564
 9803TIP3    H253605   1.504   2.506   2.413 -0.3761  0.8389  1.1512
 9804TIP3   OH253606   2.211   5.279   1.080 -0.0827 -0.1758 -0.4761
 9804TIP3    H153607   2.213   5.287   0.985  0.2460 -1.1934 -0.5632
 9804TIP3    H253608   2.287   5.328   1.110 -0.1986  0.1628 -0.7343
 9805TIP3   OH253609   0.038   2.178   2.348  0.0859  0.0228 -0.0534
 9805TIP3    H153610   0.044   2.180   2.443  0.4845 -2.2989  0.0112
 9805TIP3    H253611   0.115   2.225   2.317  0.4028  0.0434  0.7648
 9806TIP3   OH253612   1.345   0.794   2.004  0.1728  0.1314  0.3249
 9806TIP3    H153613   1.323   0.774   2.095 -1.5003 -0.8008 -0.2403
 9806TIP3    H253614   1.277   0.750   1.953  0.6849  1.2023 -1.3501
 9807TIP3   OH253615   0.807   1.031   1.035 -0.4810  0.2752 -0.1281
 9807TIP3    H153616   0.865   0.984   1.095 -2.4817 -0.7706  1.1439
 9807TIP3    H253617   0.848   1.116   1.022  1.8134 -0.7727 -0.1617
 9808TIP3   OH253618   4.468   1.724   3.010  0.3141 -0.0346  0.3596
 9808TIP3    H153619   4.422   1.643   3.033 -0.3473  0.7358  1.8753
 9808TIP3    H253620   4.489   1.764   3.094  2.9791  0.1156 -0.2875
 9809TIP3   OH253621   2.822   4.280   0.631  0.3088  0.1151 -0.2943
 9809TIP3    H153622   2.839   4.371   0.607 -0.0901 -0.4389 -2.9849
 9809TIP3    H253623   2.726   4.274   0.638  0.3322 -0.0852 -0.1357
 9810TIP3   OH253624   3.523   6.805   2.811  0.4026 -0.3735  0.4742
 9810TIP3    H153625   3.582   6.789   2.737  1.8832  2.0612  1.0095
 9810TIP3    H253626   3.544   6.894   2.839 -3.9725  0.9013  0.3444
 9811TIP3   OH253627   2.788   0.764   1.742  0.4091 -0.2645 -0.0865
 9811TIP3    H153628   2.760   0.838   1.796 -1.1182  0.3504 -1.6228
 9811TIP3    H253629   2.768   0.687   1.795 -5.0816  0.0289 -1.1111
 9812TIP3   OH253630   1.243   5.779   2.037  0.9875 -0.1153 -0.0986
 9812TIP3    H153631   1.194   5.861   2.027 -0.9257 -1.1293  0.4617
 9812TIP3    H253632   1.239   5.737   1.951  0.2773 -0.4941  0.1115
 9813TIP3   OH253633   0.815   5.420   1.162 -0.5171 -0.2907 -0.0529
 9813TIP3    H153634   0.736   5.416   1.218 -0.2928 -0.0813  0.2810
 9813TIP3    H253635   0.785   5.386   1.078 -1.6502  2.2218 -0.7489
 9814TIP3   OH253636   4.354   4.337   2.729 -0.6925  0.2581 -0.5816
 9814TIP3    H153637   4.260   4.319   2.733 -0.3627 -1.5781 -0.0438
 9814TIP3    H253638   4.365   4.390   2.650 -1.9541 -1.2553 -1.8402
 9815TIP3   OH253639   3.984   5.011   2.309  0.1241  0.0429  0.7112
 9815TIP3    H153640   3.959   4.997   2.218 -0.5777  2.4355  0.4614
 9815TIP3    H253641   4.079   5.027   2.306  0.5233 -2.0892  0.7389
 9816TIP3   OH253642   1.531   3.055   1.659 -0.0143  0.3429 -0.1355
 9816TIP3    H153643   1.489   3.025   1.579 -0.1691  0.3195 -0.0480
 9816TIP3    H253644   1.506   3.147   1.666 -0.8431  0.0955  0.4039
 9817TIP3   OH253645   1.994   4.737   1.946 -0.6217  0.3328 -0.0961
 9817TIP3    H153646   2.017   4.796   2.018 -0.8902  0.8482 -0.4199
 9817TIP3    H253647   1.992   4.650   1.985  2.4874  0.1373 -0.1614
 9818TIP3   OH253648   3.715   5.079   2.686 -0.1962 -0.1356 -0.1869
 9818TIP3    H153649   3.719   5.108   2.594 -1.0469  1.3551  0.2078
 9818TIP3    H253650   3.755   4.992   2.685 -0.0028 -0.0761 -1.9356
 9819TIP3   OH253651   1.826   2.184   2.794 -0.1624  0.4244 -0.3266
 9819TIP3    H153652   1.761   2.253   2.809  0.4446  1.2756 -1.3954
 9819TIP3    H253653   1.814   2.123   2.866 -1.9363  0.7168 -0.3231
 9820TIP3   OH253654   5.018   6.780   2.622  0.3769 -0.0838  0.5475
 9820TIP3    H153655   5.072   6.811   2.695  1.1587 -0.8429  0.3138
 9820TIP3    H253656   4.983   6.696   2.652 -1.3140  0.7409  0.9846
 9821TIP3   OH253657   6.480   0.419   1.512 -0.5204  0.0243  0.3183
 9821TIP3    H153658   6.423   0.436   1.587 -0.1175  1.3260  0.3692
 9821TIP3    H253659   6.478   0.501   1.462 -0.1408 -0.5485 -0.6508
 9822TIP3   OH253660   3.903   2.390   2.303 -0.5096 -0.0464  0.2687
 9822TIP3    H153661   3.871   2.429   2.384 -0.3880  1.8848 -0.5403
 9822TIP3    H253662   3.928   2.465   2.249  1.4417 -1.3384 -0.7489
 9823TIP3   OH253663   6.972   1.574   2.611 -0.1535  0.2852  0.1392
 9823TIP3    H153664   6.900   1.511   2.622 -1.3728  1.6099  0.1139
 9823TIP3    H253665   7.051   1.522   2.625 -1.0948 -1.2571  0.0682
 9824TIP3   OH253666   3.801   5.168   1.300 -0.4558 -0.3264  0.3282
 9824TIP3    H153667   3.874   5.107   1.291 -0.6299 -0.4338 -0.4338
 9824TIP3    H253668   3.830   5.230   1.366  0.4088 -0.2625 -0.0895
 9825TIP3   OH253669   5.059   0.331   2.858 -0.2817 -0.0148 -0.0297
 9825TIP3    H153670   5.042   0.242   2.887  2.9625 -0.0629  2.1923
 9825TIP3    H253671   5.104   0.321   2.775  0.1996 -0.4654  0.2816
 9826TIP3   OH253672   2.037   2.007   3.031  0.1411 -0.3478 -0.2851
 9826TIP3    H153673   1.953   2.017   2.988 -0.1476 -1.0871  0.0981
 9826TIP3    H253674   2.024   2.044   3.119  0.2822 -0.2495 -0.3051
 9827TIP3   OH253675   0.658   2.096   0.660  0.3853  0.2967  0.1126
 9827TIP3    H153676   0.621   2.014   0.693 -1.7637  1.4297  0.6688
 9827TIP3    H253677   0.715   2.126   0.730 -1.1522  0.7436  1.2214
 9828TIP3   OH253678   7.339   1.932   3.412 -0.1875  0.3386  0.7494
 9828TIP3    H153679   7.316   2.012   3.460  0.5352  0.4552  0.9189
 9828TIP3    H253680   7.274   1.926   3.342  0.0621  1.3822  0.4029
 9829TIP3   OH253681   3.151   2.848   0.452 -0.2668  0.6596 -0.1666
 9829TIP3    H153682   3.093   2.889   0.388 -1.5032 -0.2062  0.3488
 9829TIP3    H253683   3.095   2.834   0.529  1.1582  1.6585  1.1225
 9830TIP3   OH253684   2.784   4.971   0.804 -0.0938 -0.0544 -0.1771
 9830TIP3    H153685   2.697   4.948   0.837 -0.6919  0.7732 -1.1120
 9830TIP3    H253686   2.831   4.888   0.799 -1.2609 -0.6952 -0.8506
 9831TIP3   OH253687   5.162   0.924   1.513 -0.3404  0.9654  0.6547
 9831TIP3    H153688   5.142   0.882   1.429 -1.0931 -2.2026  2.2654
 9831TIP3    H253689   5.257   0.923   1.518 -0.3095  0.4915  0.1287
 9832TIP3   OH253690   0.762   4.492   0.809  0.3247  0.2723 -0.0537
 9832TIP3    H153691   0.773   4.575   0.763  2.1406 -0.2180 -0.5728
 9832TIP3    H253692   0.734   4.431   0.741  0.1567  0.1807  0.0954
 9833TIP3   OH253693   2.655   6.355   2.170  0.0202 -0.0348  0.3876
 9833TIP3    H153694   2.731   6.323   2.122 -1.3806  0.1610 -2.1527
 9833TIP3    H253695   2.684   6.436   2.211  1.6501 -0.9024  1.0408
 9834TIP3   OH253696   3.952   2.941   1.726 -0.3748 -0.3228  0.1504
 9834TIP3    H153697   3.945   2.992   1.807  0.1627  2.7137 -1.5587
 9834TIP3    H253698   3.868   2.895   1.719 -1.2843  1.0776  1.3327
 9835TIP3   OH253699   7.370   1.602   0.832  0.4299  0.2182 -0.3426
 9835TIP3    H153700   7.359   1.660   0.907 -1.0010 -1.8991  1.1840
 9835TIP3    H253701   7.456   1.563   0.843 -0.0026 -0.5159  0.5614
 9836TIP3   OH253702   7.622   0.054   1.561 -0.3216 -0.2210  0.1872
 9836TIP3    H153703   7.701   0.008   1.589  0.8634  0.2938 -2.1413
 9836TIP3    H253704   7.570  -0.012   1.517 -1.5256 -0.6919  2.1892
 9837TIP3   OH253705   7.012   5.005   1.229  0.2134 -0.5796  0.4834
 9837TIP3    H153706   7.029   4.911   1.232 -0.7284 -0.7877 -0.2359
 9837TIP3    H253707   6.943   5.015   1.164 -0.7016  0.4690  1.5677
 9838TIP3   OH253708   5.390   0.455   2.533  0.3374 -0.0706  0.0399
 9838TIP3    H153709   5.471   0.411   2.507  0.9311  1.4899 -0.9119
 9838TIP3    H253710   5.412   0.548   2.532 -1.9318  0.5562 -2.1872
 9839TIP3   OH253711   3.952   4.923   0.954  0.5496 -0.0514 -0.2224
 9839TIP3    H153712   3.977   4.960   1.039 -1.3214 -0.2210  0.4543
 9839TIP3    H253713   4.002   4.973   0.890  2.2019 -0.0915  0.9737
 9840TIP3   OH253714   3.428   3.500   1.046 -0.1460 -0.4707  0.3188
 9840TIP3    H153715   3.377   3.532   0.972 -2.2140  0.5683  2.0959
 9840TIP3    H253716   3.406   3.407   1.052 -0.2781 -0.4683 -0.1062
 9841TIP3   OH253717   7.613   6.510   0.560 -0.5475 -0.2303  0.2106
 9841TIP3    H153718   7.623   6.433   0.505 -0.3638  1.1027 -1.7413
 9841TIP3    H253719   7.537   6.555   0.524 -1.1275  0.1159  1.8099
 9842TIP3   OH253720   6.843   5.742   1.781 -0.3961  0.5510  0.3018
 9842TIP3    H153721   6.890   5.718   1.861 -0.8341 -1.3087  0.0459
 9842TIP3    H253722   6.873   5.831   1.761  0.4293  0.6872  1.9994
 9843TIP3   OH253723   5.686   6.392   3.028 -0.0920 -0.4888 -0.0378
 9843TIP3    H153724   5.770   6.357   3.059  0.2943  0.2034 -0.2706
 9843TIP3    H253725   5.631   6.395   3.106  1.2908  2.5091  1.0052
 9844TIP3   OH253726   5.916   3.469   0.452  0.9432 -0.0729  0.3654
 9844TIP3    H153727   5.848   3.530   0.482  1.1605  0.0318  0.6379
 9844TIP3    H253728   5.954   3.512   0.375  1.2655  0.2505  0.7042
 9845TIP3   OH253729   5.159   7.543   0.497 -0.1609  0.0985 -0.5615
 9845TIP3    H153730   5.110   7.464   0.473  0.8707 -0.3513 -1.2861
 9845TIP3    H253731   5.167   7.538   0.593 -1.8191  0.3892 -0.3770
 9846TIP3   OH253732   2.969   0.548   2.012 -0.1871  0.2726 -0.3217
 9846TIP3    H153733   2.883   0.523   1.977  0.5123  0.2388 -2.1576
 9846TIP3    H253734   2.980   0.493   2.090 -0.9881 -1.2147 -1.1938
 9847TIP3   OH253735   0.868   1.764   1.548  0.3673  0.0480  0.1959
 9847TIP3    H153736   0.796   1.730   1.494 -0.7431 -1.4051  2.4471
 9847TIP3    H253737   0.835   1.847   1.582  1.0381  0.9274 -1.2216
 9848TIP3   OH253738   3.443   6.304   2.898 -0.6422 -0.3734  0.1063
 9848TIP3    H153739   3.473   6.393   2.913  1.0373 -1.0811  1.2835
 9848TIP3    H253740   3.388   6.284   2.974 -1.6432 -0.1165 -0.5301
 9849TIP3   OH253741   5.927   7.481   0.640  0.5062 -0.0731  0.3153
 9849TIP3    H153742   5.841   7.479   0.597  0.1949 -0.1424  0.9243
 9849TIP3    H253743   5.954   7.573   0.634  0.3491 -0.0345  0.1887
 9850TIP3   OH253744   7.149   7.322   2.126 -0.2942 -0.1364  0.0196
 9850TIP3    H153745   7.070   7.376   2.133 -0.0376  0.3074 -0.4063
 9850TIP3    H253746   7.217   7.384   2.100 -0.2511 -0.8678 -1.7375
 9851TIP3   OH253747   3.488   6.506   2.298 -0.5620  0.2001 -0.1388
 9851TIP3    H153748   3.421   6.569   2.325 -1.7266 -0.3165 -1.6586
 9851TIP3    H253749   3.514   6.534   2.211  0.6007 -0.1261  0.0839
 9852TIP3   OH253750   1.929   2.332   1.874  0.3875 -0.1134  0.1089
 9852TIP3    H153751   1.889   2.250   1.846 -1.1163  0.5811  0.0696
 9852TIP3    H253752   1.928   2.387   1.795  1.1665  0.0251  0.1877
 9853TIP3   OH253753   3.296   2.363   1.553  0.3784  0.3798  0.5852
 9853TIP3    H153754   3.279   2.417   1.475  2.1687  0.3400  0.0986
 9853TIP3    H253755   3.260   2.413   1.626 -1.4494  0.3630 -0.2524
 9854TIP3   OH253756   4.128   4.587   2.805  0.0505  0.2842  0.4243
 9854TIP3    H153757   4.123   4.562   2.897  0.7462 -1.5788 -0.0016
 9854TIP3    H253758   4.062   4.532   2.762  0.5177  0.3154 -0.3493
 9855TIP3   OH253759   3.798   6.438   1.825 -0.3645 -0.2551  0.1298
 9855TIP3    H153760   3.843   6.383   1.890  0.8241 -0.5560 -0.9151
 9855TIP3    H253761   3.725   6.384   1.795 -0.4370 -0.4354  0.6091
 9856TIP3   OH253762   7.250   2.054   0.792 -0.5372  0.6566 -0.2697
 9856TIP3    H153763   7.163   2.015   0.800 -0.8976  1.6542  1.1719
 9856TIP3    H253764   7.239   2.144   0.825  0.9705  0.8950 -0.3537
 9857TIP3   OH253765   7.657   0.857   2.855 -0.5618  0.0148  0.1496
 9857TIP3    H153766   7.656   0.849   2.950 -0.5330  0.3412  0.1794
 9857TIP3    H253767   7.574   0.901   2.833 -0.4370  0.2047  0.0520
 9858TIP3   OH253768   5.264   7.184   2.679 -0.0641  0.1857 -0.5755
 9858TIP3    H153769   5.344   7.231   2.700 -0.2713  0.5687 -0.6364
 9858TIP3    H253770   5.252   7.122   2.751  0.3852 -0.0023 -0.6599
 9859TIP3   OH253771   0.964   3.141   0.438 -0.2509  0.5358 -0.2056
 9859TIP3    H153772   0.932   3.056   0.469  0.2246  0.1998 -0.6182
 9859TIP3    H253773   0.955   3.136   0.342 -1.7270  1.5689 -0.1623
 9860TIP3   OH253774   4.898   2.248   0.812  0.0312  0.2085  0.5555
 9860TIP3    H153775   4.928   2.169   0.768 -0.3386  1.0353 -1.2640
 9860TIP3    H253776   4.820   2.220   0.861 -1.3461 -0.1775 -1.7293
 9861TIP3   OH253777   0.014   4.736   1.037 -0.1188  0.0219  0.2995
 9861TIP3    H153778   0.107   4.723   1.021 -0.2141 -2.4118  1.2598
 9861TIP3    H253779   0.010   4.812   1.095  1.3187 -0.2712  0.8261
 9862TIP3   OH253780   6.843   6.278   2.296  0.4826  0.1806 -0.2001
 9862TIP3    H153781   6.897   6.356   2.307 -1.0831  1.0978  1.3461
 9862TIP3    H253782   6.759   6.311   2.264 -1.0321 -0.4992  2.7761
 9863TIP3   OH253783   2.909   1.180   0.880 -0.4207  0.3827 -0.4946
 9863TIP3    H153784   2.880   1.089   0.876  0.7330  0.0194 -0.8874
 9863TIP3    H253785   2.985   1.178   0.939 -0.3555  1.0833 -0.5495
 9864TIP3   OH253786   1.349   4.241   1.463 -0.3997 -0.1130  0.0440
 9864TIP3    H153787   1.279   4.302   1.442  0.6795  0.8841 -0.7991
 9864TIP3    H253788   1.429   4.294   1.463  0.6990 -1.6336 -1.6300
 9865TIP3   OH253789   2.470   5.171   2.410  0.1876  0.6075  0.1995
 9865TIP3    H153790   2.376   5.175   2.394 -0.2551  0.2938  2.3420
 9865TIP3    H253791   2.506   5.125   2.335 -1.4397  0.2604 -0.4009
 9866TIP3   OH253792   0.712   2.227   1.382  0.3949  0.5650  1.1746
 9866TIP3    H153793   0.756   2.244   1.299  0.7962  1.2129  1.5111
 9866TIP3    H253794   0.637   2.286   1.382 -0.8623 -0.9514  0.3418
 9867TIP3   OH253795   4.047   7.665   0.998 -0.0698 -0.0784  0.0494
 9867TIP3    H153796   4.113   7.688   0.933 -0.7473  0.7641 -0.3630
 9867TIP3    H253797   4.056   7.733   1.066 -0.7897  0.3054 -0.2237
 9868TIP3   OH253798   1.743   0.142   1.363 -0.5535 -0.3919 -0.7457
 9868TIP3    H153799   1.656   0.103   1.352 -0.8655 -0.1075  0.5040
 9868TIP3    H253800   1.726   0.235   1.377 -0.0645 -0.3663 -0.2760
 9869TIP3   OH253801   6.101   3.251   1.188  0.0915  0.1957  0.7106
 9869TIP3    H153802   6.041   3.242   1.114 -3.4235  0.3251  3.2359
 9869TIP3    H253803   6.096   3.343   1.212  0.6556  0.0380  1.4628
 9870TIP3   OH253804   1.110   6.016   2.001  0.0759 -0.4055 -0.0408
 9870TIP3    H153805   1.033   6.072   2.004  0.4907  0.1389  1.5961
 9870TIP3    H253806   1.183   6.076   1.985  0.2461 -0.8226 -0.8698
 9871TIP3   OH253807   0.042   6.085   2.410 -0.0312 -0.2647 -0.4414
 9871TIP3    H153808   0.082   6.154   2.358  2.8897  0.3711  2.3085
 9871TIP3    H253809  -0.009   6.132   2.476  2.0835 -0.5443  1.5335
 9872TIP3   OH253810   5.831   1.584   0.528 -0.0967  0.5006 -0.3930
 9872TIP3    H153811   5.763   1.642   0.492 -0.1012 -0.3487 -1.8448
 9872TIP3    H253812   5.888   1.642   0.578 -1.9728  1.2033  1.0404
 9873TIP3   OH253813   3.778   6.182   1.428 -0.4663  0.4698 -0.1141
 9873TIP3    H153814   3.768   6.245   1.356 -0.9061  0.4052 -0.1129
 9873TIP3    H253815   3.805   6.101   1.385 -0.3948  0.5228 -0.1698
 9874TIP3   OH253816   3.422   5.693   1.544 -0.3794 -0.5650  0.1112
 9874TIP3    H153817   3.472   5.771   1.517 -0.2689 -0.9863 -0.9213
 9874TIP3    H253818   3.478   5.650   1.608 -0.3506  0.0938  0.5386
 9875TIP3   OH253819   5.198   3.348   1.322  0.1972  0.0626  0.1295
 9875TIP3    H153820   5.278   3.382   1.282  0.1924 -0.4096 -0.2936
 9875TIP3    H253821   5.200   3.382   1.411  0.1989  1.1524 -0.2668
 9876TIP3   OH253822   7.324   4.169   3.071 -0.0696 -0.3255 -0.8875
 9876TIP3    H153823   7.264   4.237   3.040 -0.0632  0.3873  0.5576
 9876TIP3    H253824   7.267   4.109   3.119  0.3749  0.5855  0.8640
 9877TIP3   OH253825   0.023   1.923   2.612 -0.0484  0.2803  0.0043
 9877TIP3    H153826   0.019   1.918   2.708  0.0160  2.2447  0.1647
 9877TIP3    H253827   0.117   1.933   2.593 -0.0883  0.1880 -0.2382
 9878TIP3   OH253828   1.152   0.622   1.935  0.3223 -0.1933  0.4437
 9878TIP3    H153829   1.117   0.643   1.848  2.1939  1.1983 -0.0258
 9878TIP3    H253830   1.074   0.621   1.991 -0.7122  1.0158 -0.8654
 9879TIP3   OH253831   1.811   1.504   1.459  0.8080  0.0610  0.1038
 9879TIP3    H153832   1.906   1.510   1.475  0.6473 -0.0265  1.2198
 9879TIP3    H253833   1.800   1.422   1.411  1.2710 -0.0943  0.2530
 9880TIP3   OH253834   6.681   5.300   2.381  0.2607 -0.5197 -0.1858
 9880TIP3    H153835   6.592   5.321   2.350  0.4444  0.1702 -0.2560
 9880TIP3    H253836   6.701   5.216   2.338 -1.1649 -1.7884  1.4661
 9881TIP3   OH253837   1.755   6.694   2.108 -0.3149 -0.2153 -0.0540
 9881TIP3    H153838   1.808   6.680   2.186 -0.3708  1.2743  0.2872
 9881TIP3    H253839   1.811   6.746   2.050 -0.2075 -1.4442 -1.1050
 9882TIP3   OH253840   6.674   0.231   1.353  0.3610  0.3783 -0.4200
 9882TIP3    H153841   6.599   0.268   1.400 -0.2834 -0.0829 -1.0744
 9882TIP3    H253842   6.687   0.145   1.393  0.8289  0.6379 -0.0059
 9883TIP3   OH253843   5.952   4.100   2.073 -0.6053  0.0390  0.4320
 9883TIP3    H153844   5.930   4.157   1.999 -0.6656  0.4316  0.7488
 9883TIP3    H253845   5.900   4.021   2.059  2.0325 -1.4935 -1.9540
 9884TIP3   OH253846   7.408   3.967   0.523  0.1560  0.6497  0.1577
 9884TIP3    H153847   7.491   3.947   0.481  1.0583  0.4884  1.9251
 9884TIP3    H253848   7.351   3.997   0.452  1.1242 -0.9866 -1.3752
 9885TIP3   OH253849   0.980   2.979   1.108  0.5246 -0.1557 -0.0277
 9885TIP3    H153850   0.955   2.891   1.081  0.4089  0.1588 -0.9968
 9885TIP3    H253851   0.911   3.007   1.168  0.0021 -0.3368 -0.5386
 9886TIP3   OH253852   6.130   3.646   1.597  0.3598 -0.7037 -0.4400
 9886TIP3    H153853   6.113   3.552   1.604  2.1604 -1.0952 -0.8804
 9886TIP3    H253854   6.067   3.686   1.658  0.1448 -2.2482  0.4045
 9887TIP3   OH253855   0.366   6.207   2.292 -0.0654 -0.0056  0.4936
 9887TIP3    H153856   0.290   6.222   2.237 -0.6351  0.0292  1.2704
 9887TIP3    H253857   0.426   6.279   2.271 -0.2233 -0.0588 -0.1523
 9888TIP3   OH253858   5.280   6.176   2.329 -0.9757 -0.3116 -0.3193
 9888TIP3    H153859   5.228   6.160   2.251 -1.4166  1.1284 -0.3365
 9888TIP3    H253860   5.359   6.221   2.297 -1.2923  0.5493  0.0821
 9889TIP3   OH253861   1.133   3.503   2.153  0.2428  0.2537  0.0009
 9889TIP3    H153862   1.046   3.541   2.167 -0.0103 -0.4287  0.3728
 9889TIP3    H253863   1.176   3.562   2.092 -0.3011  0.8785  0.2087
 9890TIP3   OH253864   2.411   6.785   1.314 -0.3257  0.3232 -0.1701
 9890TIP3    H153865   2.355   6.824   1.246 -0.4070  0.9415  0.2467
 9890TIP3    H253866   2.373   6.698   1.329 -0.6242  0.3868 -0.5372
 9891TIP3   OH253867   6.033   0.697   0.876 -0.3213 -0.4729 -0.4499
 9891TIP3    H153868   6.123   0.680   0.905 -0.8761 -0.7854  1.2217
 9891TIP3    H253869   6.014   0.625   0.815 -0.0560 -1.5321  0.6649
 9892TIP3   OH253870   0.279   4.692   0.973 -0.8676  0.4088  0.5336
 9892TIP3    H153871   0.334   4.769   0.989 -0.2024  0.2531 -0.8611
 9892TIP3    H253872   0.305   4.661   0.887 -1.0103 -1.5037  1.1313
 9893TIP3   OH253873   3.174   1.787   2.091 -0.4287  0.4181 -0.5453
 9893TIP3    H153874   3.119   1.856   2.127 -1.4204  0.2143 -1.6036
 9893TIP3    H253875   3.201   1.820   2.005  1.7257  0.8145  0.2054
 9894TIP3   OH253876   0.170   2.774   1.490 -0.2419 -0.2032  0.1467
 9894TIP3    H153877   0.226   2.697   1.482 -0.5220 -0.2378 -2.3447
 9894TIP3    H253878   0.085   2.745   1.456 -0.4877  1.0350 -0.3387
 9895TIP3   OH253879   5.289   6.473   1.734  0.3805  0.1008  1.0393
 9895TIP3    H153880   5.345   6.410   1.688 -0.7897  0.7313 -1.3550
 9895TIP3    H253881   5.349   6.540   1.765  1.5386 -1.6451  2.8771
 9896TIP3   OH253882   4.383   3.017   1.676 -0.2080 -0.0160  0.2385
 9896TIP3    H153883   4.326   2.942   1.659  0.9897 -0.8744 -0.0478
 9896TIP3    H253884   4.405   3.009   1.769 -1.8508  1.2610  0.7926
 9897TIP3   OH253885   6.190   1.439   0.656 -0.0296 -0.3854  0.1834
 9897TIP3    H153886   6.181   1.429   0.750 -0.7997  1.7094  0.3997
 9897TIP3    H253887   6.278   1.408   0.636  1.0689  1.3014  1.9883
 9898TIP3   OH253888   4.582   0.606   3.210  0.9253  0.0577  0.2763
 9898TIP3    H153889   4.533   0.677   3.251  0.1724 -1.4307  2.0706
 9898TIP3    H253890   4.566   0.530   3.265  0.2428 -1.9893 -2.5106
 9899TIP3   OH253891   5.400   4.814   2.500 -0.2775  0.1997  0.1283
 9899TIP3    H153892   5.435   4.895   2.537  0.0439  0.3510 -0.4924
 9899TIP3    H253893   5.331   4.842   2.440 -0.6582 -0.0337  0.4484
 9900TIP3   OH253894   5.572   4.307   2.035 -0.2078 -0.2980  0.0458
 9900TIP3    H153895   5.583   4.261   2.118  0.1091 -1.7699 -0.7857
 9900TIP3    H253896   5.646   4.280   1.981 -1.0740 -0.3694 -1.1636
 9901TIP3   OH253897   1.217   7.411   2.198 -0.5207 -0.0038  0.3072
 9901TIP3    H153898   1.160   7.381   2.269 -1.0701 -0.4798 -0.3144
 9901TIP3    H253899   1.157   7.446   2.132 -0.0984 -0.4889 -0.3531
 9902TIP3   OH253900   4.246   5.407   1.163  0.0324 -0.0791  0.4003
 9902TIP3    H153901   4.212   5.343   1.225 -0.2326  1.4830  1.9346
 9902TIP3    H253902   4.193   5.485   1.176 -1.0976 -0.1275 -2.9491
 9903TIP3   OH253903   1.384   3.368   2.708  0.2565 -0.1143 -0.6500
 9903TIP3    H153904   1.451   3.301   2.696  0.0372 -0.5328  0.3610
 9903TIP3    H253905   1.425   3.433   2.765 -0.0502 -0.1445 -0.3956
 9904TIP3   OH253906   4.313   7.186   0.615  0.0343  0.1087 -0.3483
 9904TIP3    H153907   4.324   7.261   0.673 -0.2669  0.1569 -0.3501
 9904TIP3    H253908   4.292   7.224   0.530 -1.2352  0.0127 -0.1062
 9905TIP3   OH253909   6.621   5.803   3.576 -0.4988  0.7497  0.6737
 9905TIP3    H153910   6.566   5.880   3.592 -0.1584  0.9695  0.7813
 9905TIP3    H253911   6.568   5.748   3.518 -1.0135  0.7595  1.1244
 9906TIP3   OH253912   1.413   6.432   1.484 -0.2009  0.4529  0.4279
 9906TIP3    H153913   1.474   6.493   1.442 -0.4832  1.3803  1.3342
 9906TIP3    H253914   1.470   6.367   1.526  0.1247  0.5984  0.2194
 9907TIP3   OH253915   0.472   6.280   2.720 -0.0141 -0.1143 -1.1151
 9907TIP3    H153916   0.411   6.213   2.688  1.0217 -0.5850 -2.1691
 9907TIP3    H253917   0.458   6.281   2.815 -0.1500 -1.7523 -1.0847
 9908TIP3   OH253918   7.443   6.810   2.484 -0.0818  0.3625  0.2867
 9908TIP3    H153919   7.523   6.840   2.441 -0.2848  0.7970  0.2024
 9908TIP3    H253920   7.411   6.739   2.429  0.6342 -0.3187  0.7131
 9909TIP3   OH253921   1.691   2.450   2.986  0.0660  0.1424 -0.3413
 9909TIP3    H153922   1.764   2.469   2.927 -0.0162  1.3470 -0.0930
 9909TIP3    H253923   1.619   2.425   2.928  0.8683 -1.8851 -0.5504
 9910TIP3   OH253924   2.229   4.900   3.011  0.4464  0.0876 -0.2470
 9910TIP3    H153925   2.186   4.872   3.092  1.2070 -0.6193 -0.0647
 9910TIP3    H253926   2.162   4.948   2.964  0.8632  3.4632  2.2388
 9911TIP3   OH253927   7.288   6.694   2.694 -0.1139 -0.6145  0.2097
 9911TIP3    H153928   7.346   6.754   2.645 -0.5041 -0.5982 -0.2401
 9911TIP3    H253929   7.344   6.659   2.763  1.2624 -2.6948 -1.8109
 9912TIP3   OH253930   7.039   0.001   0.695  0.2328 -0.4934 -0.1252
 9912TIP3    H153931   7.084  -0.023   0.776  2.4498 -0.0108 -1.1403
 9912TIP3    H253932   6.975  -0.069   0.681  1.3151 -1.7389  0.9233
 9913TIP3   OH253933   1.755   6.231   0.864  1.0117  0.1312  0.3133
 9913TIP3    H153934   1.681   6.265   0.815  0.9818 -0.0676  0.2223
 9913TIP3    H253935   1.766   6.141   0.833  1.7003  0.3662 -0.1539
 9914TIP3   OH253936   3.550   5.106   2.287  0.4175 -0.2450 -0.0850
 9914TIP3    H153937   3.483   5.122   2.220  1.3804 -2.5956 -1.7463
 9914TIP3    H253938   3.506   5.050   2.351  0.0996  0.3199  0.2074
 9915TIP3   OH253939   6.625   5.803   1.190 -0.5139  0.4537  0.2761
 9915TIP3    H153940   6.694   5.737   1.179 -1.3258 -0.4954  0.6934
 9915TIP3    H253941   6.667   5.874   1.239 -0.4542 -1.2249  2.8270
 9916TIP3   OH253942   1.780   3.325   3.417  0.6677  0.1597 -0.1904
 9916TIP3    H153943   1.850   3.303   3.479  1.3186 -1.1292 -1.3274
 9916TIP3    H253944   1.801   3.275   3.339 -1.2299  0.1884 -0.7650
 9917TIP3   OH253945   1.186   7.044   2.806  1.0159 -0.1294  0.1187
 9917TIP3    H153946   1.106   7.088   2.779  1.8232  0.3375 -1.7010
 9917TIP3    H253947   1.162   6.952   2.813  0.6824 -0.2789 -2.2346
 9918TIP3   OH253948   4.099   1.614   1.626 -0.1815 -0.2862 -0.0494
 9918TIP3    H153949   4.160   1.540   1.618  2.3749  1.6082  0.6995
 9918TIP3    H253950   4.056   1.599   1.710  1.6856 -0.0367  1.0065
 9919TIP3   OH253951   6.508   0.286   2.944 -0.6787  0.1292 -0.1402
 9919TIP3    H153952   6.541   0.375   2.955 -0.5771 -0.1121  2.0351
 9919TIP3    H253953   6.418   0.297   2.911 -0.1737  0.9509 -1.3044
 9920TIP3   OH253954   0.673   2.138   1.813 -0.2243 -0.1824 -0.2869
 9920TIP3    H153955   0.708   2.180   1.891 -0.0404  1.1933 -1.0797
 9920TIP3    H253956   0.647   2.050   1.842 -0.2160  0.3203  1.3173
 9921TIP3   OH253957   0.273   6.129   1.470  0.1636  0.0733  0.1204
 9921TIP3    H153958   0.261   6.036   1.452  2.4031 -0.0383 -1.1300
 9921TIP3    H253959   0.367   6.139   1.483 -0.1448  2.0296  1.2010
 9922TIP3   OH253960   3.606   4.750   1.723 -0.5443 -0.3004  0.1035
 9922TIP3    H153961   3.527   4.696   1.711 -1.8077  1.5944 -0.4427
 9922TIP3    H253962   3.617   4.755   1.818 -0.3063 -1.6045  0.1671
 9923TIP3   OH253963   2.117   0.723   1.446  0.3500 -0.8770  0.0350
 9923TIP3    H153964   2.032   0.699   1.481  0.8448 -1.8687  0.6085
 9923TIP3    H253965   2.176   0.652   1.474  1.7970  0.7650  1.4116
 9924TIP3   OH253966   3.312   4.167   2.150 -0.1701  0.2457  0.5041
 9924TIP3    H153967   3.262   4.092   2.181 -0.6197  1.0999  1.9321
 9924TIP3    H253968   3.353   4.203   2.229  0.2329  1.3644 -0.1945
 9925TIP3   OH253969   7.666   4.096   1.003 -0.7087 -0.1025 -0.1128
 9925TIP3    H153970   7.672   4.069   0.912  0.3900 -1.7251  0.3959
 9925TIP3    H253971   7.581   4.141   1.009 -2.0588 -2.2965 -1.3747
 9926TIP3   OH253972   6.799   1.626   2.001 -0.1097  0.5128 -0.5202
 9926TIP3    H153973   6.801   1.578   1.918 -0.1237  1.7707 -1.2756
 9926TIP3    H253974   6.794   1.718   1.976 -0.2236  0.9233  0.8869
 9927TIP3   OH253975   4.581   3.653   0.431  0.1354  0.3946 -0.9534
 9927TIP3    H153976   4.518   3.713   0.471  1.7968  0.9311  1.0012
 9927TIP3    H253977   4.543   3.566   0.442  1.0908  0.2968  3.3455
 9928TIP3   OH253978   3.726   6.621   1.518 -0.2946  0.2479  0.1458
 9928TIP3    H153979   3.719   6.592   1.609  0.5051  1.4981  0.6353
 9928TIP3    H253980   3.635   6.634   1.491 -0.5314  2.2030  1.5977
 9929TIP3   OH253981   6.990   5.667   2.006  0.5280  0.2166 -0.2656
 9929TIP3    H153982   7.057   5.598   2.000  0.2607  0.0452 -1.5729
 9929TIP3    H253983   6.946   5.650   2.089  0.7814 -0.9086 -0.3458
 9930TIP3   OH253984   1.747   7.483   2.119  0.1634 -0.1673  0.1821
 9930TIP3    H153985   1.720   7.573   2.101 -0.6721 -0.0787  1.6811
 9930TIP3    H253986   1.666   7.436   2.133  0.5596 -0.0785  3.9805
 9931TIP3   OH253987   5.629   5.099   0.740 -0.1472 -0.1789 -0.0176
 9931TIP3    H153988   5.689   5.045   0.791 -1.5213  0.3287  2.2728
 9931TIP3    H253989   5.598   5.165   0.801 -3.5210 -0.8092 -0.8407
 9932TIP3   OH253990   7.635   4.211   2.852  0.0620 -0.4279  0.1002
 9932TIP3    H153991   7.656   4.259   2.932  0.5089 -0.6008  0.0932
 9932TIP3    H253992   7.696   4.246   2.787  0.0513 -0.6517 -0.0315
 9933TIP3   OH253993   6.279   3.557   0.903  0.5602 -0.3567  0.0167
 9933TIP3    H153994   6.325   3.610   0.968 -0.9374  0.5778  0.3748
 9933TIP3    H253995   6.256   3.619   0.833 -1.4823 -0.3937  0.5852
 9934TIP3   OH253996   1.081   6.138   1.529 -0.4064  0.5841  0.4914
 9934TIP3    H153997   1.134   6.201   1.578 -0.2039 -0.2053  1.3095
 9934TIP3    H253998   1.143   6.091   1.474 -0.0600 -0.9177  2.0587
 9935TIP3   OH253999   2.980   2.000   2.517 -0.0759 -1.0188 -0.1811
 9935TIP3    H154000   3.070   1.973   2.534 -0.3676 -1.7362  0.2207
 9935TIP3    H254001   2.966   1.979   2.424 -0.5347 -2.9847  0.2874
 9936TIP3   OH254002   7.490   3.768   3.331  0.1673 -0.6296  0.4320
 9936TIP3    H154003   7.469   3.730   3.417  0.5051 -1.3025  0.2284
 9936TIP3    H254004   7.542   3.700   3.287  1.0737  0.1967  0.1737
 9937TIP3   OH254005   3.997   2.470   2.929  0.0545  0.2147  0.4425
 9937TIP3    H154006   3.965   2.396   2.979  0.0471 -1.0655 -1.3413
 9937TIP3    H254007   3.923   2.530   2.923 -1.1524 -1.3137 -1.0742
 9938TIP3   OH254008   2.056   1.807   2.145 -0.7596  0.2979 -0.1242
 9938TIP3    H154009   2.028   1.718   2.165 -0.2223  0.4670  1.5050
 9938TIP3    H254010   1.999   1.834   2.073  0.2118 -1.9518 -1.8716
 9939TIP3   OH254011   0.666   2.590   0.363  0.4546 -0.7140  0.0581
 9939TIP3    H154012   0.677   2.682   0.385 -0.8787 -0.2319 -1.1340
 9939TIP3    H254013   0.635   2.549   0.443  0.9258 -0.1007  0.5594
 9940TIP3   OH254014   1.849   4.024   2.085  0.5218  0.3328  0.3337
 9940TIP3    H154015   1.860   4.095   2.148  0.2344  0.4304  0.2723
 9940TIP3    H254016   1.875   4.062   2.001  1.4626  0.0423  0.4709
 9941TIP3   OH254017   0.941   5.114   3.164 -0.5631 -0.1584  0.2773
 9941TIP3    H154018   0.937   5.051   3.092  0.1643 -0.7516  0.7464
 9941TIP3    H254019   0.900   5.193   3.128  1.3116  0.1400 -1.3701
 9942TIP3   OH254020   1.518   5.429   2.866  0.2417 -0.1164  0.1821
 9942TIP3    H154021   1.432   5.424   2.823  0.9067 -1.2279 -1.0869
 9942TIP3    H254022   1.567   5.492   2.814  0.5813 -0.3741  0.1909
 9943TIP3   OH254023   2.904   7.648   1.692  0.2809 -0.0367  0.3096
 9943TIP3    H154024   2.949   7.731   1.709 -1.6912  1.1196  0.1999
 9943TIP3    H254025   2.895   7.608   1.778 -0.4140  0.7884  0.6389
 9944TIP3   OH254026   2.655   2.240   1.821 -0.3832  0.2864  0.1397
 9944TIP3    H154027   2.738   2.247   1.869 -0.3965  0.1507  0.1825
 9944TIP3    H254028   2.590   2.278   1.879 -0.6618 -1.2575  0.8843
 9945TIP3   OH254029   0.254   4.413   1.458 -0.3698  0.8605 -0.1795
 9945TIP3    H154030   0.295   4.418   1.372 -0.0616 -3.1362 -0.4210
 9945TIP3    H254031   0.186   4.480   1.455  0.1207  1.3745 -3.2385
 9946TIP3   OH254032   2.573   3.630   1.314  0.2903 -0.0132  0.3942
 9946TIP3    H154033   2.554   3.538   1.297  4.4062 -0.6878 -1.6872
 9946TIP3    H254034   2.538   3.676   1.238  1.5458 -0.4528 -0.4882
 9947TIP3   OH254035   0.156   7.379   1.153  0.3432  0.6940 -0.6924
 9947TIP3    H154036   0.227   7.425   1.108  0.1928  1.4838 -0.1550
 9947TIP3    H254037   0.164   7.407   1.245  0.0601 -0.1275 -0.4060
 9948TIP3   OH254038   1.364   4.436   1.993 -0.0361  0.1428 -0.1458
 9948TIP3    H154039   1.457   4.426   2.011 -0.4088  0.5021  2.3842
 9948TIP3    H254040   1.323   4.358   2.032 -0.7722 -0.2899 -1.7115
 9949TIP3   OH254041   0.624   5.999   1.690 -0.1187 -0.0012  0.2216
 9949TIP3    H154042   0.659   6.006   1.779 -1.5875  0.2272  0.7996
 9949TIP3    H254043   0.698   6.022   1.634  1.5750 -2.5312  1.2480
 9950TIP3   OH254044   3.449   0.673   2.040 -0.5686 -0.4205  0.0336
 9950TIP3    H154045   3.465   0.764   2.013 -0.2154 -0.2667  0.7512
 9950TIP3    H254046   3.432   0.679   2.134  0.6153 -1.2250  0.3192
 9951TIP3   OH254047   6.746   6.344   2.827  0.0272  0.7133  0.2978
 9951TIP3    H154048   6.733   6.251   2.848 -0.3601  0.5440 -0.6409
 9951TIP3    H254049   6.815   6.372   2.887  0.9350 -0.4636 -0.1553
 9952TIP3   OH254050   1.208   4.158   1.120 -0.6236 -0.1054 -0.4639
 9952TIP3    H154051   1.170   4.118   1.042  0.3606  1.2634 -1.7037
 9952TIP3    H254052   1.303   4.154   1.105 -0.3506 -0.9518  1.2736
 9953TIP3   OH254053   3.995   3.097   1.957  0.5431  0.2109 -0.1734
 9953TIP3    H154054   4.060   3.135   1.898  1.3369  0.2217  0.6892
 9953TIP3    H254055   4.020   3.127   2.044 -1.9166  2.0391 -0.0114
 9954TIP3   OH254056   4.285   2.394   1.835  0.2733  0.1645 -0.4293
 9954TIP3    H154057   4.267   2.392   1.741  0.4778 -0.2108 -0.4646
 9954TIP3    H254058   4.354   2.328   1.847  0.0120 -0.0237  0.0364
 9955TIP3   OH254059   6.353   7.320   2.536 -0.5777 -0.1742 -1.0251
 9955TIP3    H154060   6.286   7.269   2.581 -0.1813  0.0200 -0.1829
 9955TIP3    H254061   6.375   7.390   2.598 -0.4781  0.4887 -1.7990
 9956TIP3   OH254062   4.697   0.170   0.450  0.1652 -0.1487 -0.1151
 9956TIP3    H154063   4.679   0.158   0.357  0.2058 -0.3448 -0.0978
 9956TIP3    H254064   4.781   0.127   0.464 -2.0830 -4.7704  1.0411
 9957TIP3   OH254065   7.354   5.536   1.605  0.0534  0.2746 -0.3055
 9957TIP3    H154066   7.435   5.582   1.584  1.1528 -0.3945  2.1712
 9957TIP3    H254067   7.306   5.595   1.663  1.7328 -1.6308  3.3694
 9958TIP3   OH254068   1.549   5.703   0.891 -0.0393 -0.8839 -0.5661
 9958TIP3    H154069   1.493   5.668   0.961 -1.0199  0.8473 -0.4398
 9958TIP3    H254070   1.617   5.752   0.937 -1.3299  1.2127 -0.7722
 9959TIP3   OH254071   3.685   1.574   1.981  0.4806 -0.1100 -0.0043
 9959TIP3    H154072   3.661   1.522   2.058 -0.8849 -0.8448 -0.9067
 9959TIP3    H254073   3.677   1.665   2.011 -0.2609 -0.3832  0.6532
 9960TIP3   OH254074   0.091   7.250   1.583  0.2135 -0.0207  0.0792
 9960TIP3    H154075   0.107   7.157   1.601 -1.7721 -0.4599 -0.2060
 9960TIP3    H254076  -0.001   7.253   1.556  0.5068  1.9034 -0.8322
 9961TIP3   OH254077   5.534   0.481   3.381  0.1810 -0.6813  0.3446
 9961TIP3    H154078   5.627   0.490   3.402  0.1763 -0.9499  0.4899
 9961TIP3    H254079   5.531   0.408   3.318 -0.0995 -1.8561  1.6663
 9962TIP3   OH254080   0.423   0.735   2.177 -0.1873 -0.0704  0.5887
 9962TIP3    H154081   0.362   0.730   2.103  1.6057 -1.1869 -0.8957
 9962TIP3    H254082   0.420   0.827   2.204 -2.3008 -0.0338  0.4210
 9963TIP3   OH254083   2.882   4.573   1.812 -0.0886 -0.3338 -0.4587
 9963TIP3    H154084   2.940   4.531   1.749 -1.3875 -1.1752 -1.1303
 9963TIP3    H254085   2.886   4.666   1.791 -0.4139 -0.5937 -1.7197
 9964TIP3   OH254086   2.673   6.678   1.349  0.0135 -0.1503 -0.0958
 9964TIP3    H154087   2.703   6.659   1.259 -0.5648  0.4699 -0.4275
 9964TIP3    H254088   2.584   6.710   1.338  0.9512  2.9924  0.3702
 9965TIP3   OH254089   3.506   5.021   2.957 -0.1041  0.3844 -0.3326
 9965TIP3    H154090   3.537   4.957   2.892  1.2296  0.9681 -0.3109
 9965TIP3    H254091   3.585   5.067   2.985 -0.4353 -0.6403  2.6093
 9966TIP3   OH254092   6.233   2.704   1.879  0.2519  0.6069  0.3681
 9966TIP3    H154093   6.181   2.725   1.802  0.0532  0.6717  0.5179
 9966TIP3    H254094   6.194   2.625   1.915  0.1370  0.7619  0.5889
 9967TIP3   OH254095   7.169   4.063   2.439 -0.1158  0.3796  0.0564
 9967TIP3    H154096   7.216   3.992   2.484 -1.1397 -1.0867 -1.0826
 9967TIP3    H254097   7.224   4.085   2.364 -0.6835 -0.6187 -0.6901
 9968TIP3   OH254098   1.456   3.097   2.597 -0.0875  0.3074  0.3584
 9968TIP3    H154099   1.516   3.099   2.523  0.1706 -1.9489  0.4078
 9968TIP3    H254100   1.378   3.052   2.564 -0.4340  0.3092  1.1329
 9969TIP3   OH254101   0.930   6.630   2.906 -0.0479 -0.7636 -0.1392
 9969TIP3    H154102   0.861   6.568   2.883  0.8866 -2.1261  0.5837
 9969TIP3    H254103   0.987   6.581   2.966  2.9327 -0.6422 -2.5925
 9970TIP3   OH254104   6.906   7.592   3.072 -0.5377  0.2974 -0.3984
 9970TIP3    H154105   6.848   7.668   3.059 -2.0784 -0.7881 -0.1388
 9970TIP3    H254106   6.936   7.570   2.984 -0.5944  0.8051 -0.5526
 9971TIP3   OH254107   7.153   3.050   2.572 -0.2764  0.0473 -0.5064
 9971TIP3    H154108   7.151   3.138   2.609  1.1328  0.1003 -0.4917
 9971TIP3    H254109   7.171   3.064   2.479  4.1311 -0.2226  0.0774
 9972TIP3   OH254110   4.856   4.137   1.445  0.7956  0.0785  0.0879
 9972TIP3    H154111   4.776   4.095   1.415  0.9064  0.5792 -0.9354
 9972TIP3    H254112   4.899   4.070   1.498 -0.1370 -0.3052  0.3894
 9973TIP3   OH254113   2.727   1.830   0.569 -0.2357 -0.1313  0.5289
 9973TIP3    H154114   2.726   1.875   0.484 -0.4658 -0.0854  0.5541
 9973TIP3    H254115   2.813   1.850   0.606  0.1256 -0.7094  0.0141
 9974TIP3   OH254116   7.330   0.189   0.835 -0.4230  0.0759 -0.0386
 9974TIP3    H154117   7.385   0.141   0.774  1.1276  1.9525 -0.2080
 9974TIP3    H254118   7.363   0.166   0.922 -0.5197 -0.1413 -0.0600
 9975TIP3   OH254119   6.836   4.143   1.866 -0.0144  0.3173  0.6342
 9975TIP3    H154120   6.823   4.088   1.789  2.3808  0.5585 -0.0474
 9975TIP3    H254121   6.753   4.189   1.878 -1.2077 -1.5015 -0.3358
 9976TIP3   OH254122   3.540   2.303   1.652 -1.3399  0.1229 -0.0558
 9976TIP3    H154123   3.540   2.373   1.718 -0.9378  0.8303 -0.7874
 9976TIP3    H254124   3.459   2.315   1.604 -0.7342  0.8359 -0.9356
 9977TIP3   OH254125   6.310   2.683   0.819 -0.4108  0.4939  0.6315
 9977TIP3    H154126   6.405   2.697   0.818 -0.6018  2.0327  0.9499
 9977TIP3    H254127   6.279   2.736   0.892 -1.3389 -1.5618  1.8209
 9978TIP3   OH254128   0.083   3.392   3.479 -0.1993 -0.3155 -0.0993
 9978TIP3    H154129   0.162   3.440   3.505  0.0161 -1.4168  1.4393
 9978TIP3    H254130   0.066   3.333   3.553 -0.9555 -1.9826 -1.5403
 9979TIP3   OH254131   1.733   6.425   1.282 -0.0785  0.2314  0.1336
 9979TIP3    H154132   1.685   6.344   1.265  1.6897 -0.8246  0.0365
 9979TIP3    H254133   1.738   6.431   1.378  0.5285 -0.2238  0.1305
 9980TIP3   OH254134   1.611   3.216   2.021 -0.0531  0.2874  0.1702
 9980TIP3    H154135   1.533   3.203   1.968  0.1839  0.8331 -0.3208
 9980TIP3    H254136   1.665   3.276   1.970 -0.5667  2.2111  1.7739
 9981TIP3   OH254137   5.357   4.372   2.576 -0.1661  0.8593 -0.3208
 9981TIP3    H154138   5.317   4.422   2.647 -0.2698 -1.1503  1.1279
 9981TIP3    H254139   5.373   4.437   2.507  0.4903  3.0411  1.7294
 9982TIP3   OH254140   3.183   4.256   1.529 -0.8126 -0.3282 -0.0403
 9982TIP3    H154141   3.167   4.161   1.531 -0.1580 -0.4786 -1.0584
 9982TIP3    H254142   3.247   4.268   1.459  0.9773  0.6322  1.6642
 9983TIP3   OH254143   4.821   5.087   1.035 -0.6444  0.4345  0.4206
 9983TIP3    H154144   4.789   5.030   1.106  0.9862 -0.8505  0.1807
 9983TIP3    H254145   4.757   5.074   0.964 -1.5943  0.7602  1.1961
 9984TIP3   OH254146   1.371   1.662   2.738  0.6328 -0.4948  0.0388
 9984TIP3    H154147   1.428   1.621   2.804  1.3950 -2.1963 -1.5808
 9984TIP3    H254148   1.429   1.680   2.664 -0.1399  1.6930 -0.0944
 9985TIP3   OH254149   2.359   1.008   2.407  0.2111 -0.3571  0.0036
 9985TIP3    H154150   2.419   1.041   2.474  0.3893  1.1268 -0.8621
 9985TIP3    H254151   2.374   1.064   2.331 -0.2818 -1.7496 -1.1628
 9986TIP3   OH254152   6.795   4.946   1.080  0.2347  0.2118 -0.5822
 9986TIP3    H154153   6.732   4.893   1.032 -1.8895  0.1471  2.0178
 9986TIP3    H254154   6.838   4.884   1.140  0.5597  0.7665 -0.2276
 9987TIP3   OH254155   7.129   3.337   2.298  0.3822  0.5622  0.0548
 9987TIP3    H154156   7.047   3.288   2.300  0.4603  0.4524  1.0276
 9987TIP3    H254157   7.105   3.425   2.325  0.3674  0.8773 -0.9682
 9988TIP3   OH254158   5.120   7.479   2.059  0.2972  0.2045  0.1397
 9988TIP3    H154159   5.026   7.491   2.073 -0.2642 -0.7921 -2.3755
 9988TIP3    H254160   5.145   7.409   2.120 -0.6801  0.1771  0.5212
 9989TIP3   OH254161   1.628   1.305   1.882  0.2871 -0.1699  0.0025
 9989TIP3    H154162   1.641   1.221   1.926  0.1527  0.7019  1.7931
 9989TIP3    H254163   1.544   1.337   1.915  1.1253  1.4352  0.7112
 9990TIP3   OH254164   5.665   0.559   2.307  0.1867  0.1008  0.1915
 9990TIP3    H154165   5.672   0.463   2.314  1.6747  0.1782  0.0900
 9990TIP3    H254166   5.715   0.592   2.382 -0.3277  0.8076  0.2334
 9991TIP3   OH254167   2.161   1.237   1.262 -0.4699 -0.1481 -0.1651
 9991TIP3    H154168   2.185   1.326   1.237  1.7083 -0.6364 -0.0041
 9991TIP3    H254169   2.089   1.214   1.203 -0.1144  1.2094 -1.1785
 9992TIP3   OH254170   0.902   3.937   3.522 -0.2185  0.3540  0.2255
 9992TIP3    H154171   0.944   3.854   3.544 -1.2882 -0.5662 -1.0311
 9992TIP3    H254172   0.960   3.977   3.457  1.0280  1.3042  1.8660
 9993TIP3   OH254173   7.630   4.884   1.310 -0.1673 -0.0093 -0.0556
 9993TIP3    H154174   7.535   4.881   1.298 -0.3748  0.2403  1.3052
 9993TIP3    H254175   7.660   4.948   1.246 -0.8485 -0.4366 -0.8224
 9994TIP3   OH254176   2.398   4.398   1.284  0.4824  0.3710 -0.2375
 9994TIP3    H154177   2.433   4.322   1.237 -0.0581  0.2862 -0.5060
 9994TIP3    H254178   2.315   4.368   1.320  0.0855  0.9469 -0.6547
 9995TIP3   OH254179   5.961   3.973   2.339  0.1091 -0.0218  0.1912
 9995TIP3    H154180   6.020   4.016   2.401 -1.9009  0.2552  2.0502
 9995TIP3    H254181   5.918   4.045   2.293 -0.5109 -0.1222  0.5982
 9996TIP3   OH254182   3.127   1.978   1.849 -0.1046  0.1373  0.1035
 9996TIP3    H154183   3.032   1.968   1.854 -0.1469 -0.9989 -1.9869
 9996TIP3    H254184   3.144   2.001   1.758  1.5826  1.2511  0.6518
 9997TIP3   OH254185   5.501   7.217   2.205 -0.0749  0.0856  0.3310
 9997TIP3    H154186   5.427   7.217   2.266 -0.4327  0.2741 -0.0922
 9997TIP3    H254187   5.578   7.202   2.259 -0.1606  2.1624  1.1032
 9998TIP3   OH254188   3.338   1.568   2.092 -0.7176 -0.1459 -0.4463
 9998TIP3    H154189   3.285   1.646   2.104 -0.3833  0.3551 -1.9579
 9998TIP3    H254190   3.357   1.566   1.998 -0.2820 -1.7608 -0.3627
 9999TIP3   OH254191   6.078   2.149   2.691  0.3032  0.1055  0.2895
 9999TIP3    H154192   6.120   2.070   2.725  0.4180  0.4424  0.9464
 9999TIP3    H254193   6.054   2.199   2.769 -0.8781  0.1553 -0.0830
10000TIP3   OH254194   6.125   4.265   3.291  0.1050  0.1387 -0.0059
10000TIP3    H154195   6.105   4.184   3.338  1.5038 -0.6145 -0.6103
10000TIP3    H254196   6.049   4.280   3.235 -0.7854  0.0434  1.1391
10001TIP3   OH254197   6.829   0.243   0.488  0.1622 -0.3880  0.2590
10001TIP3    H154198   6.766   0.316   0.479 -0.3779 -1.1004 -3.7440
10001TIP3    H254199   6.777   0.171   0.523 -0.0571  0.2923  1.3753
10002TIP3   OH254200   6.006   2.979   0.806  0.0764 -0.1232 -0.2311
10002TIP3    H154201   6.080   2.997   0.748  0.3681 -0.7972 -0.0821
10002TIP3    H254202   5.968   2.898   0.772 -0.3912  0.0337 -0.0999
10003TIP3   OH254203   0.527   0.789   0.734  0.0135  0.2409  0.0956
10003TIP3    H154204   0.491   0.796   0.645 -0.5629  1.0160  0.3771
10003TIP3    H254205   0.473   0.722   0.776  0.1053  0.0742 -0.0516
10004TIP3   OH254206   6.068   6.310   1.663  0.4627 -0.0165  0.0106
10004TIP3    H154207   5.985   6.358   1.660  2.1571  3.1110 -1.3540
10004TIP3    H254208   6.042   6.218   1.664 -3.0013  0.8080 -0.5385
10005TIP3   OH254209   4.414   2.111   0.618 -0.0473 -0.0999 -0.2807
10005TIP3    H154210   4.498   2.135   0.659  0.5226 -0.3185 -1.2864
10005TIP3    H254211   4.374   2.195   0.596  1.8724  0.0979 -3.6497
10006TIP3   OH254212   6.756   1.875   1.930 -0.0494 -0.0231  0.3403
10006TIP3    H154213   6.689   1.940   1.951 -1.0475 -0.9941  0.2500
10006TIP3    H254214   6.839   1.922   1.937 -0.5747  0.6716  2.6145
10007TIP3   OH254215   4.339   6.396   0.791  0.0695  0.1295 -0.6483
10007TIP3    H154216   4.416   6.346   0.763  0.3755 -0.8309  1.6327
10007TIP3    H254217   4.266   6.334   0.781  0.0824  0.0053 -0.0186
10008TIP3   OH254218   4.992   0.613   1.467  0.0021 -0.7686  0.6854
10008TIP3    H154219   4.942   0.658   1.398 -1.5079 -1.8451  1.0366
10008TIP3    H254220   5.082   0.645   1.455 -0.6109  0.6932 -0.4163
10009TIP3   OH254221   6.423   5.062   2.168 -0.4678 -0.1581  0.6461
10009TIP3    H154222   6.504   5.109   2.188 -1.0003  0.2088  2.1057
10009TIP3    H254223   6.433   4.978   2.213  0.0855 -1.1264 -1.1744
10010TIP3   OH254224   1.693   2.558   3.525 -0.0423  0.1539  0.8498
10010TIP3    H154225   1.781   2.558   3.488  0.7107  1.0505  2.5122
10010TIP3    H254226   1.686   2.473   3.569 -0.3963 -0.3166 -0.0900
10011TIP3   OH254227   7.180   3.042   1.571  0.1280  0.2025  0.1101
10011TIP3    H154228   7.263   3.084   1.591 -0.6811  1.9004  0.1077
10011TIP3    H254229   7.139   3.100   1.507 -1.1538 -0.4687  0.2894
10012TIP3   OH254230   2.578   1.481   2.332 -0.3145  0.1997 -0.1782
10012TIP3    H154231   2.644   1.444   2.274 -0.8759 -0.0713 -0.6566
10012TIP3    H254232   2.601   1.574   2.338  0.1611  0.0898 -0.2655
10013TIP3   OH254233   3.763   6.981   0.834  0.0565 -0.0038  0.3033
10013TIP3    H154234   3.814   6.938   0.903  1.1473 -0.0456 -0.5048
10013TIP3    H254235   3.718   6.910   0.788 -0.3309 -0.0128  0.6893
10014TIP3   OH254236   0.658   3.116   2.178  0.4309  1.2982  0.1616
10014TIP3    H154237   0.704   3.037   2.150  0.0009  0.7108  1.0675
10014TIP3    H254238   0.724   3.185   2.171  1.6277  0.4098  1.8457
10015TIP3   OH254239   6.382   1.352   2.461 -0.1775 -0.4395  0.4499
10015TIP3    H154240   6.465   1.365   2.414 -0.8333  0.0871 -0.6166
10015TIP3    H254241   6.331   1.430   2.439 -0.0296  0.5475  3.1867
10016TIP3   OH254242   4.648   3.229   1.018 -0.5687 -0.9490  0.3048
10016TIP3    H154243   4.584   3.277   0.965  0.4784  1.5597  1.1770
10016TIP3    H254244   4.733   3.255   0.983  0.0618 -1.6667  1.2493
10017TIP3   OH254245   7.661   3.969   0.432  0.0964  0.0477  0.0882
10017TIP3    H154246   7.733   3.980   0.370 -0.6969 -1.9696 -1.3118
10017TIP3    H254247   7.677   3.885   0.474 -0.2220  0.6642  1.5312
10018TIP3   OH254248   3.727   2.847   2.239  0.2080 -0.3160  0.0756
10018TIP3    H154249   3.685   2.901   2.172  1.9790  0.6230 -0.3266
10018TIP3    H254250   3.722   2.899   2.319  1.8017  0.4481 -0.2840
10019TIP3   OH254251   2.166   1.257   2.695 -0.0362 -0.1225 -0.1568
10019TIP3    H154252   2.214   1.334   2.667  1.5192 -1.1145 -0.3108
10019TIP3    H254253   2.171   1.197   2.620 -0.3446 -0.7664  0.3230
10020TIP3   OH254254   6.603   6.578   0.686  0.2930 -0.9702  0.1812
10020TIP3    H154255   6.688   6.537   0.702  0.1922 -1.5192 -0.6222
10020TIP3    H254256   6.569   6.596   0.774  1.2837 -0.6225  0.5088
10021TIP3   OH254257   7.108   1.040   0.780 -0.1899 -0.0899  0.1508
10021TIP3    H154258   7.063   0.991   0.711  0.3795  0.8172 -0.8806
10021TIP3    H254259   7.182   1.081   0.736 -0.0818  0.8842  1.2133
10022TIP3   OH254260   0.095   0.173   2.251  0.3924  0.4286 -0.4735
10022TIP3    H154261   0.090   0.262   2.215 -1.4245  0.6212  0.1706
10022TIP3    H254262   0.007   0.155   2.282  1.1537 -0.9546  0.9978
10023TIP3   OH254263   2.702   5.574   1.263 -0.6571 -0.0254  0.2326
10023TIP3    H154264   2.638   5.623   1.211 -1.4266 -2.6831 -1.5171
10023TIP3    H254265   2.787   5.604   1.231 -1.1218 -1.0988 -2.1870
10024TIP3   OH254266   4.329   7.173   2.580  0.1492 -0.6887 -0.7137
10024TIP3    H154267   4.369   7.238   2.638 -0.5103 -0.1646 -0.8345
10024TIP3    H254268   4.384   7.095   2.590  0.2747 -0.4813  0.3119
10025TIP3   OH254269   2.595   6.773   1.787 -0.5351  0.0879  0.1796
10025TIP3    H154270   2.589   6.728   1.871  0.2028 -0.6257 -0.1248
10025TIP3    H254271   2.563   6.709   1.723  0.6051 -0.0588 -0.2719
10026TIP3   OH254272   1.291   1.384   1.522  0.5722 -0.2524 -0.2432
10026TIP3    H154273   1.199   1.411   1.521  0.6343 -0.0225 -1.6956
10026TIP3    H254274   1.340   1.465   1.516  0.8918 -0.3689  0.6337
10027TIP3   OH254275   5.472   7.510   0.401  0.1787 -0.4915  0.4076
10027TIP3    H154276   5.470   7.530   0.308  2.0067  0.0657  0.4547
10027TIP3    H254277   5.388   7.543   0.434 -0.1153  0.1100 -0.8689
10028TIP3   OH254278   5.989   1.384   0.879  0.7792 -0.3275  0.0324
10028TIP3    H154279   6.032   1.320   0.822 -0.2563  0.1023 -1.2671
10028TIP3    H254280   5.900   1.392   0.844  0.4496  0.7681  1.0526
10029TIP3   OH254281   5.371   7.333   1.439 -0.3150 -0.3845 -0.1502
10029TIP3    H154282   5.349   7.317   1.531  0.6627 -1.6063 -0.1015
10029TIP3    H254283   5.346   7.252   1.394 -0.1747 -0.0449 -0.8504
10030TIP3   OH254284   4.841   4.849   0.745  0.2150  0.6078  0.5581
10030TIP3    H154285   4.834   4.754   0.755 -0.6202  0.7945  2.1060
10030TIP3    H254286   4.935   4.866   0.740  0.3501 -0.4972 -2.5397
10031TIP3   OH254287   0.439   7.170   0.505  0.0290 -0.3208  0.3451
10031TIP3    H154288   0.457   7.207   0.418  0.3095 -0.0888  0.4985
10031TIP3    H254289   0.490   7.225   0.565  0.3634 -0.8919  0.5937
10032TIP3   OH254290   7.584   1.973   2.195 -0.1085  0.1952 -0.2618
10032TIP3    H154291   7.532   1.970   2.275  2.1898 -2.6746  1.3137
10032TIP3    H254292   7.659   2.029   2.217  0.9484 -1.2490 -0.0260
10033TIP3   OH254293   0.233   3.195   2.152  0.7062 -0.0753  0.0795
10033TIP3    H154294   0.305   3.243   2.111  0.6197 -0.1105 -0.1153
10033TIP3    H254295   0.275   3.140   2.218  0.7722  0.5004  0.5183
10034TIP3   OH254296   5.755   1.483   1.039 -0.5264  0.0835  0.1904
10034TIP3    H154297   5.760   1.457   0.947  1.7718  0.7354  0.0704
10034TIP3    H254298   5.706   1.566   1.038 -1.9111 -0.7124 -0.2177
10035TIP3   OH254299   7.123   7.632   1.830  0.5364 -0.0781 -0.0560
10035TIP3    H154300   7.201   7.673   1.792  0.8382 -0.6347 -0.0489
10035TIP3    H254301   7.153   7.597   1.914 -0.0396  0.8413  0.5535
10036TIP3   OH254302   5.389   1.976   2.171  0.1295  0.2633 -0.1967
10036TIP3    H154303   5.480   2.000   2.155  0.0355 -0.4453 -2.0461
10036TIP3    H254304   5.344   2.059   2.184  0.9196  0.6539  0.1282
10037TIP3   OH254305   6.220   6.175   3.147  0.1640  0.0384 -0.0311
10037TIP3    H154306   6.297   6.192   3.092 -0.9162  1.3029 -1.2051
10037TIP3    H254307   6.242   6.217   3.231  1.8318 -1.9251  0.6000
10038TIP3   OH254308   1.384   2.672   0.651  0.2140  0.0475 -0.0406
10038TIP3    H154309   1.475   2.655   0.675  0.1169  1.5201  1.5708
10038TIP3    H254310   1.368   2.763   0.677 -0.5976  1.2335 -3.9652
10039TIP3   OH254311   6.545   1.425   1.191 -0.3436  0.3518 -0.3485
10039TIP3    H154312   6.543   1.329   1.195 -1.3322  0.3583 -0.4083
10039TIP3    H254313   6.525   1.453   1.280 -0.4800  0.4935 -0.4226
10040TIP3   OH254314   5.336   4.721   2.817 -0.0157  0.4420 -0.4879
10040TIP3    H154315   5.253   4.754   2.782 -1.0347 -2.2220 -0.8323
10040TIP3    H254316   5.322   4.627   2.827  2.3903  0.1744  1.1834
10041TIP3   OH254317   2.257   3.214   1.285 -0.4691 -0.0485  0.2625
10041TIP3    H154318   2.208   3.147   1.333  1.9312 -0.9812  1.6147
10041TIP3    H254319   2.236   3.296   1.329 -0.4821 -0.4919  1.0974
10042TIP3   OH254320   1.289   1.401   1.028 -0.7740  0.1905  0.0025
10042TIP3    H154321   1.366   1.366   1.073 -2.5123 -0.8342  2.4179
10042TIP3    H254322   1.264   1.478   1.079 -1.2678  0.6230 -0.8652
10043TIP3   OH254323   0.062   2.332   0.920 -0.4969  0.0706 -0.6592
10043TIP3    H154324   0.045   2.340   1.014  0.3036 -0.8571 -0.4252
10043TIP3    H254325   0.018   2.408   0.881 -0.6417  0.5877  0.4829
10044TIP3   OH254326   6.844   3.939   1.657 -0.3746 -0.1596  0.2940
10044TIP3    H154327   6.885   3.893   1.731 -1.6533  0.8724  1.7162
10044TIP3    H254328   6.779   3.878   1.624  0.0707 -0.5569  0.1457
10045TIP3   OH254329   2.658   2.776   2.808 -0.7976 -0.3927  0.4833
10045TIP3    H154330   2.613   2.691   2.806 -1.3276 -0.1528 -2.7219
10045TIP3    H254331   2.746   2.755   2.840 -1.6784 -1.6557  2.2727
10046TIP3   OH254332   5.248   4.318   2.229 -0.1582  0.1801  0.0917
10046TIP3    H154333   5.241   4.413   2.241  0.2514  0.5838 -2.3240
10046TIP3    H254334   5.286   4.308   2.142  0.3255 -2.2225  0.5126
10047TIP3   OH254335   1.706   5.753   2.337  0.6365  0.3417 -0.6363
10047TIP3    H154336   1.648   5.747   2.262  0.3412 -0.8567 -0.3333
10047TIP3    H254337   1.716   5.847   2.353  0.2953  0.5952 -1.8439
10048TIP3   OH254338   6.495   6.147   1.248 -0.3538  0.2456  0.4126
10048TIP3    H154339   6.527   6.162   1.159 -2.2686  0.4395 -0.3014
10048TIP3    H254340   6.563   6.096   1.290  1.4215  1.6623 -0.5911
10049TIP3   OH254341   1.294   5.781   2.647 -0.5809  0.8464  0.0212
10049TIP3    H154342   1.351   5.803   2.573  2.2625 -2.1561  1.0750
10049TIP3    H254343   1.283   5.686   2.641  0.0146  0.4363  3.5337
10050TIP3   OH254344   0.961   5.638   1.826 -0.2523  0.3578  0.8825
10050TIP3    H154345   0.959   5.703   1.896  0.4812  0.1154  1.1331
10050TIP3    H254346   0.871   5.637   1.792 -0.3371  1.2909  1.0576
10051TIP3   OH254347   0.366   0.086   2.060  0.2103 -0.1570  0.4606
10051TIP3    H154348   0.432   0.139   2.016  0.2079 -0.5258  0.0018
10051TIP3    H254349   0.285   0.136   2.053  0.6216  0.7863  1.9278
10052TIP3   OH254350   2.710   1.208   1.844  0.5814 -0.6849 -0.8698
10052TIP3    H154351   2.714   1.119   1.807  1.0500 -0.8280 -0.4950
10052TIP3    H254352   2.802   1.235   1.848  0.4151 -0.0487 -1.2906
10053TIP3   OH254353   3.111   6.300   0.696  0.1324  0.3330  0.3103
10053TIP3    H154354   3.118   6.209   0.725  0.8097 -0.2158 -1.4263
10053TIP3    H254355   3.038   6.336   0.746  1.2977 -0.4658  2.7243
10054TIP3   OH254356   2.436   7.661   1.814  0.2953 -0.0721  0.6634
10054TIP3    H154357   2.480   7.665   1.899  0.6295  0.8701  0.4530
10054TIP3    H254358   2.452   7.746   1.774 -0.4671 -0.2476 -0.0485
10055TIP3   OH254359   7.030   2.207   1.877 -0.0097  0.1309  0.0896
10055TIP3    H154360   7.106   2.244   1.831  0.2621 -0.6597 -0.1111
10055TIP3    H254361   6.954   2.239   1.828  0.2263  0.2210 -0.2226
10056TIP3   OH254362   0.970   3.650   1.204 -0.1393 -0.3077 -0.2792
10056TIP3    H154363   0.906   3.640   1.134 -0.3214 -0.7715 -0.0452
10056TIP3    H254364   1.036   3.584   1.186  1.7251  1.8672 -2.0684
10057TIP3   OH254365   1.799   1.023   2.473 -0.7318 -0.8540  0.0285
10057TIP3    H154366   1.885   1.052   2.503 -1.4504  0.8336  0.5414
10057TIP3    H254367   1.812   0.930   2.451  0.7305 -1.1553  1.9334
10058TIP3   OH254368   0.569   4.104   1.572 -0.3895  1.1388 -0.4445
10058TIP3    H154369   0.478   4.081   1.592 -0.1706  0.4075 -0.2598
10058TIP3    H254370   0.571   4.199   1.580 -0.9300  1.0950  0.4817
10059TIP3   OH254371   2.363   2.958   3.485  0.2046 -0.2429  0.2919
10059TIP3    H154372   2.396   3.009   3.411 -0.3951  0.2832  0.3765
10059TIP3    H254373   2.272   2.985   3.494 -0.2250 -1.5902  0.1341
10060TIP3   OH254374   0.659   4.237   3.300 -0.6224 -0.0080 -0.5592
10060TIP3    H154375   0.594   4.299   3.268 -1.4017 -0.9938 -0.9381
10060TIP3    H254376   0.626   4.209   3.385  0.1171  0.6425 -0.0389
10061TIP3   OH254377   1.099   4.757   2.590 -0.0194  0.1096  1.0159
10061TIP3    H154378   1.164   4.687   2.580 -0.4535 -0.4453  1.9285
10061TIP3    H254379   1.033   4.739   2.523  1.7412  1.8891 -1.3885
10062TIP3   OH254380   0.514   4.003   2.433  0.4746 -0.0700 -0.4563
10062TIP3    H154381   0.558   3.918   2.437  1.5363  0.4970  0.3024
10062TIP3    H254382   0.509   4.032   2.524 -0.6601  0.3082 -0.6198
10063TIP3   OH254383   6.264   4.391   1.770 -0.1656  0.1285  0.2234
10063TIP3    H154384   6.303   4.311   1.804 -0.5634 -1.2968 -2.4515
10063TIP3    H254385   6.336   4.438   1.728 -0.6719 -1.1172 -2.1984
10064TIP3   OH254386   0.471   2.691   2.543 -0.3035 -0.7613 -0.0509
10064TIP3    H154387   0.513   2.682   2.457 -0.0826  1.1922 -0.1871
10064TIP3    H254388   0.537   2.663   2.606  1.3487  2.3087 -0.2569
10065TIP3   OH254389   6.440   6.656   0.477  0.2033  0.0259 -0.6068
10065TIP3    H154390   6.483   6.628   0.397  2.7126 -0.9588  0.9918
10065TIP3    H254391   6.481   6.606   0.546 -1.3829  1.3403  1.4305
10066TIP3   OH254392   6.770   3.232   1.594 -0.0084  0.5292  0.5992
10066TIP3    H154393   6.803   3.150   1.557  0.3965  1.1920 -0.5930
10066TIP3    H254394   6.827   3.300   1.557 -0.9147  1.4383  0.8002
10067TIP3   OH254395   5.304   2.957   2.995 -0.1181  0.4725 -0.6125
10067TIP3    H154396   5.318   3.044   3.033  0.3071 -0.0404  0.4429
10067TIP3    H254397   5.230   2.968   2.936 -1.3981  1.1244  1.0513
10068TIP3   OH254398   1.175   2.486   2.624  0.2569 -0.1286  0.1210
10068TIP3    H154399   1.238   2.419   2.598 -1.1656 -1.8793  0.9726
10068TIP3    H254400   1.125   2.446   2.695 -1.5463  1.3367 -0.2452
10069TIP3   OH254401   4.561   6.235   1.415  0.3869 -0.1937  0.3141
10069TIP3    H154402   4.518   6.301   1.361 -0.2885  0.2443  1.3630
10069TIP3    H254403   4.527   6.152   1.383  0.5220  0.0149 -0.3866
10070TIP3   OH254404   3.151   3.982   1.482 -0.5424  0.0737 -0.1582
10070TIP3    H154405   3.154   3.949   1.392  1.1209 -0.8460  0.1848
10070TIP3    H254406   3.099   3.918   1.530 -0.4052 -0.0893 -0.2262
10071TIP3   OH254407   6.858   7.676   1.954  0.3573 -0.4975  0.3401
10071TIP3    H154408   6.879   7.749   2.012  0.7623 -0.5133  0.2180
10071TIP3    H254409   6.942   7.651   1.916  0.1515 -0.7362  0.0393
10072TIP3   OH254410   3.505   6.109   1.350 -0.3290 -0.0083 -0.2349
10072TIP3    H154411   3.527   6.198   1.322  3.2697 -0.8577 -0.5603
10072TIP3    H254412   3.454   6.121   1.431  0.5913  2.3392  0.0729
10073TIP3   OH254413   5.527   0.736   3.263 -0.5322  0.1494 -0.5154
10073TIP3    H154414   5.524   0.653   3.310 -1.7847  0.1715 -0.5315
10073TIP3    H254415   5.487   0.718   3.178 -1.7407  0.9840 -0.1501
10074TIP3   OH254416   2.089   3.603   0.996  0.5782  0.3659  0.7609
10074TIP3    H154417   2.133   3.574   0.916 -1.9292  0.9254 -0.9495
10074TIP3    H254418   2.054   3.523   1.034  0.7515  0.2343  0.6471
10075TIP3   OH254419   4.448   2.795   2.495  0.0354  0.5828 -0.2280
10075TIP3    H154420   4.399   2.823   2.417  1.3084  3.9063  0.0101
10075TIP3    H254421   4.381   2.781   2.562 -0.8424  1.2025 -0.9544
10076TIP3   OH254422   0.056   0.582   1.884  0.1073 -0.1911  0.1469
10076TIP3    H154423   0.066   0.501   1.835 -1.5092 -1.2318  1.4223
10076TIP3    H254424  -0.026   0.620   1.852  0.2865  0.3693  0.3385
10077TIP3   OH254425   1.135   7.279   1.418 -0.8390 -0.0517  0.1872
10077TIP3    H154426   1.154   7.330   1.497  0.4156 -0.1020 -0.0593
10077TIP3    H254427   1.214   7.227   1.404 -1.4152 -0.7449 -0.5737
10078TIP3   OH254428   6.971   0.298   1.382 -0.0273 -0.2058  0.4454
10078TIP3    H154429   6.878   0.311   1.365 -0.3121  1.0883  2.6103
10078TIP3    H254430   6.975   0.213   1.426 -0.1737 -0.2823  0.3125
10079TIP3   OH254431   5.635   4.678   1.005  0.4920 -0.0350  0.2169
10079TIP3    H154432   5.622   4.771   1.024  0.1758  0.0266 -0.2756
10079TIP3    H254433   5.697   4.648   1.072  0.9419  0.6347  0.1096
10080TIP3   OH254434   4.093   3.474   1.266 -0.2836  0.0727  0.2924
10080TIP3    H154435   4.009   3.514   1.245 -0.8654 -2.1162 -2.0811
10080TIP3    H254436   4.070   3.395   1.315  0.3725 -0.4692 -0.2502
10081TIP3   OH254437   6.254   6.961   1.479 -0.3932  0.4061  0.0411
10081TIP3    H154438   6.224   7.015   1.406  0.1699  0.2543 -0.3109
10081TIP3    H254439   6.342   6.933   1.454  0.3660  1.4695  1.3640
10082TIP3   OH254440   2.326   0.826   1.067 -0.2359 -0.0487 -0.3355
10082TIP3    H154441   2.351   0.830   0.974 -0.2534 -0.7922 -0.3845
10082TIP3    H254442   2.355   0.909   1.103 -0.0222  0.1600 -0.9631
10083TIP3   OH254443   7.611   0.757   1.108  0.1930  0.2845  0.0749
10083TIP3    H154444   7.573   0.678   1.146 -1.3461  1.4743  1.1220
10083TIP3    H254445   7.662   0.726   1.034  0.4689 -1.7816  1.0697
10084TIP3   OH254446   5.926   2.500   0.806 -0.6317 -0.3664 -0.0448
10084TIP3    H154447   5.918   2.428   0.743 -0.8360 -0.9296  0.6163
10084TIP3    H254448   6.001   2.476   0.860 -1.2430 -0.5361  0.7466
10085TIP3   OH254449   6.951   4.386   2.473  0.0658 -0.2017  0.5042
10085TIP3    H154450   7.037   4.366   2.511 -0.9727 -3.6507  1.3946
10085TIP3    H254451   6.890   4.372   2.545 -1.3469  2.1237 -0.1296
10086TIP3   OH254452   3.679   2.058   1.794  0.2892  0.0162 -0.4410
10086TIP3    H154453   3.728   2.032   1.716  1.2567  0.4011  0.0181
10086TIP3    H254454   3.615   2.121   1.763  0.5734  0.0594 -0.9500
10087TIP3   OH254455   3.920   6.460   0.351  0.1239  0.0754 -0.3174
10087TIP3    H154456   3.950   6.388   0.295 -3.9190 -1.7109 -0.5781
10087TIP3    H254457   3.970   6.450   0.432 -0.5366 -3.4326 -0.1630
10088TIP3   OH254458   0.642   3.166   2.813 -0.0545  0.5422  0.6142
10088TIP3    H154459   0.659   3.200   2.726 -2.8848 -0.3300 -0.4096
10088TIP3    H254460   0.672   3.234   2.872  2.3936  0.9365 -0.9727
10089TIP3   OH254461   5.014   5.140   0.523 -0.5073 -0.4427 -0.4766
10089TIP3    H154462   4.960   5.155   0.445 -0.5021 -1.6605 -0.7428
10089TIP3    H254463   4.956   5.159   0.597 -0.6604  0.2602 -0.7721
10090TIP3   OH254464   1.604   1.888   0.981  0.0385  0.1463  0.0397
10090TIP3    H154465   1.669   1.909   0.914 -3.0608  2.1820 -2.5833
10090TIP3    H254466   1.614   1.793   0.994  2.1543  0.0430 -1.7077
10091TIP3   OH254467   7.643   6.349   1.324 -0.0214 -0.0798 -0.2524
10091TIP3    H154468   7.632   6.255   1.337 -1.7979 -0.0587 -1.2303
10091TIP3    H254469   7.562   6.377   1.280  0.8222  1.7553 -0.7520
10092TIP3   OH254470   6.370   5.620   0.896 -0.2124 -0.3267  0.5765
10092TIP3    H154471   6.311   5.696   0.897  0.0438 -0.1284  0.5515
10092TIP3    H254472   6.430   5.637   0.823 -2.2391 -2.1352 -1.6938
10093TIP3   OH254473   2.604   1.993   1.726 -0.7463  0.1612  0.0410
10093TIP3    H154474   2.548   2.013   1.650  0.6913  0.3822 -1.0010
10093TIP3    H254475   2.608   2.075   1.775 -1.1142  0.2200 -0.0248
10094TIP3   OH254476   2.088   3.688   2.378 -0.3497  0.4345 -0.0030
10094TIP3    H154477   2.059   3.772   2.341 -0.1560  0.6733  0.3825
10094TIP3    H254478   2.134   3.712   2.458 -1.7475 -0.1539  1.0100
10095TIP3   OH254479   3.830   0.582   2.663 -0.2037 -0.1928  0.2573
10095TIP3    H154480   3.897   0.575   2.595  0.0076 -1.0683  0.5479
10095TIP3    H254481   3.868   0.642   2.727 -0.1778  0.2110 -0.1305
10096TIP3   OH254482   7.375   4.122   2.305 -0.2665  0.2731  0.4942
10096TIP3    H154483   7.413   4.101   2.220  0.8952 -0.3292  1.1346
10096TIP3    H254484   7.446   4.107   2.368 -1.3391 -0.1379  1.6665
10097TIP3   OH254485   2.247   5.122   1.442 -0.1495 -1.0165 -0.3380
10097TIP3    H154486   2.291   5.200   1.408 -1.6081 -0.5394 -1.2243
10097TIP3    H254487   2.315   5.075   1.490  0.8125  0.6766  0.0209
10098TIP3   OH254488   1.656   2.786   2.546 -0.1196 -0.1907 -0.2187
10098TIP3    H154489   1.668   2.692   2.532  0.2644 -0.3528  1.1001
10098TIP3    H254490   1.593   2.792   2.618 -1.0504  0.5931 -1.0552
10099TIP3   OH254491   1.473   6.001   0.622 -0.0569 -0.1963 -0.4436
10099TIP3    H154492   1.387   6.011   0.662  0.4155 -0.8419  0.7802
10099TIP3    H254493   1.503   5.915   0.651  0.5288 -0.4686 -1.7939
10100TIP3   OH254494   3.526   0.922   1.494  0.0810  0.3124  0.5765
10100TIP3    H154495   3.480   0.908   1.577 -3.1882  0.8347 -0.9901
10100TIP3    H254496   3.537   1.017   1.489  1.3829  0.1985  0.9056
10101TIP3   OH254497   5.396   4.966   3.017  0.4759 -0.4004 -0.1239
10101TIP3    H154498   5.315   5.011   3.043  1.0197  2.2223 -2.4283
10101TIP3    H254499   5.367   4.879   2.990 -1.4880  0.1846 -0.0807
10102TIP3   OH254500   5.141   2.343   3.094 -0.1807  0.1990 -0.4650
10102TIP3    H154501   5.055   2.370   3.128 -0.2853  1.1278 -1.3935
10102TIP3    H254502   5.190   2.425   3.086  1.6605 -0.5225  2.1842
10103TIP3   OH254503   0.803   2.903   2.107 -0.6368  0.0983 -0.3053
10103TIP3    H154504   0.841   2.847   2.039  0.3428 -2.3732  2.0913
10103TIP3    H254505   0.846   2.876   2.187 -2.6964  1.9357  1.5548
10104TIP3   OH254506   3.533   4.205   0.898  0.2520 -0.0294  0.5720
10104TIP3    H154507   3.557   4.232   0.810 -2.3602  1.9107  0.3217
10104TIP3    H254508   3.536   4.109   0.896  2.1267  0.0117 -0.9873
10105TIP3   OH254509   2.188   7.071   2.249 -0.0123  0.5403 -0.2669
10105TIP3    H154510   2.203   7.164   2.268 -1.0741  0.8460 -0.8553
10105TIP3    H254511   2.276   7.036   2.234  0.3414  1.6800 -1.0198
10106TIP3   OH254512   7.280   4.825   2.305  0.4456 -0.4618 -0.0859
10106TIP3    H154513   7.216   4.896   2.303  1.7666  0.7607 -1.4958
10106TIP3    H254514   7.230   4.748   2.334 -1.4339  0.6385 -0.2622
10107TIP3   OH254515   6.758   0.977   0.768 -0.4411  0.1123 -0.0397
10107TIP3    H154516   6.733   1.060   0.809 -0.5930  0.3750 -0.6574
10107TIP3    H254517   6.840   0.952   0.812  0.1286  1.0796 -0.5069
10108TIP3   OH254518   0.950   0.929   2.665  0.0051 -0.6522 -0.2066
10108TIP3    H154519   0.975   0.866   2.733 -0.2367 -2.3348 -1.6169
10108TIP3    H254520   0.906   0.877   2.598 -1.5637  1.2645 -0.7675
10109TIP3   OH254521   2.909   6.308   1.111  0.2150 -0.1252  0.6473
10109TIP3    H154522   2.999   6.339   1.117 -0.0043  0.9312 -0.8100
10109TIP3    H254523   2.890   6.306   1.017 -1.1229 -0.8124  0.8984
10110TIP3   OH254524   0.802   7.344   2.278  0.1061 -0.0569  0.2661
10110TIP3    H154525   0.734   7.339   2.345  0.2740 -0.0964  0.4332
10110TIP3    H254526   0.805   7.437   2.254 -0.5983 -0.1809 -0.3575
10111TIP3   OH254527   3.750   4.583   0.720 -0.0514  0.0309 -0.2319
10111TIP3    H154528   3.750   4.564   0.814  0.3837  1.3715  0.0565
10111TIP3    H254529   3.839   4.615   0.703 -0.1670 -0.0885 -1.0818
10112TIP3   OH254530   0.350   5.699   1.873 -0.2058  0.6142  0.4178
10112TIP3    H154531   0.371   5.782   1.914 -2.2309  1.2523  0.2587
10112TIP3    H254532   0.388   5.705   1.785  0.9264  0.7416  0.9022
10113TIP3   OH254533   1.355   1.599   2.276 -0.2012  0.0247 -0.0632
10113TIP3    H154534   1.335   1.689   2.301 -1.8701  0.4492 -2.4762
10113TIP3    H254535   1.291   1.546   2.324 -0.4953  0.3488 -0.0950
10114TIP3   OH254536   6.121   1.099   0.462 -0.4299  0.3714 -0.2926
10114TIP3    H154537   6.055   1.056   0.408 -0.8690 -0.5880  0.9531
10114TIP3    H254538   6.087   1.188   0.474 -2.3309 -0.5244  1.5538
10115TIP3   OH254539   1.235   1.136   1.353 -0.1548 -0.0545 -0.2561
10115TIP3    H154540   1.162   1.139   1.291  0.4278 -1.3883 -1.0520
10115TIP3    H254541   1.243   1.226   1.385 -1.2485  0.4030 -1.1901
10116TIP3   OH254542   2.761   2.343   1.507  0.3443 -0.0282 -0.6230
10116TIP3    H154543   2.692   2.293   1.552 -1.3200  1.9918 -0.7466
10116TIP3    H254544   2.809   2.386   1.578 -0.7572  1.2489 -0.5958
10117TIP3   OH254545   0.839   0.699   1.096  0.9225  0.0874 -0.1694
10117TIP3    H154546   0.866   0.617   1.136 -0.3892 -0.6456 -0.7498
10117TIP3    H254547   0.809   0.753   1.169  0.3459 -0.5272  0.0512
10118TIP3   OH254548   0.420   0.537   2.362 -0.4269 -0.4900 -0.3196
10118TIP3    H154549   0.422   0.613   2.303  1.1454  0.0939  0.4278
10118TIP3    H254550   0.474   0.471   2.319  0.1984 -0.2900  0.1311
10119TIP3   OH254551   4.936   3.060   0.962 -0.5963  0.2800 -0.3055
10119TIP3    H154552   5.031   3.063   0.976 -0.5731  1.6619 -0.5945
10119TIP3    H254553   4.899   3.045   1.048 -0.1168 -0.1279 -0.1685
10120TIP3   OH254554   6.485   6.207   1.519 -0.5705 -0.1737  0.1582
10120TIP3    H154555   6.487   6.206   1.423 -0.0603  1.2086  0.1341
10120TIP3    H254556   6.437   6.287   1.541 -0.3353 -0.2687  1.0566
10121TIP3   OH254557   0.091   5.242   2.248 -0.7532  0.0062  0.0225
10121TIP3    H154558   0.110   5.159   2.291  1.2562 -0.0962 -0.9633
10121TIP3    H254559   0.166   5.298   2.270 -1.4360  1.1185 -0.4000
10122TIP3   OH254560   3.971   4.099   1.800  1.0661 -0.0082 -0.4763
10122TIP3    H154561   3.962   4.173   1.740  0.8196  0.3362 -0.0294
10122TIP3    H254562   4.066   4.089   1.811  1.1054  0.0894 -0.7224
10123TIP3   OH254563   6.436   0.428   2.574  0.4578 -0.1340  0.1733
10123TIP3    H154564   6.452   0.482   2.496  2.1581 -0.0663  0.5310
10123TIP3    H254565   6.345   0.446   2.597  0.1026  0.3057 -1.4399
10124TIP3   OH254566   4.727   6.558   2.116  0.3069  0.1182  0.3211
10124TIP3    H154567   4.818   6.584   2.131  0.1891 -0.2468  1.9319
10124TIP3    H254568   4.676   6.625   2.162 -0.0752 -1.5113  2.4652
10125TIP3   OH254569   4.089   3.009   1.500 -0.5460 -0.0101 -0.2395
10125TIP3    H154570   4.052   2.961   1.426 -0.9156  0.3177 -0.2696
10125TIP3    H254571   4.024   3.000   1.569 -1.5240  1.9803 -0.8118
10126TIP3   OH254572   1.498   3.465   0.534 -0.4440 -0.9211 -0.2241
10126TIP3    H154573   1.557   3.513   0.592  0.7393 -0.6479 -1.5968
10126TIP3    H254574   1.416   3.513   0.538  0.1472  0.1094 -0.1086
10127TIP3   OH254575   0.196   5.925   1.314 -0.6391  0.2100  0.1270
10127TIP3    H154576   0.138   5.995   1.283  0.2611  1.2280  0.6433
10127TIP3    H254577   0.194   5.859   1.245  1.0454  2.2325 -2.0130
10128TIP3   OH254578   3.075   3.791   0.677  0.0173  0.5508  0.0208
10128TIP3    H154579   3.047   3.747   0.757 -2.0598 -0.4005 -1.1508
10128TIP3    H254580   3.006   3.854   0.658  0.5293  0.8460 -0.9540
10129TIP3   OH254581   0.937   4.906   1.499  0.2295  0.0131 -0.2201
10129TIP3    H154582   0.850   4.914   1.539  0.3668 -1.0331  0.3357
10129TIP3    H254583   0.928   4.948   1.413 -0.7386  0.2058 -0.0382
10130TIP3   OH254584   7.182   5.682   2.389  0.0064  0.3955 -0.4806
10130TIP3    H154585   7.093   5.691   2.353  0.9511 -0.9526 -3.5479
10130TIP3    H254586   7.221   5.768   2.378 -0.3795  0.5277 -0.8688
10131TIP3   OH254587   4.968   6.547   2.771  0.1085 -0.2737 -0.7142
10131TIP3    H154588   4.874   6.562   2.775  0.2339  0.4759  2.7770
10131TIP3    H254589   4.983   6.470   2.826  1.5298 -0.2153 -0.9776
10132TIP3   OH254590   1.125   2.347   0.494 -0.2132  0.2350 -0.2082
10132TIP3    H154591   1.194   2.295   0.454  1.2621  2.0815 -0.2444
10132TIP3    H254592   1.057   2.284   0.518  1.7755 -1.7928  0.4662
10133TIP3   OH254593   1.384   7.113   1.283 -0.6863 -0.2396  0.0416
10133TIP3    H154594   1.330   7.049   1.237  0.1538  0.0784 -1.4513
10133TIP3    H254595   1.455   7.133   1.222  0.7234 -0.1077  1.6458
10134TIP3   OH254596   1.699   0.405   1.593  0.1207  0.5925  0.1481
10134TIP3    H154597   1.671   0.391   1.503 -0.8577 -1.0458  0.6649
10134TIP3    H254598   1.619   0.431   1.639 -0.3224 -2.4060  1.2903
10135TIP3   OH254599   6.576   5.142   1.126  0.6039 -0.0608  0.5884
10135TIP3    H154600   6.657   5.096   1.106 -0.1566 -1.1587 -0.1169
10135TIP3    H254601   6.564   5.131   1.220  1.7876  1.0143  0.8817
10136TIP3   OH254602   2.492   2.152   1.513  0.3007  0.2788  0.2635
10136TIP3    H154603   2.433   2.187   1.579 -1.7685 -0.7428 -0.9562
10136TIP3    H254604   2.467   2.195   1.432  0.3068 -1.1425 -0.5308
10137TIP3   OH254605   3.136   7.585   0.779 -0.2958  0.7536 -0.5687
10137TIP3    H154606   3.192   7.661   0.770  1.2517 -0.4407 -1.5474
10137TIP3    H254607   3.049   7.621   0.794  0.5020  2.6825 -0.3049
10138TIP3   OH254608   4.195   2.570   0.560 -0.3085  0.2744  0.5742
10138TIP3    H154609   4.141   2.644   0.588 -1.3063 -0.0786 -0.3593
10138TIP3    H254610   4.132   2.500   0.542  0.4450 -0.0897 -0.7408
10139TIP3   OH254611   3.246   1.057   1.348 -0.2381  0.1464  0.9284
10139TIP3    H154612   3.263   0.973   1.393  0.9781 -0.5853 -0.8063
10139TIP3    H254613   3.327   1.107   1.360 -1.8087  2.2958  4.2144
10140TIP3   OH254614   1.724   5.520   2.525 -0.2375 -0.1370  0.2557
10140TIP3    H154615   1.695   5.561   2.444 -1.9029 -1.0384  0.3610
10140TIP3    H254616   1.741   5.429   2.502 -1.5469 -0.6084  1.0753
10141TIP3   OH254617   6.075   1.351   1.153 -0.2786 -0.0443 -0.2354
10141TIP3    H154618   6.161   1.347   1.110  0.1050 -1.8250  0.5920
10141TIP3    H254619   6.012   1.357   1.080  0.4776 -0.2450 -0.9237
10142TIP3   OH254620   6.563   7.626   3.142  0.2860  0.3632 -0.1751
10142TIP3    H154621   6.606   7.706   3.112 -1.2525  1.5283  0.5974
10142TIP3    H254622   6.481   7.656   3.183  1.8131 -1.0584  4.6382
10143TIP3   OH254623   3.418   7.164   1.621 -0.3208  0.4761 -0.0936
10143TIP3    H154624   3.423   7.158   1.717  1.3667 -0.6477 -0.2137
10143TIP3    H254625   3.383   7.252   1.605  0.5233  1.1655  1.5516
10144TIP3   OH254626   0.723   2.971   1.265  0.0078 -0.1759 -0.5727
10144TIP3    H154627   0.634   2.937   1.263 -1.2407  2.7654 -1.4317
10144TIP3    H254628   0.753   2.955   1.355 -1.5645 -0.7893 -0.1249
10145TIP3   OH254629   2.614   7.240   2.384 -0.1481  0.0802  0.0617
10145TIP3    H154630   2.562   7.315   2.413  1.5181  1.4403 -0.3344
10145TIP3    H254631   2.701   7.256   2.420  0.7258 -0.7130 -1.6180
10146TIP3   OH254632   0.063   4.085   1.417  0.3888  0.6843 -0.3695
10146TIP3    H154633   0.095   4.130   1.494 -0.4620 -0.1951  0.5296
10146TIP3    H254634   0.018   4.152   1.366  0.7162  1.2123  0.0382
10147TIP3   OH254635   6.585   2.768   0.845 -0.4673  0.0094  0.3235
10147TIP3    H154636   6.651   2.822   0.888 -1.4818  0.2597  1.6325
10147TIP3    H254637   6.633   2.693   0.811  0.4340 -0.0442  1.6533
10148TIP3   OH254638   7.422   0.448   1.900 -0.5253 -0.0281 -0.2095
10148TIP3    H154639   7.429   0.491   1.815 -2.4509  0.1469 -0.3173
10148TIP3    H254640   7.370   0.508   1.953  0.8703 -0.0120  1.2073
10149TIP3   OH254641   4.101   1.580   1.342  0.6185 -0.1057  0.9142
10149TIP3    H154642   4.089   1.589   1.437  1.1108 -1.1486  1.0873
10149TIP3    H254643   4.012   1.567   1.309  0.3624  0.9322  1.1326
10150TIP3   OH254644   6.462   3.613   2.163  0.5077 -0.1070 -0.6899
10150TIP3    H154645   6.535   3.642   2.218  0.3037  0.4615 -0.7108
10150TIP3    H254646   6.504   3.570   2.089  0.9640  2.0907 -1.8131
10151TIP3   OH254647   2.698   5.803   1.007  0.0583 -0.3499  0.1916
10151TIP3    H154648   2.672   5.855   1.083  2.9929  0.0381  1.0805
10151TIP3    H254649   2.789   5.779   1.025  1.8336  1.8441 -4.2023
10152TIP3   OH254650   7.222   1.295   2.431  0.0213  0.0152  0.6497
10152TIP3    H154651   7.204   1.335   2.516 -1.2662 -2.9740  1.9224
10152TIP3    H254652   7.313   1.318   2.413  0.3279  0.7580  2.8371
10153TIP3   OH254653   0.395   0.255   0.864 -0.1821  0.6808  0.3563
10153TIP3    H154654   0.467   0.238   0.803 -1.5121 -0.5231 -0.9692
10153TIP3    H254655   0.353   0.334   0.830 -0.5664  0.3468  0.0440
10154TIP3   OH254656   5.947   5.612   0.761 -0.0717 -0.4440  0.0319
10154TIP3    H154657   5.919   5.656   0.681 -0.3321 -0.2348  0.2355
10154TIP3    H254658   5.964   5.684   0.823  0.8160 -0.5681 -0.0527
10155TIP3   OH254659   6.911   3.918   2.374 -0.2542 -0.3486 -0.0618
10155TIP3    H154660   6.987   3.959   2.416 -0.4542 -0.2849  0.2377
10155TIP3    H254661   6.911   3.955   2.286  1.0532 -1.6103 -0.6358
10156TIP3   OH254662   2.789   0.317   1.241 -0.1144 -0.0865  0.1514
10156TIP3    H154663   2.855   0.346   1.304 -0.3222 -0.8487  0.7347
10156TIP3    H254664   2.705   0.340   1.281 -0.2324 -0.0404 -0.1188
10157TIP3   OH254665   4.126   0.980   2.676 -0.3195  0.1301  0.2406
10157TIP3    H154666   4.098   0.985   2.584 -0.2259 -1.0751  0.1387
10157TIP3    H254667   4.217   0.951   2.672 -0.5123 -0.5588  0.7371
10158TIP3   OH254668   2.377   5.879   0.679  0.0966 -0.3866 -0.1779
10158TIP3    H154669   2.322   5.938   0.627 -1.5686 -0.7059  1.1362
10158TIP3    H254670   2.419   5.935   0.744 -1.7134 -0.5773  1.2609
10159TIP3   OH254671   6.112   6.989   1.706 -0.8310 -0.6448 -0.0076
10159TIP3    H154672   6.183   6.987   1.642 -1.1450  0.5579 -0.4117
10159TIP3    H254673   6.044   7.042   1.665 -1.3638 -0.5315  0.9989
10160TIP3   OH254674   0.524   2.105   1.065 -0.0473 -0.0659 -0.0234
10160TIP3    H154675   0.510   2.071   0.977 -3.4475  2.1096 -0.5219
10160TIP3    H254676   0.508   2.030   1.123  1.2985 -1.2875 -1.1688
10161TIP3   OH254677   6.149   5.701   2.186 -0.3320 -0.2309 -0.2814
10161TIP3    H154678   6.202   5.704   2.265 -0.1820  0.1036 -0.3912
10161TIP3    H254679   6.155   5.790   2.150  0.8794 -0.7721 -1.4944
10162TIP3   OH254680   0.587   6.131   1.202 -0.1977 -0.2831 -0.4017
10162TIP3    H154681   0.679   6.110   1.185 -0.1851 -0.3295 -0.2737
10162TIP3    H254682   0.577   6.120   1.296 -0.7885 -2.0224 -0.6452
10163TIP3   OH254683   6.044   5.789   0.966  0.4149 -0.6879 -0.1361
10163TIP3    H154684   6.100   5.820   1.037  1.7831 -1.0973 -0.9937
10163TIP3    H254685   5.986   5.863   0.946  2.1938  0.6000 -0.7442
10164TIP3   OH254686   2.401   4.090   2.409 -0.4515 -0.0546 -0.3335
10164TIP3    H154687   2.471   4.102   2.344  0.5671 -1.0413  0.5385
10164TIP3    H254688   2.447   4.063   2.488 -1.9250 -2.3307 -0.1712
10165TIP3   OH254689   6.672   0.255   1.018 -0.4996 -0.1932 -0.0325
10165TIP3    H154690   6.684   0.349   1.011  2.2958 -0.5174 -0.6168
10165TIP3    H254691   6.671   0.237   1.112 -3.4992  0.5707  0.1933
10166TIP3   OH254692   0.536   1.143   1.358 -0.0367 -0.2092  0.5917
10166TIP3    H154693   0.568   1.056   1.333 -1.7061 -0.8059  0.4146
10166TIP3    H254694   0.535   1.141   1.454 -2.4377 -1.3692  0.6186
10167TIP3   OH254695   1.373   2.784   1.207  0.3378 -0.3951  0.8645
10167TIP3    H154696   1.379   2.771   1.112  1.8709  0.3866  0.8251
10167TIP3    H254697   1.359   2.696   1.242  2.1144 -1.0538  0.0485
10168TIP3   OH254698   2.235   4.535   3.027  0.4913  0.1982  0.7230
10168TIP3    H154699   2.210   4.614   3.075 -0.5436  0.0677  0.4108
10168TIP3    H254700   2.165   4.472   3.044  0.3987 -0.0468 -0.4748
10169TIP3   OH254701   3.357   3.399   0.475  0.5806 -0.2607  0.7537
10169TIP3    H154702   3.269   3.425   0.499  0.0456 -0.7722 -0.5466
10169TIP3    H254703   3.408   3.481   0.477 -0.8721  0.8886 -2.4296
10170TIP3   OH254704   4.144   6.216   0.751 -0.1255 -0.2539  0.3670
10170TIP3    H154705   4.143   6.121   0.766 -0.8933 -0.4112 -0.6303
10170TIP3    H254706   4.055   6.244   0.772  0.2392  0.3477  1.1775
10171TIP3   OH254707   3.410   2.731   0.322  0.4133 -0.6488  1.0801
10171TIP3    H154708   3.334   2.672   0.324  0.2535 -0.4696  3.2417
10171TIP3    H254709   3.375   2.814   0.353  0.6263  0.7001 -1.9550
10172TIP3   OH254710   0.334   7.175   2.591  0.3405 -0.3393 -0.3784
10172TIP3    H154711   0.356   7.101   2.647  0.7665 -1.3411 -1.8151
10172TIP3    H254712   0.293   7.239   2.650  0.3201 -1.5409  0.9555
10173TIP3   OH254713   3.949   6.964   1.301  0.7259  0.0168  0.4286
10173TIP3    H154714   3.905   6.887   1.338  2.5568 -1.4680 -0.2869
10173TIP3    H254715   4.024   6.978   1.358  0.7460  0.8967  0.1919
10174TIP3   OH254716   0.146   4.525   2.948 -0.1653 -0.7008 -0.2925
10174TIP3    H154717   0.210   4.454   2.939  0.6288  0.0356 -0.6524
10174TIP3    H254718   0.073   4.486   2.996  0.5957 -1.5454  0.2147
10175TIP3   OH254719   1.510   0.032   1.657 -0.0048  0.0124  0.6608
10175TIP3    H154720   1.432   0.018   1.711  0.2784 -1.3092  0.7751
10175TIP3    H254721   1.476   0.065   1.574 -0.7120 -0.7127  0.6484
10176TIP3   OH254722   2.733   0.230   0.800  0.2403 -0.7285  0.3570
10176TIP3    H154723   2.714   0.289   0.727 -0.7316 -1.0060  0.3764
10176TIP3    H254724   2.799   0.277   0.851 -0.4127  0.2873  0.2963
10177TIP3   OH254725   1.551   3.207   0.500 -0.1814  0.1141  0.4004
10177TIP3    H154726   1.538   3.298   0.527 -1.0671 -0.2501  1.2809
10177TIP3    H254727   1.518   3.203   0.410  0.4952  0.8017  0.1123
10178TIP3   OH254728   3.387   4.297   1.339  0.0379  0.1575  0.4278
10178TIP3    H154729   3.357   4.294   1.248 -0.0232  2.4680  0.3066
10178TIP3    H254730   3.462   4.237   1.342  0.9561  1.0977 -1.5400
10179TIP3   OH254731   6.626   7.362   2.080  0.0343 -0.4308 -0.8015
10179TIP3    H154732   6.621   7.401   2.167 -1.1517 -0.7219 -0.7162
10179TIP3    H254733   6.542   7.384   2.040 -0.2048 -1.9144 -1.1724
10180TIP3   OH254734   0.493   5.173   1.315  0.3122  0.3341 -0.6729
10180TIP3    H154735   0.489   5.263   1.346  0.6921  0.5292 -1.1696
10180TIP3    H254736   0.484   5.179   1.220  1.2773 -0.0563 -0.8118
10181TIP3   OH254737   2.435   6.030   2.676  0.9530  0.6477 -0.0883
10181TIP3    H154738   2.444   6.032   2.772  0.3119  0.2014 -0.0141
10181TIP3    H254739   2.507   5.974   2.647  1.1257  0.7497  0.1418
10182TIP3   OH254740   5.927   0.211   2.318 -0.1190  0.0846 -0.4029
10182TIP3    H154741   5.929   0.248   2.230 -1.1145  1.0118 -0.0585
10182TIP3    H254742   5.859   0.144   2.315  0.0860 -0.1197 -0.4372
10183TIP3   OH254743   3.564   6.292   0.638 -0.5582  0.6244  0.1756
10183TIP3    H154744   3.489   6.351   0.644  0.3310  1.7688  0.3724
10183TIP3    H254745   3.539   6.228   0.572 -1.1315  1.8503 -0.8437
10184TIP3   OH254746   2.018   4.014   3.140  0.4135 -0.2335 -0.1221
10184TIP3    H154747   2.099   4.031   3.093  1.0581  0.0092  1.0507
10184TIP3    H254748   2.018   3.919   3.153  0.6262 -0.2075  0.0767
10185TIP3   OH254749   3.328   0.075   1.616 -0.0994  0.0893 -0.1929
10185TIP3    H154750   3.253   0.063   1.558  0.2909  2.1684 -1.2066
10185TIP3    H254751   3.291   0.114   1.695 -0.3309 -0.6461  0.0644
10186TIP3   OH254752   5.369   4.275   1.104  0.2987  0.1714  0.1181
10186TIP3    H154753   5.348   4.286   1.011 -0.1356 -0.8849  0.0788
10186TIP3    H254754   5.284   4.273   1.148  0.4058 -1.1600  0.3063
10187TIP3   OH254755   2.850   7.269   2.499  0.3740 -0.1786  0.1422
10187TIP3    H154756   2.865   7.323   2.576 -0.0060  1.5927 -0.9508
10187TIP3    H254757   2.928   7.281   2.445  0.5894 -1.3002  0.1980
10188TIP3   OH254758   1.605   3.599   2.048 -0.4715 -0.1538  1.4848
10188TIP3    H154759   1.663   3.569   1.977 -3.2395 -2.1093 -0.1108
10188TIP3    H254760   1.615   3.694   2.047 -0.1036 -0.1376 -1.3009
10189TIP3   OH254761   2.769   6.450   1.571  0.6113  0.3043 -0.1106
10189TIP3    H154762   2.809   6.516   1.514  0.2724 -1.5531 -2.6601
10189TIP3    H254763   2.680   6.481   1.584 -0.0435 -0.3108 -2.5924
10190TIP3   OH254764   5.145   2.818   1.944  0.1882 -0.4326  0.4269
10190TIP3    H154765   5.166   2.769   2.024  1.0312  0.3728  0.7128
10190TIP3    H254766   5.129   2.750   1.878  1.7800 -1.1185  0.6961
10191TIP3   OH254767   0.276   6.896   0.877  0.1130 -0.0982 -0.1380
10191TIP3    H154768   0.301   6.917   0.787  1.5059  1.9103  0.6612
10191TIP3    H254769   0.358   6.874   0.921 -0.4443 -0.2760  0.8435
10192TIP3   OH254770   3.191   1.599   0.464  0.3735 -1.0606  0.4671
10192TIP3    H154771   3.216   1.524   0.410 -0.8879 -1.2324  0.0880
10192TIP3    H254772   3.099   1.583   0.484 -1.0951  2.1651 -2.6785
10193TIP3   OH254773   4.785   0.036   1.728 -0.4861  0.0566  0.0227
10193TIP3    H154774   4.716   0.100   1.745  0.0072  0.4099  0.7520
10193TIP3    H254775   4.742  -0.049   1.737 -0.9585  0.2809 -0.1147
10194TIP3   OH254776   1.529   0.596   0.871  0.1614  0.0407  0.1073
10194TIP3    H154777   1.433   0.590   0.874  0.2385 -1.7375  2.7479
10194TIP3    H254778   1.552   0.567   0.783 -1.7044  0.1189 -0.4449
10195TIP3   OH254779   2.489   5.642   3.047  0.2112  0.4241  0.2265
10195TIP3    H154780   2.417   5.669   3.105  0.1933  0.3144  0.2541
10195TIP3    H254781   2.553   5.713   3.055 -0.2933  0.9849 -0.5038
10196TIP3   OH254782   0.603   1.065   1.648  0.8709 -0.3651  0.3850
10196TIP3    H154783   0.558   1.000   1.702  0.5643 -1.0955 -0.7119
10196TIP3    H254784   0.571   1.149   1.679  0.2178 -0.8022  0.9144
10197TIP3   OH254785   4.075   6.835   0.781 -0.1415  0.3581  0.2816
10197TIP3    H154786   4.058   6.874   0.867  0.4586 -1.2688  1.1644
10197TIP3    H254787   4.103   6.746   0.799 -3.5216 -1.3394 -1.7135
10198TIP3   OH254788   4.480   7.249   1.694 -1.0541  0.3520 -0.2010
10198TIP3    H154789   4.447   7.183   1.633 -0.2577  0.0798 -0.3505
10198TIP3    H254790   4.470   7.209   1.781 -1.1278  0.2840 -0.2409
10199TIP3   OH254791   4.299   5.908   3.223  0.1990  0.1220 -0.3908
10199TIP3    H154792   4.261   5.904   3.135 -0.1259  1.3406 -0.3321
10199TIP3    H254793   4.385   5.948   3.211  0.5394 -0.5527 -0.2528
10200TIP3   OH254794   5.958   7.532   3.526 -0.0497 -0.4675 -0.3719
10200TIP3    H154795   6.012   7.570   3.457  0.8135 -1.0085 -0.0052
10200TIP3    H254796   6.020   7.491   3.586 -0.7144  0.6584  1.1608
10201TIP3   OH254797   4.376   7.605   1.103  0.1285  0.2347  0.3060
10201TIP3    H154798   4.302   7.601   1.164  0.1940  3.0125  0.6782
10201TIP3    H254799   4.439   7.663   1.146  1.5318 -0.2292 -1.0599
10202TIP3   OH254800   2.140   3.132   3.483 -0.1767 -0.0629 -0.3469
10202TIP3    H154801   2.167   3.219   3.452 -0.2080  0.3662  0.8005
10202TIP3    H254802   2.045   3.139   3.491  0.0315  0.7679  2.4755
10203TIP3   OH254803   6.485   1.128   3.099 -0.0520 -0.0813 -0.2838
10203TIP3    H154804   6.492   1.073   3.021  1.3278  1.8402 -1.6148
10203TIP3    H254805   6.512   1.215   3.070 -1.1177  1.1031  1.9716
10204TIP3   OH254806   2.862   6.593   1.140 -0.0542 -0.0943 -0.1364
10204TIP3    H154807   2.815   6.661   1.092  1.7170  1.7792  0.6333
10204TIP3    H254808   2.816   6.512   1.117 -2.1739  1.2993 -1.2069
10205TIP3   OH254809   3.348   0.662   1.365  0.4223 -0.6795 -0.0316
10205TIP3    H154810   3.443   0.647   1.366  0.1761 -3.7126 -3.0429
10205TIP3    H254811   3.332   0.706   1.281 -0.8457 -0.0604  0.5109
10206TIP3   OH254812   6.907   7.338   3.249 -0.1276  0.0127  0.6498
10206TIP3    H154813   6.918   7.406   3.182  1.3595 -0.0181  0.8197
10206TIP3    H254814   6.879   7.385   3.327  1.4241  0.5476  0.9230
10207TIP3   OH254815   5.525   6.589   1.100 -0.5763  0.5700  0.1805
10207TIP3    H154816   5.592   6.656   1.114 -0.6537  0.6288  0.2655
10207TIP3    H254817   5.564   6.509   1.137 -0.3176  0.4776 -0.2823
10208TIP3   OH254818   0.434   5.146   0.931 -0.1040  0.0102  0.0724
10208TIP3    H154819   0.456   5.055   0.947 -1.9499 -0.2346  1.6030
10208TIP3    H254820   0.508   5.196   0.964  0.0319 -0.8844  1.1719
10209TIP3   OH254821   7.576   2.830   2.981  0.4517  0.2844 -0.0591
10209TIP3    H154822   7.615   2.906   3.025  0.3365 -0.1552  0.8332
10209TIP3    H254823   7.572   2.762   3.049 -1.9586  0.3323 -0.0635
10210TIP3   OH254824   4.815   1.427   2.367  0.2157  0.5546 -0.7220
10210TIP3    H154825   4.747   1.488   2.394  0.8112  0.5891  0.7865
10210TIP3    H254826   4.893   1.481   2.355  0.4757  0.2407 -0.4630
10211TIP3   OH254827   0.764   7.041   1.256  0.0191 -0.5507 -0.6667
10211TIP3    H154828   0.718   6.966   1.294 -0.1841  0.0282  0.2592
10211TIP3    H254829   0.697   7.088   1.208  0.2547 -1.2291 -1.6820
10212TIP3   OH254830   0.471   4.030   3.388  0.0085  1.0432  0.4596
10212TIP3    H154831   0.496   3.941   3.362 -1.7657  0.2262  1.3346
10212TIP3    H254832   0.549   4.066   3.430  0.7373 -0.1340  0.1561
10213TIP3   OH254833   6.021   6.837   0.798  0.3695 -0.0502 -0.1360
10213TIP3    H154834   6.097   6.837   0.740 -0.5132 -0.6290 -1.3615
10213TIP3    H254835   5.955   6.785   0.750 -0.8043  0.4837  0.8471
10214TIP3   OH254836   2.730   3.893   2.017 -0.5645  0.3031  0.3030
10214TIP3    H154837   2.664   3.956   2.045 -1.7781 -0.2166 -1.1927
10214TIP3    H254838   2.749   3.916   1.926  0.1621 -0.4970  0.2336
10215TIP3   OH254839   5.799   2.057   1.441  0.0455  0.1222 -0.2642
10215TIP3    H154840   5.818   2.143   1.403 -1.2576  1.0850  1.1244
10215TIP3    H254841   5.842   1.994   1.382  0.1229  1.6495 -1.9284
10216TIP3   OH254842   3.786   5.868   1.270  0.0026  0.3302 -0.1835
10216TIP3    H154843   3.759   5.777   1.272  0.6321  0.0851 -1.5320
10216TIP3    H254844   3.713   5.914   1.229  0.3545  0.1523 -1.0315
10217TIP3   OH254845   1.475   2.690   2.744  0.1309  0.1662  0.1215
10217TIP3    H154846   1.405   2.704   2.680  0.2723  1.6306  0.2677
10217TIP3    H254847   1.459   2.601   2.777 -0.2791 -0.4027 -1.5134
10218TIP3   OH254848   5.684   4.406   1.686  0.0515  0.5317  0.0089
10218TIP3    H154849   5.704   4.450   1.603 -0.0651  0.9363  0.1947
10218TIP3    H254850   5.653   4.476   1.744 -0.5731  0.1333  0.1630
10219TIP3   OH254851   0.104   7.465   0.704  0.2006  0.4618  0.2317
10219TIP3    H154852   0.067   7.543   0.664  1.5565  0.0673 -1.9401
10219TIP3    H254853   0.175   7.497   0.759  0.8036  0.7832 -0.7138
10220TIP3   OH254854   4.902   7.311   1.467  0.7369  0.3417 -0.3182
10220TIP3    H154855   4.980   7.362   1.444  2.0590 -1.0138  0.9182
10220TIP3    H254856   4.893   7.248   1.395 -0.5970  1.9083 -1.5893
10221TIP3   OH254857   0.280   0.593   1.562  0.0857  0.5372 -0.6089
10221TIP3    H154858   0.254   0.650   1.489 -0.0957  1.7995  0.4092
10221TIP3    H254859   0.359   0.634   1.598  0.3793 -0.2727 -0.3154
10222TIP3   OH254860   6.788   6.867   1.433  0.3452 -0.3583  0.7446
10222TIP3    H154861   6.775   6.938   1.497  1.0083  0.3829  0.0720
10222TIP3    H254862   6.808   6.791   1.487 -1.1182 -0.2395  1.5251
10223TIP3   OH254863   0.987   5.050   2.252  0.0684 -0.1608  0.0934
10223TIP3    H154864   1.017   4.978   2.197  0.6981  0.4764 -0.4178
10223TIP3    H254865   0.891   5.044   2.249  0.0549  0.3496 -1.7833
10224TIP3   OH254866   2.523   3.522   0.983 -0.1448 -0.5030 -0.4507
10224TIP3    H154867   2.510   3.617   0.981  0.2644 -0.4502 -2.3971
10224TIP3    H254868   2.460   3.491   1.047  1.9508  1.3722  2.8538
10225TIP3   OH254869   0.841   3.306   2.164  0.6924  0.1563 -0.1954
10225TIP3    H154870   0.900   3.255   2.220  0.1101 -0.2514  0.0509
10225TIP3    H254871   0.897   3.336   2.092  0.9695 -1.1150 -0.5250
10226TIP3   OH254872   4.994   5.792   1.636 -0.0964  0.8534  0.3835
10226TIP3    H154873   5.059   5.765   1.700 -0.7898  2.6124  1.9101
10226TIP3    H254874   5.034   5.865   1.590 -0.1225  0.4539 -0.2914
10227TIP3   OH254875   0.009   5.604   0.976 -0.4005 -0.7430  0.4132
10227TIP3    H154876  -0.065   5.546   0.990 -0.4058 -1.1824 -1.3115
10227TIP3    H254877   0.053   5.570   0.898  0.7441  0.3994  0.5200
10228TIP3   OH254878   5.603   6.560   2.308 -0.2936  0.2260 -0.1048
10228TIP3    H154879   5.575   6.469   2.310 -0.7375  0.3639  0.2047
10228TIP3    H254880   5.546   6.602   2.244  0.6778  0.0486 -1.1082
10229TIP3   OH254881   1.221   4.023   3.095 -0.0841 -0.0986  0.0487
10229TIP3    H154882   1.307   4.018   3.054 -0.0490  2.4650 -0.3450
10229TIP3    H254883   1.168   3.960   3.046  1.2716 -0.9477 -0.3889
10230TIP3   OH254884   5.731   1.313   2.048 -0.0377 -0.0651 -0.2509
10230TIP3    H154885   5.772   1.388   2.092 -0.5359  1.4345 -2.1790
10230TIP3    H254886   5.665   1.353   1.991 -0.3891 -2.0016 -1.2680
10231TIP3   OH254887   1.694   0.720   1.290  0.2582 -0.4731  0.2721
10231TIP3    H154888   1.730   0.769   1.217  2.0996 -1.9151  0.1406
10231TIP3    H254889   1.600   0.715   1.271  0.1892  1.8616 -0.3103
10232TIP3   OH254890   2.777   4.562   1.420  0.0994  0.3878  0.6707
10232TIP3    H154891   2.849   4.553   1.483 -0.5087  1.2112  1.5072
10232TIP3    H254892   2.820   4.559   1.334  0.9803 -0.3908  1.1159
10233TIP3   OH254893   4.607   6.324   0.645  0.3503 -0.2262 -0.4925
10233TIP3    H154894   4.650   6.241   0.667  2.3648  0.5106 -1.3473
10233TIP3    H254895   4.583   6.314   0.553 -0.6795 -0.3547 -0.2154
10234TIP3   OH254896   2.202   2.952   1.540 -0.1220  0.3129 -0.0013
10234TIP3    H154897   2.147   2.875   1.527 -0.0662  0.0835  1.0861
10234TIP3    H254898   2.287   2.928   1.502 -0.2362  0.0004 -0.0575
10235TIP3   OH254899   3.893   3.257   2.883  0.5125 -0.1154 -0.9712
10235TIP3    H154900   3.893   3.305   2.967  2.2159 -1.0395 -0.4123
10235TIP3    H254901   3.844   3.315   2.824 -0.0663  0.9254  0.4357
10236TIP3   OH254902   0.562   1.867   2.169  0.2749  0.1741 -0.2910
10236TIP3    H154903   0.474   1.906   2.176 -0.0204 -0.3732 -0.8530
10236TIP3    H254904   0.571   1.814   2.248  0.3050  0.6382  0.0194
10237TIP3   OH254905   4.568   6.154   2.023 -0.2140 -0.5890 -0.2334
10237TIP3    H154906   4.582   6.227   1.963 -0.6982 -2.6725 -3.1160
10237TIP3    H254907   4.483   6.172   2.064 -0.6014  0.2222 -1.3478
10238TIP3   OH254908   6.049   1.643   2.506  0.1576 -0.0918  0.1894
10238TIP3    H154909   5.994   1.648   2.584 -0.9427 -0.5713 -0.5189
10238TIP3    H254910   6.086   1.730   2.497 -1.8145  0.7651 -0.2106
10239TIP3   OH254911   3.908   2.225   1.623 -0.4029  0.3713 -0.3716
10239TIP3    H154912   3.918   2.183   1.709 -1.3394 -1.4590 -1.0939
10239TIP3    H254913   3.909   2.319   1.642 -0.8871  0.0146  1.6833
10240TIP3   OH254914   6.276   5.940   3.281 -0.5033  0.5539 -0.0230
10240TIP3    H154915   6.255   6.012   3.223  2.0094 -0.6179 -2.6358
10240TIP3    H254916   6.233   5.864   3.242  1.6623 -0.3546 -0.8335
10241TIP3   OH254917   3.430   0.027   1.204  0.2053  0.0983  0.2815
10241TIP3    H154918   3.496   0.085   1.164 -0.3782  1.3625  1.0730
10241TIP3    H254919   3.366   0.087   1.242 -1.6842 -1.0755 -0.8800
10242TIP3   OH254920   1.289   5.742   1.463 -0.1794 -0.4037  0.1386
10242TIP3    H154921   1.214   5.699   1.420 -0.1711 -1.2291  0.9208
10242TIP3    H254922   1.356   5.674   1.466  0.5133  0.2549 -0.3181
10243TIP3   OH254923   2.305   5.896   1.989  0.3744  0.5685  0.3256
10243TIP3    H154924   2.234   5.854   2.037  0.1035  1.3758  0.6601
10243TIP3    H254925   2.372   5.829   1.981 -0.6580 -0.3951 -0.5304
10244TIP3   OH254926   6.398   5.401   1.857 -0.0772 -0.4238  0.0963
10244TIP3    H154927   6.335   5.402   1.929  1.2732 -1.6864  1.3777
10244TIP3    H254928   6.455   5.476   1.874 -0.7840  0.2981 -0.6598
10245TIP3   OH254929   2.222   7.640   1.970  0.1215 -0.0070 -0.3777
10245TIP3    H154930   2.143   7.685   1.938  0.4334 -0.8201 -2.4316
10245TIP3    H254931   2.288   7.658   1.904  1.7252  0.6445  1.3012
10246TIP3   OH254932   5.004   1.503   2.655  0.1822  0.0976 -0.4780
10246TIP3    H154933   4.932   1.440   2.645  0.3139 -0.0242 -0.6478
10246TIP3    H254934   5.037   1.486   2.743  0.7768 -0.6580 -0.8379
10247TIP3   OH254935   3.921   0.745   2.861  0.5816 -0.4213  0.2207
10247TIP3    H154936   3.879   0.797   2.930 -0.6364 -0.0828 -0.7358
10247TIP3    H254937   4.015   0.757   2.876  0.3335  0.9035  0.8957
10248TIP3   OH254938   5.087   6.433   2.459  0.1927 -0.1352  0.1315
10248TIP3    H154939   5.011   6.418   2.515 -2.2588  4.2019 -1.5751
10248TIP3    H254940   5.079   6.368   2.389 -0.2038 -1.5712  1.4547
10249TIP3   OH254941   3.629   5.802   2.450 -0.2426 -0.5520 -0.3218
10249TIP3    H154942   3.538   5.775   2.461 -0.5308  0.7338  0.7072
10249TIP3    H254943   3.642   5.804   2.356 -2.1852  1.9783 -0.6475
10250TIP3   OH254944   2.460   5.779   2.321  0.6565  0.0766 -0.0498
10250TIP3    H154945   2.419   5.694   2.335  0.6736 -0.1661 -1.4041
10250TIP3    H254946   2.550   5.768   2.351  0.3554 -0.0330  0.8496
10251TIP3   OH254947   4.644   3.188   2.742 -0.0548  0.6312  0.9982
10251TIP3    H154948   4.724   3.162   2.788  1.0202  0.9234 -0.6155
10251TIP3    H254949   4.642   3.132   2.664 -0.9882  1.1817  0.6116
10252TIP3   OH254950   4.236   4.804   0.746 -0.3545 -0.2790 -0.1096
10252TIP3    H154951   4.311   4.864   0.748 -0.0686 -0.5854  2.5139
10252TIP3    H254952   4.266   4.729   0.694  1.5421 -0.7542  1.5169
10253TIP3   OH254953   0.273   5.701   1.475 -0.3305  0.1141  0.1769
10253TIP3    H154954   0.213   5.632   1.448  2.1228 -1.1820 -2.6273
10253TIP3    H254955   0.229   5.783   1.451 -1.5196 -0.7106 -0.5697
10254TIP3   OH254956   1.134   3.539   2.928 -0.5987 -0.2640  0.2907
10254TIP3    H154957   1.121   3.468   2.865 -0.4055 -1.1026  1.1674
10254TIP3    H254958   1.119   3.498   3.013  2.3308  0.0074  1.0509
10255TIP3   OH254959   0.253   4.256   3.342 -0.0183  0.9652  0.8169
10255TIP3    H154960   0.257   4.327   3.277  2.9958 -0.5722 -0.9062
10255TIP3    H254961   0.329   4.271   3.398 -0.2186 -0.0656  1.3796
10256TIP3   OH254962   0.845   3.717   2.857  0.3192 -0.0824 -0.0706
10256TIP3    H154963   0.929   3.746   2.894  0.0358 -1.2872  1.6468
10256TIP3    H254964   0.869   3.662   2.783  1.1143 -0.9621  0.8067
10257TIP3   OH254965   3.709   0.566   2.163  0.3552  0.0153  0.2211
10257TIP3    H154966   3.778   0.563   2.096  0.7410  0.2188  0.6087
10257TIP3    H254967   3.628   0.576   2.112  0.5289 -0.9875 -0.2741
10258TIP3   OH254968   7.062   6.705   3.009 -0.3942 -0.1271  0.5752
10258TIP3    H154969   7.153   6.680   2.995 -0.2081  1.6750 -2.2286
10258TIP3    H254970   7.024   6.632   3.058  2.0201 -1.9028 -0.0364
10259TIP3   OH254971   0.907   7.348   1.202 -0.1689 -0.1106  0.0987
10259TIP3    H154972   0.848   7.273   1.215  2.1675 -2.4364 -1.6292
10259TIP3    H254973   0.983   7.328   1.257  1.3194 -0.0598 -1.8520
10260TIP3   OH254974   6.680   0.861   3.223  0.3122 -0.5445 -0.1622
10260TIP3    H154975   6.730   0.805   3.283  0.5494 -0.5314 -0.3465
10260TIP3    H254976   6.589   0.840   3.241  0.3189  0.5102  1.2453
10261TIP3   OH254977   6.688   2.760   0.530 -0.7420 -0.4885  0.1057
10261TIP3    H154978   6.692   2.679   0.581  0.9784 -0.8768 -0.5559
10261TIP3    H254979   6.740   2.741   0.452 -0.9602  1.0165 -0.4403
10262TIP3   OH254980   1.300   5.261   3.257 -0.1376  0.2089 -0.4550
10262TIP3    H154981   1.392   5.244   3.277 -0.6570 -1.1999  0.9024
10262TIP3    H254982   1.299   5.352   3.227  1.4906  0.7767  1.0113
10263TIP3   OH254983   3.939   7.074   2.439 -0.4190  0.0601  0.0310
10263TIP3    H154984   3.976   6.986   2.443  0.4129  0.3781 -0.3686
10263TIP3    H254985   3.903   7.081   2.350 -0.7223  0.0298  0.1516
10264TIP3   OH254986   1.264   1.352   3.219 -0.9416  0.4191  0.1626
10264TIP3    H154987   1.313   1.391   3.147 -1.0902  3.0668  1.3722
10264TIP3    H254988   1.189   1.411   3.231 -0.6410  0.3637  2.7542
10265TIP3   OH254989   4.073   0.031   1.705 -0.5040 -0.0390  0.2734
10265TIP3    H154990   4.143  -0.017   1.660  0.8192  0.8229  1.3273
10265TIP3    H254991   3.992  -0.012   1.677  0.4776 -1.4304 -0.5355
10266TIP3   OH254992   2.729   6.944   2.344  0.1710  0.2973  0.1519
10266TIP3    H154993   2.758   6.984   2.262 -0.0087 -0.6500 -0.3901
10266TIP3    H254994   2.809   6.912   2.385  0.4456  2.1470  1.1208
10267TIP3   OH254995   5.376   5.360   2.290  0.0421  0.0632 -0.2500
10267TIP3    H154996   5.458   5.354   2.241 -0.1347  3.2545 -1.1438
10267TIP3    H254997   5.376   5.449   2.327 -2.7802 -0.0048  0.1625
10268TIP3   OH254998   2.088   5.552   1.906 -0.6516 -0.1256  0.4598
10268TIP3    H154999   2.130   5.549   1.820 -1.5992 -2.7152  0.0163
10268TIP3    H255000   2.127   5.480   1.955 -0.0882  1.3435  2.2834
10269TIP3   OH255001   2.820   5.265   2.623  0.7707 -0.4544 -0.2157
10269TIP3    H155002   2.867   5.291   2.702  3.3904 -3.2269 -0.6757
10269TIP3    H255003   2.746   5.214   2.655  0.3143  0.5999  0.4594
10270TIP3   OH255004   2.568   5.405   0.905 -1.3503 -0.1183 -0.0780
10270TIP3    H155005   2.589   5.484   0.855 -1.1160 -0.4964 -0.5791
10270TIP3    H255006   2.567   5.335   0.841  1.5716 -1.0945  0.7712
10271TIP3   OH255007   6.928   6.695   1.033  0.1842  0.5214  0.0014
10271TIP3    H155008   6.901   6.622   1.088 -0.9638  0.4564 -0.6076
10271TIP3    H255009   7.022   6.682   1.020  0.2604 -0.0482  1.0550
10272TIP3   OH255010   5.983   2.758   0.659 -0.4303 -0.5153 -0.2704
10272TIP3    H155011   6.064   2.779   0.613 -1.1621  0.4246 -1.1728
10272TIP3    H255012   5.991   2.665   0.681  1.2966 -0.2198  0.5263
10273TIP3   OH255013   5.854   6.437   1.771  0.0516 -0.3469  0.2077
10273TIP3    H155014   5.840   6.516   1.719  0.4588 -0.5059 -0.1485
10273TIP3    H255015   5.828   6.462   1.860 -1.8615 -0.4414 -0.2916
10274TIP3   OH255016   4.279   6.075   2.012 -0.3532 -0.5860  0.3470
10274TIP3    H155017   4.307   6.138   1.946  0.2573 -0.8940  0.3046
10274TIP3    H255018   4.209   6.120   2.060 -1.2075 -0.5673 -0.8689
10275TIP3   OH255019   4.323   4.215   3.219 -0.1188  0.2353 -0.2517
10275TIP3    H155020   4.318   4.297   3.169 -2.1339  1.1985  1.3554
10275TIP3    H255021   4.395   4.229   3.281 -0.1053  0.5867 -0.3422
10276TIP3   OH255022   1.080   3.404   3.149  0.3424  0.6476  0.4016
10276TIP3    H155023   1.149   3.386   3.213 -0.6242 -0.8571  1.0533
10276TIP3    H255024   1.030   3.323   3.143 -0.2545  1.1034 -1.4740
10277TIP3   OH255025   4.796   6.593   1.820  0.5122  0.9547 -0.3869
10277TIP3    H155026   4.823   6.604   1.728 -1.3233  2.3935 -0.8071
10277TIP3    H255027   4.805   6.681   1.858  1.3164  0.3593  0.8575
10278TIP3   OH255028   2.148   0.491   1.703  0.2838  0.3167 -0.1596
10278TIP3    H155029   2.231   0.538   1.716  0.9434 -0.9364  0.3442
10278TIP3    H255030   2.085   0.538   1.757  1.1691  0.0165  1.1744
10279TIP3   OH255031   7.144   0.555   1.009  0.1682 -0.2106 -0.3111
10279TIP3    H155032   7.158   0.482   1.070  0.1905 -1.3791 -1.6587
10279TIP3    H255033   7.140   0.632   1.065  3.1424 -0.8294  0.9771
10280TIP3   OH255034   0.356   4.046   1.772  0.1637  0.1330 -0.3307
10280TIP3    H155035   0.331   4.034   1.863 -1.0085 -0.8689 -0.7619
10280TIP3    H255036   0.296   4.113   1.739  0.4248  0.3175 -0.4351
10281TIP3   OH255037   4.396   5.500   1.796 -0.3973  0.0271 -0.1859
10281TIP3    H155038   4.354   5.575   1.838  0.2211  0.7878 -0.9043
10281TIP3    H255039   4.419   5.442   1.869  0.5260  1.2506  0.5334
10282TIP3   OH255040   5.646   1.767   1.875 -0.1118  0.2154 -0.1632
10282TIP3    H155041   5.664   1.703   1.805 -0.9976  0.2661 -0.4569
10282TIP3    H255042   5.687   1.730   1.953 -0.5276 -0.6865 -0.3528
10283TIP3   OH255043   4.459   3.663   3.229  0.0157  0.2725 -0.4095
10283TIP3    H155044   4.407   3.730   3.184  0.7033 -0.2453 -2.0711
10283TIP3    H255045   4.450   3.684   3.322  1.1949  3.4414 -0.8813
10284TIP3   OH255046   1.045   5.588   1.122  0.5209 -0.6970 -0.2796
10284TIP3    H155047   1.019   5.602   1.213  1.0693  0.1829 -0.2434
10284TIP3    H255048   0.986   5.519   1.090 -0.6539  0.0127  0.3044
10285TIP3   OH255049   2.184   6.167   1.520 -0.3329 -0.0026  0.1387
10285TIP3    H155050   2.250   6.171   1.451 -0.7511 -1.3321 -0.3908
10285TIP3    H255051   2.109   6.215   1.484  0.1332  1.0195  0.5073
10286TIP3   OH255052   5.061   2.770   2.712  0.0010 -0.2220 -0.0336
10286TIP3    H155053   5.063   2.856   2.756 -1.0749 -0.5409  0.6813
10286TIP3    H255054   5.109   2.784   2.630  1.0457  0.6963  0.7001
10287TIP3   OH255055   6.086   3.752   2.883 -0.3478  0.0396  0.0187
10287TIP3    H155056   6.023   3.686   2.911  1.1440 -0.5197  2.3546
10287TIP3    H255057   6.042   3.836   2.897 -0.9100 -0.3629  0.6937
10288TIP3   OH255058   5.491   3.576   1.704 -0.3215 -0.0963  0.3806
10288TIP3    H155059   5.436   3.619   1.637  0.1581 -1.2845 -0.8294
10288TIP3    H255060   5.577   3.569   1.663 -0.4170 -2.3110  0.4320
10289TIP3   OH255061   0.897   1.083   1.680 -0.3435  0.1443  0.2870
10289TIP3    H155062   0.808   1.062   1.650  0.1197 -2.0903  0.2517
10289TIP3    H255063   0.883   1.130   1.763 -1.5808 -0.5211  0.4902
10290TIP3   OH255064   4.568   1.518   2.502 -0.3676 -0.3254 -0.3515
10290TIP3    H155065   4.556   1.447   2.566 -0.1100 -0.4300 -0.4198
10290TIP3    H255066   4.534   1.596   2.546 -0.2727 -0.4146 -0.1203
10291TIP3   OH255067   6.333   1.702   2.818 -0.0269  0.1120 -0.0064
10291TIP3    H155068   6.384   1.658   2.887 -0.6122  0.4850  0.6829
10291TIP3    H255069   6.384   1.690   2.739 -0.0464 -1.6330  0.1979
10292TIP3   OH255070   4.366   7.415   0.759 -0.0637  0.2440  1.0382
10292TIP3    H155071   4.321   7.499   0.769  0.7941  0.7102  1.1199
10292TIP3    H255072   4.387   7.388   0.849  0.8234  0.6026  0.9463
10293TIP3   OH255073   7.076   3.593   1.542  0.2916  0.3686 -0.2394
10293TIP3    H155074   7.092   3.568   1.451  0.5486  0.7270 -0.2937
10293TIP3    H255075   7.147   3.654   1.564  0.4763 -0.0421  0.3372
10294TIP3   OH255076   1.957   2.754   2.737 -0.1582  0.2488  1.0050
10294TIP3    H155077   2.047   2.749   2.770  0.4155 -0.8581 -0.5990
10294TIP3    H255078   1.967   2.790   2.648 -1.4975  1.7579  1.4141
10295TIP3   OH255079   1.317   5.119   0.599 -0.1952 -0.0404 -0.2646
10295TIP3    H155080   1.255   5.079   0.661  1.2558  0.8712  1.8964
10295TIP3    H255081   1.398   5.127   0.648  1.4395 -0.3780 -2.7307
10296TIP3   OH255082   2.509   7.200   1.308  0.3735 -0.5569  0.6269
10296TIP3    H155083   2.548   7.128   1.357  0.7562 -0.9226 -0.2062
10296TIP3    H255084   2.423   7.167   1.283  0.3517 -0.5336  0.6704
10297TIP3   OH255085   7.117   3.395   0.939 -0.6054 -0.2792 -0.5139
10297TIP3    H155086   7.178   3.468   0.945 -0.2249 -0.6200 -0.0583
10297TIP3    H255087   7.171   3.321   0.910 -0.9589 -0.4068 -0.8518
10298TIP3   OH255088   5.522   2.028   0.574  0.2276  0.1052 -0.6368
10298TIP3    H155089   5.520   2.116   0.611  0.4363  0.0590 -0.5067
10298TIP3    H255090   5.452   1.981   0.620  0.6469 -0.0213 -0.1024
10299TIP3   OH255091   2.746   4.230   1.097 -0.0727 -0.4690 -0.2249
10299TIP3    H155092   2.751   4.322   1.069  0.7495 -0.4655 -0.0942
10299TIP3    H255093   2.656   4.204   1.078 -0.2599  0.3111 -0.4401
10300TIP3   OH255094   4.877   5.128   2.332  0.0928  0.1396  0.3892
10300TIP3    H155095   4.832   5.208   2.361 -0.3245  0.0131  0.0897
10300TIP3    H255096   4.852   5.062   2.398 -0.8904 -0.1587 -0.2546
10301TIP3   OH255097   0.623   1.740   2.439 -0.6066  0.6687 -0.1514
10301TIP3    H155098   0.673   1.809   2.481 -0.4548  2.0912 -2.4502
10301TIP3    H255099   0.687   1.691   2.387 -1.2244  1.1592 -1.4312
10302TIP3   OH255100   1.992   0.060   1.877 -0.5708 -0.7544 -0.7587
10302TIP3    H155101   1.950   0.099   1.954 -0.0066 -0.3660 -0.6404
10302TIP3    H255102   1.957   0.111   1.803  1.5960  1.3680 -0.4720
10303TIP3   OH255103   1.060   4.774   0.916 -0.6514 -0.0403 -0.4748
10303TIP3    H155104   1.037   4.749   1.006  0.0258  1.7872  0.2569
10303TIP3    H255105   1.124   4.707   0.889 -0.0582 -0.0427  0.8076
10304TIP3   OH255106   5.019   4.172   0.680  0.1975  0.0486 -0.6438
10304TIP3    H155107   5.087   4.239   0.677 -0.3116  0.7145  1.1414
10304TIP3    H255108   4.937   4.221   0.670 -0.1984 -0.2067  0.9936
10305TIP3   OH255109   1.738   2.019   1.245 -0.2461  0.5387 -0.0771
10305TIP3    H155110   1.705   2.109   1.244  0.4737  0.8177  0.8285
10305TIP3    H255111   1.824   2.024   1.203  0.5610  0.5941  1.5264
10306TIP3   OH255112   6.468   6.278   2.485  0.6067  0.4616  0.1804
10306TIP3    H155113   6.516   6.195   2.485 -0.3863 -0.1535 -1.3119
10306TIP3    H255114   6.382   6.256   2.521  0.6732  1.0744  0.7259
10307TIP3   OH255115   7.621   3.612   3.858  0.3656  0.2871 -0.1235
10307TIP3    H155116   7.685   3.666   3.812  2.2827 -1.4725  0.3213
10307TIP3    H255117   7.665   3.527   3.868 -0.9103 -0.1261  2.7878
10308TIP3   OH255118   6.337   6.829   2.530  0.2590  0.3584  0.5116
10308TIP3    H155119   6.346   6.735   2.547 -1.3135  0.0491 -0.2036
10308TIP3    H255120   6.243   6.843   2.524  0.4921  1.8961  0.1062
10309TIP3   OH255121   1.514   7.121   1.903 -0.0497  0.1502  0.2386
10309TIP3    H155122   1.440   7.087   1.853  2.5882 -0.8410 -3.4768
10309TIP3    H255123   1.547   7.046   1.951  0.7389 -0.4560 -1.1888
10310TIP3   OH255124   0.707   3.342   3.019  0.2086  0.0298  0.5053
10310TIP3    H155125   0.756   3.314   3.096 -0.1021  0.6722  0.9476
10310TIP3    H255126   0.678   3.430   3.040 -0.8564 -0.2151  0.1214
10311TIP3   OH255127   2.476   4.943   1.194  0.3054 -0.1236 -0.7014
10311TIP3    H155128   2.403   4.897   1.234  0.5653 -0.2463 -0.3609
10311TIP3    H255129   2.550   4.927   1.253  0.4304  0.6080 -0.6463
10312TIP3   OH255130   3.886   4.689   1.993  0.3556 -0.2511  0.5771
10312TIP3    H155131   3.884   4.734   1.909 -0.7395  0.6200  1.0447
10312TIP3    H255132   3.819   4.620   1.985  2.6189 -2.4844 -0.4507
10313TIP3   OH255133   4.265   4.560   1.893 -0.0454 -0.3416  0.4195
10313TIP3    H155134   4.169   4.552   1.891 -0.2441  1.5662  0.8949
10313TIP3    H255135   4.285   4.591   1.981  1.3772 -3.8978  1.5608
10314TIP3   OH255136   3.237   5.847   2.317 -0.2312  0.0273  0.1658
10314TIP3    H155137   3.281   5.827   2.235 -1.6024 -1.7665 -0.1893
10314TIP3    H255138   3.286   5.798   2.384 -0.4404 -0.3025  0.0789
10315TIP3   OH255139   5.408   1.704   2.010  0.2324  0.0588 -0.4230
10315TIP3    H155140   5.492   1.736   1.976 -0.6342  2.6690 -0.3535
10315TIP3    H255141   5.426   1.680   2.100  0.5895  2.4824  0.2249
10316TIP3   OH255142   6.519   1.558   1.439  0.0404  0.1066 -0.0950
10316TIP3    H155143   6.601   1.557   1.489  0.5320  0.4592 -0.8719
10316TIP3    H255144   6.451   1.557   1.506  0.6226 -2.3477  0.5603
10317TIP3   OH255145   4.076   2.178   2.342 -0.2696  0.2123  0.6356
10317TIP3    H155146   4.011   2.248   2.355 -0.7702  0.2345 -1.5360
10317TIP3    H255147   4.092   2.179   2.248  1.2761 -1.2609  0.8533
10318TIP3   OH255148   4.896   0.056   2.155  0.7439 -0.0329  0.1851
10318TIP3    H155149   4.968   0.107   2.118  0.2916 -0.0802 -0.7940
10318TIP3    H255150   4.902   0.071   2.249  0.6008  1.8627 -0.0738
10319TIP3   OH255151   7.342   2.111   1.811  0.1225  0.5465  0.5827
10319TIP3    H155152   7.394   2.158   1.876 -0.8168 -0.8242  2.4325
10319TIP3    H255153   7.389   2.028   1.799 -1.1293 -0.3413  1.6174
10320TIP3   OH255154   0.910   1.247   2.388  0.2878  0.0119 -0.0984
10320TIP3    H155155   0.886   1.318   2.448  0.2653 -0.0718 -0.0093
10320TIP3    H255156   0.975   1.196   2.436  1.0230  0.5186 -0.5169
10321TIP3   OH255157   1.327   4.160   1.737 -0.3937  0.3475  0.2318
10321TIP3    H155158   1.408   4.127   1.778 -0.2714 -0.2786 -0.4983
10321TIP3    H255159   1.351   4.175   1.646 -1.0918  0.1978  0.0188
10322TIP3   OH255160   5.115   5.317   1.027  0.7644  0.1682  0.0239
10322TIP3    H155161   5.162   5.243   1.065  0.4743 -2.0094 -3.4404
10322TIP3    H255162   5.033   5.321   1.077  1.4641 -0.7605  1.3125
10323TIP3   OH255163   7.389   3.370   0.719 -0.3051  0.2268  0.1407
10323TIP3    H155164   7.413   3.399   0.807  1.8542 -0.0728 -0.2674
10323TIP3    H255165   7.353   3.447   0.677  1.3800  1.2229  0.4105
10324TIP3   OH255166   2.036   5.983   2.174  0.2594  0.0714 -0.3737
10324TIP3    H155167   1.965   5.975   2.110  1.4664 -0.6597 -1.6943
10324TIP3    H255168   2.083   5.899   2.167 -0.4376 -0.6538  2.5891
10325TIP3   OH255169   5.325   7.295   3.009  0.3605 -0.4518 -0.2088
10325TIP3    H155170   5.291   7.213   2.973  0.8893 -0.7679  0.0174
10325TIP3    H255171   5.365   7.271   3.092  1.5303 -0.1640 -0.6649
10326TIP3   OH255172   1.085   0.817   1.391 -0.0196  0.1420  0.3357
10326TIP3    H155173   1.088   0.900   1.344  3.3854 -0.3366 -0.5191
10326TIP3    H255174   1.120   0.837   1.477  0.2967 -0.2982  0.3109
10327TIP3   OH255175   4.458   5.986   1.302  0.3597 -0.7105  0.5444
10327TIP3    H155176   4.386   6.008   1.243  0.4174 -0.7089  0.4740
10327TIP3    H255177   4.421   5.922   1.363 -0.3704  0.9999  1.9836
10328TIP3   OH255178   5.380   1.279   1.152 -0.0962 -0.5397 -0.0531
10328TIP3    H155179   5.413   1.283   1.242 -1.1419 -1.7530  0.4314
10328TIP3    H255180   5.296   1.326   1.155  0.2858  0.1999 -0.6242
10329TIP3   OH255181   0.897   5.406   1.971  0.1576  0.0382 -0.5017
10329TIP3    H155182   0.979   5.371   2.005  0.1803 -0.1451 -0.7383
10329TIP3    H255183   0.919   5.494   1.939 -0.2689  1.0105  1.6936
10330TIP3   OH255184   5.894   6.518   3.388 -0.3589 -0.5860 -0.2112
10330TIP3    H155185   5.816   6.538   3.440  0.4359  0.2075  0.7113
10330TIP3    H255186   5.929   6.439   3.429  0.2809  0.0530  0.4971
10331TIP3   OH255187   1.869   4.182   1.803 -0.0559  0.0830 -0.8702
10331TIP3    H155188   1.938   4.228   1.851 -2.0303  1.4518  0.7805
10331TIP3    H255189   1.817   4.250   1.762 -0.5634 -0.9091 -1.9410
10332TIP3   OH255190   3.204   6.149   2.035 -0.1918  0.1226 -0.2237
10332TIP3    H155191   3.209   6.228   1.982  0.2890 -0.0094 -0.3830
10332TIP3    H255192   3.259   6.169   2.111  0.6537 -0.3747 -0.6891
10333TIP3   OH255193   5.040   1.487   0.500 -0.0881  0.0950  0.5459
10333TIP3    H155194   4.945   1.496   0.487  0.1448  1.6384 -0.3512
10333TIP3    H255195   5.059   1.396   0.478 -1.3744 -0.2720  0.8672
10334TIP3   OH255196   5.898   2.607   1.701  0.2142 -0.8455  0.1937
10334TIP3    H155197   5.964   2.642   1.640  1.5118 -1.3789  1.2611
10334TIP3    H255198   5.883   2.517   1.671 -0.2897 -0.6335 -0.2278
10335TIP3   OH255199   1.950   6.246   1.811 -0.3098 -0.1453  0.3602
10335TIP3    H155200   2.037   6.208   1.824 -0.0009  0.8531  1.3764
10335TIP3    H255201   1.909   6.190   1.746  0.4611 -1.6703  1.1403
10336TIP3   OH255202   4.855   3.652   0.351  0.2525  0.2110  0.2704
10336TIP3    H155203   4.854   3.704   0.270  2.1217  0.5656  0.4147
10336TIP3    H255204   4.764   3.648   0.379 -0.1394  2.2070 -0.5422
10337TIP3   OH255205   0.389   5.657   0.910  0.0015 -0.0268 -0.5073
10337TIP3    H155206   0.477   5.669   0.874  1.5597 -1.2815  2.4857
10337TIP3    H255207   0.376   5.733   0.967 -0.4169 -0.3160 -0.2111
10338TIP3   OH255208   1.826   0.980   0.384 -0.2435 -0.0420  0.1562
10338TIP3    H155209   1.900   1.003   0.439  0.1281 -2.6193  0.8845
10338TIP3    H255210   1.849   0.894   0.348 -0.3156  1.5612 -4.3682
10339TIP3   OH255211   5.971   7.203   1.573 -0.1097 -0.2205  0.3169
10339TIP3    H155212   6.046   7.236   1.523 -1.4026 -1.0674 -2.3330
10339TIP3    H255213   5.902   7.268   1.560  0.1789  0.8174  3.1539
10340TIP3   OH255214   0.302   2.139   1.563  0.4559 -0.3394  0.5523
10340TIP3    H155215   0.354   2.204   1.610 -1.2801  0.4944  1.4242
10340TIP3    H255216   0.232   2.190   1.522 -2.3461 -1.7645  3.1576
10341TIP3   OH255217   7.012   5.791   1.159 -0.7919  0.2327  0.9507
10341TIP3    H155218   7.087   5.787   1.099 -0.9309  1.1073  0.7132
10341TIP3    H255219   6.972   5.704   1.153 -0.5080  0.1483  0.1634
10342TIP3   OH255220   7.600   1.759   2.837  0.3430 -0.3968 -0.1962
10342TIP3    H155221   7.505   1.763   2.820  0.3576  1.6318 -0.0558
10342TIP3    H255222   7.632   1.691   2.778 -0.9772  0.0341 -1.4699
10343TIP3   OH255223   2.218   7.192   1.555  0.2529  0.2147 -0.3629
10343TIP3    H155224   2.264   7.109   1.545 -0.1179  0.0027 -0.3394
10343TIP3    H255225   2.254   7.249   1.486 -0.2991 -0.3294 -1.1160
10344TIP3   OH255226   1.601   6.932   2.077 -0.1316 -0.2602 -0.3269
10344TIP3    H155227   1.613   6.988   2.153  1.0975 -0.3783 -0.4047
10344TIP3    H255228   1.676   6.872   2.080 -0.0982 -0.3023 -1.5908
10345TIP3   OH255229   2.610   2.995   1.803 -0.0713  0.5408 -0.0884
10345TIP3    H155230   2.616   3.063   1.869 -1.3918  1.5972 -1.0096
10345TIP3    H255231   2.525   3.008   1.761  0.3361 -0.6493 -1.3962
10346TIP3   OH255232   3.272   0.442   2.022 -0.0726  0.2312 -0.2432
10346TIP3    H155233   3.176   0.440   2.027 -0.0196  0.4641  1.9078
10346TIP3    H255234   3.299   0.351   2.033 -0.0411 -0.0908 -2.5537
10347TIP3   OH255235   2.889   1.936   1.139  0.3404 -0.1262 -0.5464
10347TIP3    H155236   2.811   1.957   1.190  1.4845  1.3989  0.6753
10347TIP3    H255237   2.948   1.894   1.202  2.6363  3.7212  0.1457
10348TIP3   OH255238   4.016   7.617   3.111 -0.2537  0.9119 -0.3879
10348TIP3    H155239   3.991   7.705   3.139  1.6070  1.5149 -0.4864
10348TIP3    H255240   3.954   7.596   3.041 -1.6432  1.5238  0.6029
10349TIP3   OH255241   4.312   6.768   1.345  0.0336  0.2026  0.0492
10349TIP3    H155242   4.368   6.807   1.278 -0.1146 -1.8015 -1.2884
10349TIP3    H255243   4.364   6.775   1.426  1.0459  0.8235 -0.6342
10350TIP3   OH255244   0.432   3.779   3.108  0.2625  0.6452  0.6006
10350TIP3    H155245   0.402   3.733   3.029  1.0196 -1.0505  1.2438
10350TIP3    H255246   0.357   3.832   3.135  0.0809  1.4773 -1.3885
10351TIP3   OH255247   5.647   4.323   0.824 -0.1021 -0.1921 -0.2613
10351TIP3    H155248   5.718   4.385   0.838  0.2539 -0.4241 -1.0119
10351TIP3    H255249   5.664   4.285   0.738 -1.2859 -0.0461 -0.5730
10352TIP3   OH255250   1.730   2.339   3.684 -0.1664 -0.0130  0.2090
10352TIP3    H155251   1.784   2.275   3.637 -1.8805 -1.6365  0.3549
10352TIP3    H255252   1.757   2.330   3.776 -0.8583 -1.0362  0.3258
10353TIP3   OH255253   1.231   2.220   2.500  0.1861  0.0699 -0.1682
10353TIP3    H155254   1.281   2.267   2.434  0.0960  2.9860  1.6741
10353TIP3    H255255   1.155   2.186   2.453  1.2893 -0.0586 -1.9704
10354TIP3   OH255256   1.787   4.872   2.526  0.0310 -0.2476  0.1297
10354TIP3    H155257   1.782   4.781   2.495  0.7298 -0.6296  1.0674
10354TIP3    H255258   1.801   4.863   2.621  0.4657  0.8424  0.1774
10355TIP3   OH255259   0.303   7.472   0.937  0.6041 -0.1888 -0.2340
10355TIP3    H155260   0.350   7.388   0.943  1.5209  0.4269  2.1492
10355TIP3    H255261   0.367   7.532   0.899  0.2554 -0.3248 -1.0616
10356TIP3   OH255262   7.416   0.841   2.104  0.0111 -0.0336 -0.1177
10356TIP3    H155263   7.424   0.862   2.197 -0.8820 -0.8301  0.1607
10356TIP3    H255264   7.360   0.910   2.069  0.2187  0.1790 -0.0329
10357TIP3   OH255265   7.593   1.718   2.450 -0.5369 -0.2256  0.6837
10357TIP3    H155266   7.628   1.793   2.499 -2.0040  2.4740 -2.0403
10357TIP3    H255267   7.498   1.723   2.463 -0.7950 -0.5216 -0.8862
10358TIP3   OH255268   0.883   7.159   0.557  0.3690  0.3571  0.4988
10358TIP3    H155269   0.956   7.160   0.619 -2.0872  1.6314  3.6625
10358TIP3    H255270   0.916   7.205   0.479  2.5598  2.0305  2.2829
10359TIP3   OH255271   7.125   7.624   2.138  0.0942  0.0416 -0.1348
10359TIP3    H155272   7.176   7.705   2.144  0.7308 -0.3799  0.1597
10359TIP3    H255273   7.081   7.616   2.222 -0.1298  0.1808 -0.2363
10360TIP3   OH255274   7.269   0.301   2.455  0.1372  0.3568 -0.2805
10360TIP3    H155275   7.359   0.306   2.485 -0.1247  1.2227  0.4144
10360TIP3    H255276   7.232   0.387   2.477 -0.9939 -0.1652 -0.0644
10361TIP3   OH255277   1.717   3.182   0.924 -0.8406  0.0699  0.4946
10361TIP3    H155278   1.759   3.120   0.984  0.6609  1.1999  0.6547
10361TIP3    H255279   1.624   3.159   0.927 -0.2679 -2.7589 -0.1429
10362TIP3   OH255280   0.675   0.369   2.418 -0.2398  0.2107 -0.0932
10362TIP3    H155281   0.650   0.380   2.326  0.4099 -0.5418 -0.3727
10362TIP3    H255282   0.628   0.290   2.445 -1.8831  1.4244  0.7786
10363TIP3   OH255283   7.168   0.063   2.436 -0.0387 -0.3956  0.2375
10363TIP3    H155284   7.206   0.145   2.467  0.6400 -0.9231  0.8235
10363TIP3    H255285   7.083   0.088   2.398 -0.4014  0.4112  1.5317
10364TIP3   OH255286   1.395   1.926   2.877  0.3191 -0.8130 -0.2275
10364TIP3    H155287   1.366   1.946   2.966 -2.2741  1.8483 -1.5041
10364TIP3    H255288   1.367   1.836   2.862 -1.6247 -0.4197  0.8034
10365TIP3   OH255289   7.556   2.860   1.261 -0.0044  0.6990 -0.7004
10365TIP3    H155290   7.475   2.875   1.213  0.6095  3.2633 -1.0738
10365TIP3    H255291   7.527   2.836   1.349 -1.1652  0.7537 -1.0517
10366TIP3   OH255292   3.255   7.544   1.063  0.1384  0.0760  0.2202
10366TIP3    H155293   3.300   7.504   0.989 -0.9858  0.5994 -0.7696
10366TIP3    H255294   3.320   7.601   1.102  0.8884 -0.5639 -0.0616
10367TIP3   OH255295   0.721   1.804   1.202 -0.2359 -0.0199 -0.2976
10367TIP3    H155296   0.692   1.893   1.224  2.2486  1.1937 -1.4580
10367TIP3    H255297   0.696   1.751   1.277 -1.0961  1.8074  0.7790
10368TIP3   OH255298   5.747   6.699   3.158  0.0346  0.8319 -0.7255
10368TIP3    H155299   5.796   6.619   3.178 -0.6533  0.7550  0.8177
10368TIP3    H255300   5.809   6.770   3.176 -0.2577  0.7252  0.9054
10369TIP3   OH255301   4.307   6.090   1.606  0.0886  0.6204  0.5015
10369TIP3    H155302   4.320   6.014   1.664 -0.0322  0.1737 -0.0505
10369TIP3    H255303   4.330   6.165   1.661  0.9897  0.1357  0.8125
10370TIP3   OH255304   5.526   6.494   1.935 -0.2696 -0.1656 -0.0725
10370TIP3    H155305   5.546   6.420   1.877  1.2267  0.2413 -0.1134
10370TIP3    H255306   5.611   6.520   1.971 -0.8730  1.0506  0.5287
10371TIP3   OH255307   5.439   2.798   1.075  0.1090 -0.3045  0.2337
10371TIP3    H155308   5.348   2.788   1.103 -0.1339 -0.2523 -0.5157
10371TIP3    H255309   5.485   2.724   1.116 -0.5356 -1.1281 -0.4898
10372TIP3   OH255310   3.898   7.190   3.116 -0.1796 -0.0346  0.1815
10372TIP3    H155311   3.973   7.238   3.151 -0.7942 -0.0090  1.5408
10372TIP3    H255312   3.823   7.248   3.132 -0.4261  0.2630 -1.8216
10373TIP3   OH255313   6.512   0.892   2.900  0.1837 -0.0649  0.4815
10373TIP3    H155314   6.545   0.852   2.820 -1.0821 -1.0646  0.4155
10373TIP3    H255315   6.455   0.825   2.938  1.0338  0.2719  2.4088
10374TIP3   OH255316   1.583   3.593   1.365 -0.4606  0.6847  0.1316
10374TIP3    H155317   1.489   3.573   1.357 -0.7196  2.3698 -1.7619
10374TIP3    H255318   1.586   3.686   1.386  0.8126  0.2273  2.2870
10375TIP3   OH255319   4.511   3.572   1.842  0.1357 -0.3921  0.7389
10375TIP3    H155320   4.533   3.596   1.752 -0.3517 -0.0780  0.7009
10375TIP3    H255321   4.428   3.526   1.835 -0.7797  1.1251  1.1934
10376TIP3   OH255322   0.892   4.599   1.711 -0.1427 -0.5452 -0.1947
10376TIP3    H155323   0.965   4.613   1.650 -0.3502 -0.7325 -0.4862
10376TIP3    H255324   0.906   4.664   1.780 -1.0570  1.0855 -1.4792
10377TIP3   OH255325   7.373   7.573   1.113 -0.5919 -0.1018 -0.2366
10377TIP3    H155326   7.372   7.478   1.120 -0.4296 -0.1581 -0.8637
10377TIP3    H255327   7.466   7.596   1.104 -0.6162  0.1307  0.0873
10378TIP3   OH255328   5.961   0.861   1.776  0.0068  0.4462  0.3795
10378TIP3    H155329   6.057   0.869   1.769  0.0818 -0.7983 -0.3995
10378TIP3    H255330   5.940   0.896   1.862  1.2011  0.4905  0.6730
10379TIP3   OH255331   7.025   6.508   2.303  0.2839  0.7873  0.0813
10379TIP3    H155332   7.095   6.470   2.250 -1.5076 -1.3372 -0.9857
10379TIP3    H255333   6.970   6.555   2.240  0.3567  1.8116  0.7689
10380TIP3   OH255334   7.637   5.642   2.689 -0.3386  0.0163  0.2534
10380TIP3    H155335   7.544   5.647   2.712 -1.2936 -2.3235 -2.4534
10380TIP3    H255336   7.651   5.717   2.631 -0.9422 -0.3529 -0.3906
10381TIP3   OH255337   1.059   0.068   2.570 -0.1684  0.5355 -0.4842
10381TIP3    H155338   0.973   0.032   2.545 -0.1097  0.6778 -0.8897
10381TIP3    H255339   1.113   0.056   2.492 -0.8145  3.7353 -1.5662
10382TIP3   OH255340   7.196   1.370   1.705 -0.5406  1.0666  0.2243
10382TIP3    H155341   7.188   1.350   1.798 -0.5701 -1.2248 -0.2021
10382TIP3    H255342   7.108   1.360   1.671 -0.2165  0.0260 -0.3474
10383TIP3   OH255343   6.491   5.881   0.629 -0.3992 -0.0638  0.1849
10383TIP3    H155344   6.445   5.947   0.681  1.2824  0.2287  1.3586
10383TIP3    H255345   6.446   5.882   0.544 -1.8695  0.9317  0.9406
10384TIP3   OH255346   7.633   2.605   1.013  0.0335 -0.2774  0.1143
10384TIP3    H155347   7.645   2.622   0.920  0.4787 -1.7733 -0.1206
10384TIP3    H255348   7.718   2.623   1.052  0.0111 -0.2327  0.1432
10385TIP3   OH255349   1.026   6.955   2.556  0.3895 -0.4079 -0.2924
10385TIP3    H155350   1.038   6.896   2.630 -2.8567 -0.6541  0.1789
10385TIP3    H255351   0.990   7.035   2.595  1.0711  0.4573 -1.3687
10386TIP3   OH255352   0.914   6.717   2.479 -0.3285 -0.3162 -0.1505
10386TIP3    H155353   0.990   6.700   2.424 -0.6823  2.0265 -1.5038
10386TIP3    H255354   0.919   6.811   2.498 -2.0805 -0.4045  0.9729
10387TIP3   OH255355   0.328   1.129   0.718  0.0480 -0.1143 -0.2707
10387TIP3    H155356   0.378   1.069   0.773  2.5303  0.0572 -2.1318
10387TIP3    H255357   0.357   1.108   0.629 -0.5745  2.4432 -1.1444
10388TIP3   OH255358   6.306   2.499   2.248  0.6316  0.5843  0.2977
10388TIP3    H155359   6.239   2.566   2.237 -1.0426 -1.2367 -1.1451
10388TIP3    H255360   6.352   2.497   2.164  1.9496  1.1708  0.9643
10389TIP3   OH255361   1.850   2.309   2.558 -0.1276 -0.2943  0.5201
10389TIP3    H155362   1.864   2.261   2.476  1.8165  0.2516  0.4791
10389TIP3    H255363   1.827   2.242   2.622 -2.2700 -0.6630 -0.5451
10390TIP3   OH255364   6.886   4.836   3.009 -0.6811 -0.1335  0.2817
10390TIP3    H155365   6.795   4.859   3.027 -0.2897  0.9127  1.0278
10390TIP3    H255366   6.911   4.780   3.082 -0.9959 -1.2015 -0.4164
10391TIP3   OH255367   4.183   6.690   2.093 -0.6138 -0.3967 -0.2308
10391TIP3    H155368   4.143   6.774   2.068  0.1949 -0.1219 -0.6349
10391TIP3    H255369   4.117   6.624   2.070 -0.4958 -0.0266 -1.7216
10392TIP3   OH255370   0.206   4.170   0.664  0.0205  0.1313 -0.0656
10392TIP3    H155371   0.255   4.134   0.738 -1.5325  1.5255  1.7424
10392TIP3    H255372   0.122   4.124   0.666 -0.3351  0.7483 -0.4461
10393TIP3   OH255373   7.456   4.217   1.645 -0.0256  0.1256  0.1726
10393TIP3    H155374   7.412   4.273   1.581  1.7182  0.7437 -0.5335
10393TIP3    H255375   7.467   4.273   1.722 -0.4760 -0.0321  0.3530
10394TIP3   OH255376   2.770   2.386   0.975  0.0939  0.2038  0.1285
10394TIP3    H155377   2.742   2.370   1.065  0.3475 -2.6132 -0.2334
10394TIP3    H255378   2.863   2.367   0.975  0.2105  0.7216 -0.6431
10395TIP3   OH255379   2.023   2.423   1.390 -0.7402 -0.3747  0.3491
10395TIP3    H155380   2.029   2.421   1.294 -1.5035  1.0106  0.2368
10395TIP3    H255381   2.110   2.400   1.420  0.0167  0.9312 -0.7283
10396TIP3   OH255382   3.678   7.364   3.156  0.0634  0.1738 -0.3332
10396TIP3    H155383   3.677   7.387   3.063  1.3163  0.2700 -0.3415
10396TIP3    H255384   3.615   7.293   3.164 -0.4408  0.5189 -1.1640
10397TIP3   OH255385   3.730   6.393   1.049 -0.5189  0.5566 -0.2506
10397TIP3    H155386   3.820   6.378   1.019 -1.5410 -1.3314 -2.6755
10397TIP3    H255387   3.708   6.480   1.016  0.3777  1.0681  0.4258
10398TIP3   OH255388   2.618   2.460   0.736 -0.5063  0.2470  0.0301
10398TIP3    H155389   2.588   2.391   0.677  1.7175 -0.6618 -0.0990
10398TIP3    H255390   2.665   2.415   0.805  0.9410  1.6105 -0.0123
10399TIP3   OH255391   4.565   5.641   1.325  0.3148 -0.8729  0.3501
10399TIP3    H155392   4.645   5.677   1.364  0.9516 -0.6222 -1.1130
10399TIP3    H255393   4.495   5.677   1.378  1.1270 -0.2864  1.0619
10400TIP3   OH255394   2.563   0.813   0.678 -0.2974  0.7421  0.4874
10400TIP3    H155395   2.578   0.822   0.772 -3.0701  3.4849  0.8369
10400TIP3    H255396   2.480   0.766   0.671 -1.3364  2.5686 -0.3893
10401TIP3   OH255397   6.218   3.712   2.556 -0.1190 -0.1489  0.4410
10401TIP3    H155398   6.219   3.668   2.470  0.5725 -1.5714  1.1357
10401TIP3    H255399   6.205   3.804   2.536 -0.8216 -0.5564 -1.1486
10402TIP3   OH255400   5.237   5.306   1.704 -0.0477 -0.4899 -0.1420
10402TIP3    H155401   5.302   5.301   1.774 -0.3398 -0.8604  0.1031
10402TIP3    H255402   5.286   5.289   1.624  0.3069  0.0366 -0.0405
10403TIP3   OH255403   0.066   4.315   2.620  0.3348  0.3003 -0.2069
10403TIP3    H155404   0.003   4.286   2.554 -1.7605  4.2606 -0.2581
10403TIP3    H255405   0.125   4.373   2.572  1.5142 -0.1794  0.6262
10404TIP3   OH255406   2.559   5.662   0.813  0.3855  0.3236  0.1609
10404TIP3    H155407   2.494   5.728   0.790  1.1025  0.6476 -1.0017
10404TIP3    H255408   2.597   5.693   0.895 -0.2332  0.6394  0.3317
10405TIP3   OH255409   6.787   3.402   1.328 -0.3800 -0.2516  0.2970
10405TIP3    H155410   6.876   3.431   1.305  0.3874 -1.1896  1.8629
10405TIP3    H255411   6.730   3.449   1.268  1.1910  0.2519 -0.8750
10406TIP3   OH255412   1.505   2.684   3.344 -1.0113 -0.0282 -0.2223
10406TIP3    H155413   1.452   2.764   3.347  0.2887  0.9148 -1.2242
10406TIP3    H255414   1.566   2.694   3.417  0.3685  0.8388 -1.4294
10407TIP3   OH255415   2.471   5.432   1.657  0.7990  0.1398  0.4139
10407TIP3    H155416   2.495   5.515   1.697  0.1972 -0.2268  1.5783
10407TIP3    H255417   2.535   5.420   1.587  0.2718  2.0732 -0.4633
10408TIP3   OH255418   4.407   6.612   1.046 -0.5567 -0.4030  0.3352
10408TIP3    H155419   4.483   6.633   0.991 -2.0319  0.4427 -1.5239
10408TIP3    H255420   4.372   6.531   1.009 -1.6644  0.2669 -0.1844
10409TIP3   OH255421   7.594   3.018   2.670 -0.0258  0.4973 -0.3607
10409TIP3    H155422   7.632   3.024   2.582  0.7552 -1.2162 -0.1830
10409TIP3    H255423   7.662   3.053   2.727 -0.1562  0.7402 -0.3541
10410TIP3   OH255424   4.690   7.136   2.388 -0.2394 -0.2055  0.1457
10410TIP3    H155425   4.623   7.170   2.329  1.3347  0.1927 -1.4815
10410TIP3    H255426   4.640   7.088   2.455 -2.2516  1.6989  0.1233
10411TIP3   OH255427   2.701   7.672   1.479  0.2799 -0.1431  0.3645
10411TIP3    H155428   2.652   7.593   1.460  0.6440 -0.4746  0.7615
10411TIP3    H255429   2.764   7.645   1.547  2.4939 -0.3118 -1.6136
10412TIP3   OH255430   2.228   7.427   1.719 -0.1829 -0.8026  0.0603
10412TIP3    H155431   2.287   7.369   1.670  1.1352  0.3658  0.2004
10412TIP3    H255432   2.254   7.416   1.810 -0.7723 -0.9090  0.2201
10413TIP3   OH255433   2.559   7.617   2.064 -0.6004 -0.0769 -0.2660
10413TIP3    H155434   2.552   7.604   2.159 -0.9065 -0.8348 -0.3885
10413TIP3    H255435   2.651   7.638   2.050 -0.9703  2.3700  0.4599
10414TIP3   OH255436   5.773   0.582   3.435  0.1865 -0.3380  0.1787
10414TIP3    H155437   5.788   0.652   3.372  1.0898 -0.2217  0.5122
10414TIP3    H255438   5.861   0.552   3.459 -0.1527 -0.4967  1.2516
10415TIP3   OH255439   7.051   6.773   1.995 -0.0053 -0.6363  0.8046
10415TIP3    H155440   6.976   6.829   1.975  1.6027  0.6923 -2.3307
10415TIP3    H255441   7.066   6.785   2.089 -1.0321  2.5946  0.6735
10416TIP3   OH255442   4.610   2.208   1.183 -0.1860  0.7636 -0.4160
10416TIP3    H155443   4.561   2.271   1.132  0.9738  1.3702 -0.8168
10416TIP3    H255444   4.664   2.161   1.119 -0.7031 -0.3436 -0.0702
10417TIP3   OH255445   5.667   3.388   2.293 -0.4956  0.1866 -0.3216
10417TIP3    H155446   5.747   3.340   2.269  0.2007  1.3100 -0.3101
10417TIP3    H255447   5.615   3.389   2.213 -0.2397 -0.0420 -0.4972
10418TIP3   OH255448   3.764   7.591   0.969 -0.2672 -0.8954 -0.1756
10418TIP3    H155449   3.852   7.623   0.990  0.1100  1.1017 -3.9161
10418TIP3    H255450   3.760   7.505   1.010  3.1690 -0.7783  0.7648
10419TIP3   OH255451   0.706   7.492   0.832 -0.3371  0.3331 -0.9864
10419TIP3    H155452   0.688   7.498   0.926  0.7837 -1.0522 -0.6435
10419TIP3    H255453   0.738   7.579   0.808  0.0266  0.5061  0.0850
10420TIP3   OH255454   3.469   2.502   1.117 -0.3435 -0.2521  1.0165
10420TIP3    H155455   3.554   2.476   1.154  0.3520  1.0837  0.4292
10420TIP3    H255456   3.440   2.575   1.173 -0.2709  0.4218  0.1903
10421TIP3   OH255457   0.736   3.121   2.505 -0.3371 -0.2767 -0.4077
10421TIP3    H155458   0.826   3.144   2.482 -0.2304  0.4491  0.6649
10421TIP3    H255459   0.744   3.039   2.553 -0.2241 -0.1375 -0.1852
10422TIP3   OH255460   5.211   2.124   1.181 -0.1792 -0.2588  0.5139
10422TIP3    H155461   5.236   2.152   1.092  2.1549  0.3630  1.2842
10422TIP3    H255462   5.141   2.061   1.167  0.1216 -0.1897 -1.7827
10423TIP3   OH255463   6.389   2.445   1.976 -0.4327 -0.0543 -0.6053
10423TIP3    H155464   6.368   2.352   1.966  0.6011 -0.5285  1.2933
10423TIP3    H255465   6.390   2.478   1.886 -0.2234 -1.9989 -1.3776
10424TIP3   OH255466   6.795   2.656   1.566 -0.7123  0.2420  0.0121
10424TIP3    H155467   6.852   2.712   1.515  1.2404  0.2384  2.0404
10424TIP3    H255468   6.732   2.716   1.607 -0.1576  0.6604  0.2576
10425TIP3   OH255469   1.740   4.399   1.701 -0.2751  0.2392  0.2744
10425TIP3    H155470   1.786   4.482   1.711  0.1952  0.3442 -2.1210
10425TIP3    H255471   1.694   4.407   1.618 -0.5812 -1.7339  0.1958
10426TIP3   OH255472   5.159   0.235   2.355 -0.1002  0.0088  0.5851
10426TIP3    H155473   5.207   0.164   2.313 -0.5066  0.6243 -0.9700
10426TIP3    H255474   5.197   0.314   2.318 -0.9346  0.5550  0.8809
10427TIP3   OH255475   3.808   4.847   1.368  0.6675  0.0063  0.5132
10427TIP3    H155476   3.745   4.908   1.406  0.3991 -0.4349  0.7891
10427TIP3    H255477   3.789   4.848   1.274  1.8386  1.6851  0.2553
10428TIP3   OH255478   3.013   2.072   2.782 -0.2515  0.4299  0.1149
10428TIP3    H155479   3.069   1.995   2.783  0.1138  0.6923  0.2083
10428TIP3    H255480   2.984   2.080   2.691 -2.1272 -1.1136  0.5081
10429TIP3   OH255481   3.621   2.977   0.555 -0.2983 -0.3658 -0.6593
10429TIP3    H155482   3.647   2.926   0.478  2.7338  0.0375 -0.0057
10429TIP3    H255483   3.605   3.065   0.521 -0.2578 -0.4855 -0.9934
10430TIP3   OH255484   6.582   4.273   1.762 -0.2078  0.2268  0.5486
10430TIP3    H155485   6.567   4.222   1.682 -1.5081 -0.2380  1.0714
10430TIP3    H255486   6.573   4.364   1.735  1.5677  0.2080 -0.2743
10431TIP3   OH255487   0.548   1.894   0.858 -0.1493  0.1184  0.1468
10431TIP3    H155488   0.558   1.810   0.902  1.2593 -2.0253 -3.8523
10431TIP3    H255489   0.454   1.902   0.841 -0.1655 -1.1815 -0.4024
10432TIP3   OH255490   1.439   2.137   0.826  0.2462 -0.2932  0.2023
10432TIP3    H155491   1.407   2.208   0.881  0.7624 -1.4792  2.1614
10432TIP3    H255492   1.529   2.161   0.805  0.9035 -0.9187  2.0396
10433TIP3   OH255493   2.048   5.078   1.010  0.5876 -0.1773  0.1312
10433TIP3    H155494   2.106   5.145   1.044  2.1355 -0.4181 -1.7992
10433TIP3    H255495   1.985   5.125   0.956 -0.3495 -0.0158  1.3429
10434TIP3   OH255496   2.493   6.140   1.420  0.5534  0.0772 -0.3914
10434TIP3    H155497   2.524   6.150   1.511 -1.4442  1.3994  0.2229
10434TIP3    H255498   2.523   6.220   1.376  0.5023  0.0018 -0.5623
10435TIP3   OH255499   3.092   3.390   2.061 -0.3842  0.2837 -0.4747
10435TIP3    H155500   3.008   3.386   2.015 -0.5228  2.6186 -0.5179
10435TIP3    H255501   3.073   3.437   2.142  0.6422 -0.3768  0.1761
10436TIP3   OH255502   4.027   3.530   1.948  0.3628 -0.0210  0.0274
10436TIP3    H155503   4.032   3.625   1.961  0.6664  0.3228 -2.2341
10436TIP3    H255504   3.996   3.496   2.033  0.7331  2.0192  1.0463
10437TIP3   OH255505   6.655   0.197   3.330 -0.7115  0.1013 -0.5423
10437TIP3    H155506   6.711   0.271   3.348  0.3502 -0.8896  0.4084
10437TIP3    H255507   6.675   0.172   3.239  0.5643 -0.3578 -0.1568
10438TIP3   OH255508   7.323   3.913   1.067 -0.0230  0.0363  0.2669
10438TIP3    H155509   7.274   3.957   0.997 -0.1179 -0.4785  0.0076
10438TIP3    H255510   7.342   3.983   1.130  1.1950  0.7784 -0.8816
10439TIP3   OH255511   5.876   3.159   2.887  0.9385  0.6199 -0.3405
10439TIP3    H155512   5.839   3.241   2.853  0.4623  1.0624  1.1579
10439TIP3    H255513   5.805   3.096   2.881  0.7893  0.7520  0.0042
   7.68049   7.68049  30.00000
