Title
55513
    1DOPE     N    1   3.755   4.660  16.163 -0.2921 -0.1279  0.3376
    1DOPE   HN1    2   3.764   4.719  16.078 -1.4007 -0.4641 -0.0363
    1DOPE   HN2    3   3.667   4.689  16.209 -0.4461 -0.5248  0.2983
    1DOPE   HN3    4   3.839   4.680  16.221  0.9630  1.0975 -1.7757
    1DOPE   C12    5   3.724   4.514  16.123 -0.4511  0.0914  0.4391
    1DOPE  H12A    6   3.680   4.457  16.208 -0.8924 -0.2621 -0.0211
    1DOPE  H12B    7   3.819   4.464  16.092 -2.0003 -2.4509 -0.5163
    1DOPE   C11    8   3.627   4.516  16.016  0.4022 -0.1155 -0.0424
    1DOPE  H11A    9   3.592   4.416  15.982  1.2422 -0.5279  0.2807
    1DOPE  H11B   10   3.673   4.560  15.925  1.7353 -0.7136  0.3119
    1DOPE     P   11   3.378   4.540  16.112 -0.4400  0.1599 -0.1727
    1DOPE   O13   12   3.321   4.649  16.195 -0.1563 -0.3152 -0.1650
    1DOPE   O14   13   3.400   4.409  16.183 -0.1311  0.4038  0.8522
    1DOPE   O11   14   3.302   4.523  15.978  0.0464 -0.3536 -0.7394
    1DOPE   O12   15   3.515   4.590  16.057  0.3507  0.2484  0.2682
    1DOPE    C1   16   3.162   4.519  15.958 -0.3237 -0.1738 -0.7835
    1DOPE    HA   17   3.133   4.626  15.949  1.7061  0.8488  2.7606
    1DOPE    HB   18   3.106   4.470  16.041 -1.8692 -0.0192 -1.7021
    1DOPE    C2   19   3.126   4.445  15.835 -0.6118  0.6708  0.5491
    1DOPE    HS   20   3.096   4.343  15.867 -0.8709  0.5562 -0.0347
    1DOPE   O21   21   3.227   4.431  15.729  0.0691  0.0598  0.2462
    1DOPE   C21   22   3.326   4.351  15.757  0.1264 -0.9440  0.2869
    1DOPE   O22   23   3.337   4.269  15.845 -0.3176 -0.1034 -0.1814
    1DOPE   C22   24   3.445   4.392  15.671 -0.0905  0.6379  0.2062
    1DOPE   H2R   25   3.534   4.340  15.712  0.5478  0.7839 -0.9730
    1DOPE   H2S   26   3.470   4.500  15.675  1.4478  0.4364 -2.2967
    1DOPE    C3   27   2.986   4.494  15.779 -0.5327  0.5180 -0.2276
    1DOPE    HX   28   2.997   4.603  15.759 -1.5916  1.0430  1.7497
    1DOPE    HY   29   2.910   4.481  15.859 -0.1103  1.8398  0.4290
    1DOPE   O31   30   2.957   4.420  15.657  0.1152  0.0784 -0.0963
    1DOPE   C31   31   2.902   4.303  15.682 -0.4032 -0.3843 -0.1883
    1DOPE   O32   32   2.886   4.257  15.789 -0.1546  0.3669  0.6022
    1DOPE   C32   33   2.879   4.230  15.553 -0.2936  0.3333  0.5224
    1DOPE   H2X   34   2.789   4.167  15.568  0.1511 -0.7699 -1.0895
    1DOPE   H2Y   35   2.858   4.317  15.487 -0.7973 -0.3006 -0.1782
    1DOPE   C23   36   3.419   4.363  15.521  0.4181 -0.6639  0.9453
    1DOPE   H3R   37   3.494   4.424  15.465 -0.5488 -1.2541 -1.0707
    1DOPE   H3S   38   3.325   4.402  15.476  0.8303 -0.2103  0.4581
    1DOPE   C24   39   3.452   4.213  15.494  0.0010 -0.1072 -0.1982
    1DOPE   H4R   40   3.402   4.153  15.573 -0.0314  0.8414  0.5196
    1DOPE   H4S   41   3.559   4.199  15.517 -0.1582 -1.3487 -0.1218
    1DOPE   C25   42   3.416   4.168  15.350  0.0685 -0.5657 -0.4100
    1DOPE   H5R   43   3.320   4.215  15.322  0.5747  2.1167  1.9391
    1DOPE   H5S   44   3.390   4.060  15.338 -1.7162 -0.2236  0.0802
    1DOPE   C26   45   3.532   4.202  15.251 -0.0213 -0.1824  0.5578
    1DOPE   H6R   46   3.623   4.153  15.291 -0.1006 -0.5561  0.2869
    1DOPE   H6S   47   3.542   4.313  15.256 -1.7157  0.0936 -1.0215
    1DOPE   C27   48   3.507   4.166  15.102  0.0314 -0.4808 -0.8243
    1DOPE   H7R   49   3.416   4.221  15.071  1.0658  2.4780  0.8708
    1DOPE   H7S   50   3.478   4.059  15.098 -0.4989 -0.3376 -0.9066
    1DOPE   C28   51   3.623   4.201  15.014  0.3321 -0.0618 -0.6783
    1DOPE   H8R   52   3.703   4.128  15.040 -0.1593 -1.5931 -3.1240
    1DOPE   H8S   53   3.660   4.302  15.041  1.2104 -0.9440  1.7321
    1DOPE   C29   54   3.596   4.207  14.865  0.5663  0.1182  0.1405
    1DOPE   H9R   55   3.516   4.278  14.842  1.3768  0.8241 -0.5930
    1DOPE  C210   56   3.663   4.133  14.772 -0.1219 -0.8317  0.3291
    1DOPE  H10R   57   3.625   4.143  14.669  2.1374  0.9257 -0.4157
    1DOPE  C211   58   3.791   4.060  14.801 -0.0151  0.5618 -0.3322
    1DOPE  H11R   59   3.798   4.033  14.908  1.3094 -0.5408 -0.6731
    1DOPE  H11S   60   3.879   4.123  14.776 -0.0838 -0.2101 -2.8233
    1DOPE  C212   61   3.798   3.929  14.720 -0.1844 -0.1249  0.0496
    1DOPE  H12R   62   3.709   3.865  14.738 -0.8435  1.1802  1.6263
    1DOPE  H12S   63   3.888   3.869  14.744 -0.5868 -1.2946 -1.1876
    1DOPE  C213   64   3.812   3.953  14.571  0.2333  0.4979 -0.2568
    1DOPE  H13R   65   3.890   4.030  14.552  0.8460  0.0480  0.4075
    1DOPE  H13S   66   3.718   4.000  14.536  1.2487  0.1284 -3.8547
    1DOPE  C214   67   3.854   3.823  14.499  0.0838 -0.4334  0.2845
    1DOPE  H14R   68   3.788   3.744  14.539 -1.1820  1.2767  1.7457
    1DOPE  H14S   69   3.959   3.800  14.527  0.5412 -0.5671 -1.4624
    1DOPE  C215   70   3.845   3.827  14.342 -1.1601 -0.3369  0.8347
    1DOPE  H15R   71   3.751   3.868  14.299 -0.2502 -1.3740 -2.4390
    1DOPE  H15S   72   3.859   3.730  14.290  4.2792 -0.1696  1.3771
    1DOPE  C216   73   3.945   3.936  14.280 -0.9489 -0.2186  0.0419
    1DOPE  H16R   74   4.047   3.905  14.310 -0.6354  2.5253  2.2726
    1DOPE  H16S   75   3.931   4.037  14.325 -1.2999 -0.3734  0.2864
    1DOPE  C217   76   3.932   3.947  14.125  0.0116 -0.2315 -0.5158
    1DOPE  H17R   77   3.985   4.035  14.083  1.1289 -1.2190 -1.2492
    1DOPE  H17S   78   3.822   3.952  14.114 -0.1436 -0.1709  0.8490
    1DOPE  C218   79   3.981   3.831  14.058  0.2922  0.1141 -0.0734
    1DOPE  H18R   80   4.078   3.806  14.106 -1.8110 -0.5055  4.4606
    1DOPE  H18S   81   3.984   3.852  13.949  1.1336  0.5530  0.0256
    1DOPE  H18T   82   3.921   3.740  14.078 -0.0243  0.1884 -0.6677
    1DOPE   C33   83   2.999   4.147  15.496  0.4101 -0.1268  0.3932
    1DOPE   H3X   84   2.981   4.041  15.522 -2.7410  0.3387  0.4809
    1DOPE   H3Y   85   3.098   4.176  15.538  1.1684  0.1903 -1.5379
    1DOPE   C34   86   3.001   4.151  15.342 -0.3871  0.2676  0.0769
    1DOPE   H4X   87   3.086   4.080  15.331  0.3055  1.3748 -2.5765
    1DOPE   H4Y   88   2.902   4.117  15.305  0.2375 -0.3115 -1.1352
    1DOPE   C35   89   3.043   4.278  15.278  0.4406  0.1501 -0.3104
    1DOPE   H5X   90   3.125   4.318  15.342  0.3944 -0.5848  0.2198
    1DOPE   H5Y   91   2.960   4.352  15.281 -0.2291 -0.5505 -1.1513
    1DOPE   C36   92   3.103   4.283  15.144 -0.7143  0.2457 -0.0850
    1DOPE   H6X   93   3.167   4.193  15.142 -1.3176 -0.3036  2.2270
    1DOPE   H6Y   94   3.154   4.378  15.119 -0.8797  1.2650  3.0146
    1DOPE   C37   95   2.998   4.262  15.032 -0.0202  0.1233  0.4314
    1DOPE   H7X   96   2.966   4.155  15.038  2.7320 -0.9186 -1.6209
    1DOPE   H7Y   97   2.906   4.322  15.046 -0.7283  0.5000 -4.2015
    1DOPE   C38   98   3.050   4.300  14.888  0.7004  0.2298 -0.5381
    1DOPE   H8X   99   3.052   4.410  14.873  0.8869  0.5068  1.2558
    1DOPE   H8Y  100   2.977   4.261  14.813  0.7738  0.4524 -0.7261
    1DOPE   C39  101   3.183   4.237  14.856 -0.2179 -0.0001 -0.7787
    1DOPE   H9X  102   3.261   4.266  14.929 -2.3398  2.3326  0.7255
    1DOPE  C310  103   3.212   4.145  14.759 -0.1537  0.2504 -0.9690
    1DOPE  H10X  104   3.319   4.128  14.740  0.3899  0.0971  1.7939
    1DOPE  C311  105   3.108   4.100  14.664 -0.5192 -0.2126  0.2522
    1DOPE  H11X  106   3.139   4.001  14.625 -0.7972 -0.3958  0.4926
    1DOPE  H11Y  107   3.013   4.084  14.720 -0.8011 -1.3236 -0.5104
    1DOPE  C312  108   3.091   4.198  14.545 -0.2642 -0.0692  0.9573
    1DOPE  H12X  109   3.088   4.304  14.577 -2.6212  0.8586 -1.8743
    1DOPE  H12Y  110   2.985   4.191  14.512 -0.6243 -0.2964  2.1020
    1DOPE  C313  111   3.202   4.179  14.438  0.3058 -0.0340 -0.2016
    1DOPE  H13X  112   3.294   4.223  14.481  0.3182  0.5585 -0.8144
    1DOPE  H13Y  113   3.212   4.070  14.416  0.3731 -0.5204  1.9655
    1DOPE  C314  114   3.168   4.259  14.313  0.2365 -0.0897 -0.6951
    1DOPE  H14X  115   3.123   4.358  14.335  1.0430  0.1037  0.1470
    1DOPE  H14Y  116   3.080   4.204  14.272 -0.9042 -1.7643  3.4689
    1DOPE  C315  117   3.290   4.277  14.227  0.1219  0.5366 -0.3151
    1DOPE  H15X  118   3.334   4.179  14.198 -0.5896  0.7726 -2.3322
    1DOPE  H15Y  119   3.373   4.332  14.277  0.5455  1.3117 -1.8325
    1DOPE  C316  120   3.270   4.358  14.101  0.2165  0.0463  0.2624
    1DOPE  H16X  121   3.227   4.454  14.136 -0.9691  0.1152 -1.2546
    1DOPE  H16Y  122   3.182   4.314  14.049 -0.9486 -1.9400  3.5969
    1DOPE  C317  123   3.398   4.353  14.008  1.1261  0.2347 -0.6598
    1DOPE  H17X  124   3.489   4.375  14.067  0.5373 -1.5938  1.0622
    1DOPE  H17Y  125   3.416   4.245  13.987  0.4369 -0.4145  1.7148
    1DOPE  C318  126   3.399   4.439  13.879 -0.2149 -0.5211  0.4851
    1DOPE  H18X  127   3.413   4.546  13.903  1.4583 -0.9552  1.6213
    1DOPE  H18Y  128   3.488   4.405  13.820 -0.0153 -2.0093  1.5776
    1DOPE  H18Z  129   3.307   4.435  13.818  1.1572  1.1716 -1.8707
    2DOPE     N  130   3.929   5.240  16.147 -0.6585 -0.2993  0.0822
    2DOPE   HN1  131   3.893   5.155  16.099  1.8312 -0.5096 -1.5877
    2DOPE   HN2  132   3.920   5.316  16.076  2.1653 -1.4658 -1.6707
    2DOPE   HN3  133   4.030   5.217  16.147 -0.2151  1.2798 -2.1741
    2DOPE   C12  134   3.848   5.234  16.279 -0.6355  0.4465 -0.0577
    2DOPE  H12A  135   3.764   5.164  16.262 -0.8125  0.0552  2.1385
    2DOPE  H12B  136   3.824   5.341  16.293 -2.4112  0.2557 -1.3865
    2DOPE   C11  137   3.939   5.177  16.395 -0.5015 -0.5739  0.0005
    2DOPE  H11A  138   3.898   5.188  16.497  1.1751  0.1006  0.6405
    2DOPE  H11B  139   4.030   5.238  16.414  1.7364 -2.1892 -4.0705
    2DOPE     P  140   3.903   4.918  16.418 -0.0164 -0.5247 -0.6122
    2DOPE   O13  141   3.759   4.949  16.405  0.2874 -0.7780  0.2923
    2DOPE   O14  142   3.947   4.872  16.550  0.2453  0.0490 -0.3526
    2DOPE   O11  143   3.943   4.817  16.303 -0.4278 -0.1098  0.2099
    2DOPE   O12  144   3.992   5.046  16.381  0.7626  0.0586  0.1004
    2DOPE    C1  145   4.070   4.811  16.243 -0.0322  0.1794 -0.0526
    2DOPE    HA  146   4.151   4.838  16.314  0.0686 -2.0321  0.7457
    2DOPE    HB  147   4.073   4.893  16.169  1.4610 -0.2528 -0.4944
    2DOPE    C2  148   4.102   4.671  16.192 -0.2971 -0.0596 -0.5787
    2DOPE    HS  149   4.209   4.677  16.163  0.3208 -1.6336  1.1509
    2DOPE   O21  150   4.027   4.637  16.067  0.3727 -0.0862  0.6002
    2DOPE   C21  151   4.070   4.703  15.959  0.1417 -0.3564 -0.1332
    2DOPE   O22  152   4.172   4.769  15.956  0.9315 -0.3372 -0.2622
    2DOPE   C22  153   3.974   4.658  15.843  0.0902 -0.1275  0.3635
    2DOPE   H2R  154   3.873   4.671  15.886 -0.5295 -0.7294 -0.8423
    2DOPE   H2S  155   4.000   4.552  15.821  1.8647  0.3879 -0.1725
    2DOPE    C3  156   4.095   4.556  16.298 -0.0035 -0.2878 -0.6449
    2DOPE    HX  157   4.001   4.554  16.358 -0.4874 -1.4883 -1.4087
    2DOPE    HY  158   4.170   4.583  16.376  0.4890 -0.3477 -1.0922
    2DOPE   O31  159   4.131   4.433  16.230  0.2960 -0.1629  0.2040
    2DOPE   C31  160   4.243   4.371  16.260  0.1240 -0.1326  0.1673
    2DOPE   O32  161   4.300   4.381  16.366  0.2806 -0.1461  0.4820
    2DOPE   C32  162   4.294   4.283  16.144 -0.1065 -0.1972 -1.0240
    2DOPE   H2X  163   4.401   4.265  16.168 -0.6242  0.0479  1.9545
    2DOPE   H2Y  164   4.233   4.190  16.145 -0.7371  0.1592 -2.7727
    2DOPE   C23  165   4.002   4.744  15.721 -0.3389  0.3081 -0.2338
    2DOPE   H3R  166   3.997   4.850  15.754 -0.9670 -0.0598  0.9185
    2DOPE   H3S  167   3.918   4.737  15.649 -1.1933  1.8720  0.5751
    2DOPE   C24  168   4.136   4.712  15.646  0.7111  0.2221 -0.0619
    2DOPE   H4R  169   4.125   4.606  15.614  0.3850  0.7460 -1.7869
    2DOPE   H4S  170   4.221   4.711  15.718 -0.3141 -1.7950  1.2371
    2DOPE   C25  171   4.156   4.809  15.533  0.6009 -0.0353  0.1972
    2DOPE   H5R  172   4.060   4.820  15.479  0.1285  0.4709  1.1175
    2DOPE   H5S  173   4.239   4.783  15.464  0.8100 -0.8034  0.7248
    2DOPE   C26  174   4.184   4.944  15.585  0.7034  0.7528 -0.8721
    2DOPE   H6R  175   4.253   4.954  15.672  0.8793 -0.8290 -0.7953
    2DOPE   H6S  176   4.092   4.996  15.617 -1.1913 -2.5144 -0.6175
    2DOPE   C27  177   4.239   5.035  15.474  0.3319 -0.6858 -0.2274
    2DOPE   H7R  178   4.163   5.026  15.394 -0.5513 -1.7943  0.6952
    2DOPE   H7S  179   4.325   4.974  15.441 -0.7912 -4.6454  3.2542
    2DOPE   C28  180   4.271   5.182  15.525  0.6361  0.4353 -0.2022
    2DOPE   H8R  181   4.352   5.222  15.460  0.6249 -1.8975 -1.7789
    2DOPE   H8S  182   4.323   5.181  15.624 -2.2127 -0.9769  1.3866
    2DOPE   C29  183   4.147   5.274  15.531 -0.6092 -0.5496  1.0560
    2DOPE   H9R  184   4.082   5.244  15.615 -2.5227  3.9875  1.5394
    2DOPE  C210  185   4.102   5.384  15.458  0.0937 -0.2072  0.5803
    2DOPE  H10R  186   4.010   5.433  15.491  1.0006  1.4580  0.7750
    2DOPE  C211  187   4.175   5.448  15.345  0.7404  0.5656 -0.2393
    2DOPE  H11R  188   4.282   5.418  15.350  0.5918 -0.2486 -1.5333
    2DOPE  H11S  189   4.174   5.559  15.350 -2.0697  0.6880 -1.3367
    2DOPE  C212  190   4.130   5.388  15.215 -0.5482  0.7546  0.0760
    2DOPE  H12R  191   4.030   5.421  15.181  0.4647  1.9171 -1.9638
    2DOPE  H12S  192   4.130   5.277  15.219 -2.0174  0.7571  0.6000
    2DOPE  C213  193   4.226   5.416  15.092  0.1583 -0.1007 -1.0226
    2DOPE  H13R  194   4.334   5.401  15.117  0.1298  0.5438 -0.4762
    2DOPE  H13S  195   4.214   5.518  15.050  1.0335  0.1646 -0.6696
    2DOPE  C214  196   4.212   5.311  14.981  0.5778 -0.3600 -0.4952
    2DOPE  H14R  197   4.106   5.301  14.951  0.1394 -0.0137  0.8899
    2DOPE  H14S  198   4.241   5.209  15.014  0.0112  0.0363  1.2830
    2DOPE  C215  199   4.293   5.340  14.853  0.0064  0.9644  0.1405
    2DOPE  H15R  200   4.400   5.353  14.879  0.8213 -0.1196 -2.3589
    2DOPE  H15S  201   4.253   5.433  14.808 -2.6635 -0.7231 -1.2307
    2DOPE  C216  202   4.281   5.232  14.745  0.1579 -0.5738 -0.0748
    2DOPE  H16R  203   4.275   5.133  14.795 -1.1120 -1.3043 -1.5991
    2DOPE  H16S  204   4.371   5.241  14.680 -1.0301  0.1192 -1.6724
    2DOPE  C217  205   4.158   5.253  14.659  0.5848  0.5886  0.9042
    2DOPE  H17R  206   4.164   5.350  14.606 -2.6657 -0.5652 -1.9205
    2DOPE  H17S  207   4.076   5.246  14.733 -0.4780  1.7272 -0.1292
    2DOPE  C218  208   4.142   5.142  14.550  0.2358  0.7247  0.5032
    2DOPE  H18R  209   4.193   5.053  14.591  1.6569  1.3579  0.1725
    2DOPE  H18S  210   4.188   5.159  14.450 -1.1988 -0.0051 -0.3266
    2DOPE  H18T  211   4.035   5.116  14.531  1.1635 -1.7200 -2.1528
    2DOPE   C33  212   4.282   4.363  16.008 -0.7392 -0.2895 -0.0831
    2DOPE   H3X  213   4.321   4.467  16.015 -3.2314  0.8017 -1.1031
    2DOPE   H3Y  214   4.177   4.375  15.974 -1.1273  1.3680  1.5255
    2DOPE   C34  215   4.363   4.287  15.910  0.3317 -0.0833  0.0266
    2DOPE   H4X  216   4.469   4.290  15.941  0.9457 -0.6420 -1.8947
    2DOPE   H4Y  217   4.324   4.183  15.905 -1.5474  0.6398 -1.6842
    2DOPE   C35  218   4.360   4.357  15.775  0.4444  0.0943  0.1362
    2DOPE   H5X  219   4.384   4.464  15.793  0.2453  0.1083  0.3174
    2DOPE   H5Y  220   4.256   4.365  15.737  0.0810  1.7178  1.3254
    2DOPE   C36  221   4.457   4.303  15.667 -0.1641  0.0305  0.3977
    2DOPE   H6X  222   4.446   4.194  15.647 -1.1306 -0.1804  1.8815
    2DOPE   H6Y  223   4.560   4.316  15.705  1.0419  0.5622 -2.7757
    2DOPE   C37  224   4.468   4.385  15.536  0.4190 -0.2841  0.0044
    2DOPE   H7X  225   4.378   4.378  15.470  0.2625  0.7360  0.0892
    2DOPE   H7Y  226   4.474   4.494  15.558 -2.5846  0.8309 -3.5045
    2DOPE   C38  227   4.595   4.355  15.452 -0.2418 -0.7953 -0.3032
    2DOPE   H8X  228   4.670   4.344  15.533 -2.4857 -0.3546  1.9673
    2DOPE   H8Y  229   4.628   4.444  15.393  1.3884  0.0540  1.7719
    2DOPE   C39  230   4.595   4.230  15.375  0.3755 -0.1152 -0.1847
    2DOPE   H9X  231   4.578   4.140  15.436 -0.2483 -0.6496 -1.1184
    2DOPE  C310  232   4.593   4.211  15.242  0.8913  0.5414 -0.3103
    2DOPE  H10X  233   4.587   4.104  15.217  0.6510  0.1357  1.3644
    2DOPE  C311  234   4.575   4.315  15.139  0.8629  0.1088  0.0805
    2DOPE  H11X  235   4.467   4.338  15.139 -0.0497 -3.6188 -0.0984
    2DOPE  H11Y  236   4.637   4.401  15.175  1.6683 -1.0722  1.6772
    2DOPE  C312  237   4.623   4.266  15.001  0.5145  0.6049  0.0467
    2DOPE  H12X  238   4.560   4.180  14.973  1.0076  0.0383  0.6537
    2DOPE  H12Y  239   4.728   4.228  15.004  0.0374 -0.6487  2.6278
    2DOPE  C313  240   4.596   4.366  14.888  0.0090 -0.1594 -0.0952
    2DOPE  H13X  241   4.494   4.403  14.911 -0.1349  0.9450 -2.2819
    2DOPE  H13Y  242   4.668   4.448  14.909  0.3408 -0.4861  0.0434
    2DOPE  C314  243   4.590   4.306  14.748 -0.0313  0.7396  0.1864
    2DOPE  H14X  244   4.488   4.265  14.732  0.1396  0.7776 -1.0899
    2DOPE  H14Y  245   4.672   4.232  14.740 -0.9875 -0.4162  0.7628
    2DOPE  C315  246   4.611   4.416  14.634 -0.1586  0.4573  0.3790
    2DOPE  H15X  247   4.686   4.497  14.647  0.6856  0.0688 -1.7095
    2DOPE  H15Y  248   4.512   4.464  14.622 -1.0449 -0.9886  1.6601
    2DOPE  C316  249   4.633   4.349  14.496  1.0184  0.3119 -0.3234
    2DOPE  H16X  250   4.539   4.297  14.468  0.7831 -0.4056  1.6533
    2DOPE  H16Y  251   4.711   4.270  14.494 -1.1263 -1.9110 -2.5376
    2DOPE  C317  252   4.672   4.449  14.398  0.2320 -0.1033  0.2124
    2DOPE  H17X  253   4.591   4.526  14.389  0.6429  0.2163 -0.8993
    2DOPE  H17Y  254   4.763   4.501  14.435 -0.4406  0.4868  1.1018
    2DOPE  C318  255   4.706   4.372  14.266 -1.2627  0.1867 -0.1744
    2DOPE  H18X  256   4.745   4.440  14.187  0.7760  1.4941  1.8293
    2DOPE  H18Y  257   4.785   4.298  14.291  0.4172  2.6543  2.4959
    2DOPE  H18Z  258   4.621   4.312  14.228 -1.3986  0.5134 -0.3944
    3DOPE     N  259   1.358   5.527  15.995 -0.1583 -0.2887  0.5363
    3DOPE   HN1  260   1.261   5.563  15.988  0.4786  1.2053 -2.4769
    3DOPE   HN2  261   1.421   5.607  15.972  0.5635 -0.9972 -0.0184
    3DOPE   HN3  262   1.368   5.450  15.926 -0.1048  0.1962 -0.0032
    3DOPE   C12  263   1.388   5.482  16.133 -0.4181  0.4070  0.0440
    3DOPE  H12A  264   1.362   5.562  16.206  0.0939 -0.6299  1.4115
    3DOPE  H12B  265   1.499   5.482  16.144 -0.2381  1.5882 -1.4855
    3DOPE   C11  266   1.330   5.338  16.163 -0.4156  0.2586  0.4119
    3DOPE  H11A  267   1.221   5.350  16.178 -0.4112 -1.7921  2.8429
    3DOPE  H11B  268   1.361   5.318  16.268 -0.0856  0.0099  0.2702
    3DOPE     P  269   1.276   5.135  16.017 -0.1226  0.1209  0.3962
    3DOPE   O13  270   1.147   5.192  15.975  0.4641 -0.6633  0.5951
    3DOPE   O14  271   1.275   5.010  16.097 -0.4119  0.3065 -0.1721
    3DOPE   O11  272   1.365   5.113  15.891 -0.1199 -0.5084  0.0413
    3DOPE   O12  273   1.375   5.237  16.079  0.0564 -0.6113  0.2740
    3DOPE    C1  274   1.488   5.045  15.891 -0.6495  0.1644  0.0008
    3DOPE    HA  275   1.478   4.952  15.951  1.0478  1.1264  1.9013
    3DOPE    HB  276   1.563   5.107  15.944  0.7994  0.4974 -2.3405
    3DOPE    C2  277   1.536   5.021  15.747 -0.0757  0.3496  0.0409
    3DOPE    HS  278   1.564   5.119  15.702  1.9691  1.1047  2.6294
    3DOPE   O21  279   1.453   4.942  15.663 -0.4990  1.2211  0.4687
    3DOPE   C21  280   1.368   5.010  15.591 -0.4985  0.4295  0.2321
    3DOPE   O22  281   1.368   5.133  15.581  0.0324 -0.5188  0.6950
    3DOPE   C22  282   1.276   4.918  15.516 -0.3221 -0.5245 -0.1628
    3DOPE   H2R  283   1.187   4.902  15.581 -0.4647 -1.3112 -0.5365
    3DOPE   H2S  284   1.326   4.821  15.497  0.6849 -0.6439  2.6754
    3DOPE    C3  285   1.676   4.950  15.757 -0.4094 -0.1668 -0.2411
    3DOPE    HX  286   1.665   4.850  15.806 -1.0719  0.6066  1.2414
    3DOPE    HY  287   1.755   5.011  15.805 -0.4374 -0.9267  0.8210
    3DOPE   O31  288   1.711   4.919  15.628 -0.3081 -0.1134 -0.1655
    3DOPE   C31  289   1.765   5.012  15.549  0.5583 -0.1713 -0.8986
    3DOPE   O32  290   1.775   5.131  15.572  0.1714 -0.0819  0.0330
    3DOPE   C32  291   1.806   4.943  15.419  0.6674 -0.0456 -0.1074
    3DOPE   H2X  292   1.894   4.875  15.422  0.1257 -0.7317  0.5683
    3DOPE   H2Y  293   1.725   4.870  15.394 -0.2221  1.5405 -2.2094
    3DOPE   C23  294   1.236   4.970  15.373  0.1139  0.2199  0.1700
    3DOPE   H3R  295   1.180   5.065  15.376  1.5316  1.0656  2.1740
    3DOPE   H3S  296   1.180   4.886  15.326  0.5358 -0.8087  1.4229
    3DOPE   C24  297   1.360   5.005  15.288 -0.8882 -0.1536  0.1382
    3DOPE   H4R  298   1.431   4.919  15.291  0.5576  0.9151 -1.4233
    3DOPE   H4S  299   1.413   5.098  15.317  0.3076 -0.7489 -0.0759
    3DOPE   C25  300   1.323   5.024  15.140  0.6162 -0.5543  0.4990
    3DOPE   H5R  301   1.253   5.110  15.134  2.4445  1.0535  1.5168
    3DOPE   H5S  302   1.271   4.932  15.104  1.3102 -0.3120 -1.1965
    3DOPE   C26  303   1.447   5.041  15.055 -0.2892 -0.4957 -0.0004
    3DOPE   H6R  304   1.518   4.966  15.093  0.5369 -0.9254 -2.2423
    3DOPE   H6S  305   1.491   5.140  15.079 -1.2131 -0.3189  1.0445
    3DOPE   C27  306   1.428   5.021  14.905  0.2323  0.3502  0.3624
    3DOPE   H7R  307   1.366   5.103  14.862  2.5521  2.2345  0.4235
    3DOPE   H7S  308   1.385   4.919  14.900  1.5978 -0.2468  0.3485
    3DOPE   C28  309   1.567   5.013  14.835  0.1392 -0.5230 -0.0974
    3DOPE   H8R  310   1.552   4.971  14.733 -0.8619  1.3845 -0.7818
    3DOPE   H8S  311   1.627   4.944  14.898  1.7084  1.1041  0.2614
    3DOPE   C29  312   1.634   5.149  14.813 -0.1352  0.3876 -0.2829
    3DOPE   H9R  313   1.643   5.207  14.906  3.8024 -0.4794  0.0345
    3DOPE  C210  314   1.693   5.186  14.702 -0.1074  0.4569  0.3991
    3DOPE  H10R  315   1.742   5.284  14.704  1.0246 -0.0962  1.3911
    3DOPE  C211  316   1.682   5.115  14.563  0.0384  0.1985  0.1428
    3DOPE  H11R  317   1.675   5.196  14.487 -2.4604  0.7744  0.9179
    3DOPE  H11S  318   1.587   5.061  14.544  0.3995 -0.1298 -0.7911
    3DOPE  C212  319   1.798   5.023  14.532 -0.0017 -0.0471  0.8305
    3DOPE  H12R  320   1.792   4.938  14.602  0.8214 -0.7232  0.1080
    3DOPE  H12S  321   1.894   5.076  14.553  0.8534 -0.7979 -0.9779
    3DOPE  C213  322   1.789   4.954  14.395 -0.4934  0.5776  0.1431
    3DOPE  H13R  323   1.862   4.870  14.397 -1.2954 -0.1340  0.2082
    3DOPE  H13S  324   1.819   5.024  14.314 -0.0460  0.3872  0.1391
    3DOPE  C214  325   1.655   4.890  14.357  0.3187 -0.6936  0.3359
    3DOPE  H14R  326   1.580   4.965  14.322  0.2549  0.0760  2.0208
    3DOPE  H14S  327   1.614   4.851  14.452  0.2375  1.4652  1.2466
    3DOPE  C215  328   1.658   4.777  14.258  0.9558  0.3152  0.0687
    3DOPE  H15R  329   1.555   4.735  14.254  1.2754 -0.4299 -0.6483
    3DOPE  H15S  330   1.712   4.686  14.294 -1.1748 -1.3271 -0.6699
    3DOPE  C216  331   1.698   4.809  14.113  0.1296 -0.3948  0.3093
    3DOPE  H16R  332   1.803   4.844  14.098 -0.3990  1.1588  0.0979
    3DOPE  H16S  333   1.641   4.891  14.066  0.2215 -1.7043 -2.2657
    3DOPE  C217  334   1.675   4.684  14.029  0.2077 -0.0663 -0.7041
    3DOPE  H17R  335   1.570   4.649  14.039 -0.0219  1.0181  1.4173
    3DOPE  H17S  336   1.735   4.596  14.059  1.7558  0.7671 -1.2326
    3DOPE  C218  337   1.702   4.712  13.884  0.2174 -0.1118  0.6571
    3DOPE  H18R  338   1.687   4.622  13.822  1.6274 -0.2686  0.5194
    3DOPE  H18S  339   1.804   4.753  13.867  0.1430 -0.3079 -0.3145
    3DOPE  H18T  340   1.616   4.773  13.849 -0.3721 -0.2648  1.7775
    3DOPE   C33  341   1.824   5.046  15.305  0.6119 -0.2138 -0.8600
    3DOPE   H3X  342   1.901   5.120  15.336  1.4686 -0.4514 -2.3177
    3DOPE   H3Y  343   1.731   5.100  15.275 -0.1357 -0.3940  1.0086
    3DOPE   C34  344   1.866   4.979  15.176 -0.7687 -1.2469  0.2794
    3DOPE   H4X  345   1.932   4.894  15.204  0.7720 -0.0546  0.4179
    3DOPE   H4Y  346   1.773   4.946  15.126 -1.6837  0.9657  0.3965
    3DOPE   C35  347   1.929   5.081  15.079 -0.6454  0.0525 -0.2971
    3DOPE   H5X  348   1.956   5.176  15.131 -1.0018 -0.1677  0.3025
    3DOPE   H5Y  349   1.859   5.123  15.003 -0.9120 -0.1397 -0.1589
    3DOPE   C36  350   2.049   5.018  15.002  0.7996  0.3128 -0.2388
    3DOPE   H6X  351   2.053   4.907  15.015 -0.7402  0.3075  0.3224
    3DOPE   H6Y  352   2.149   5.039  15.045  0.0701  0.4897  1.4422
    3DOPE   C37  353   2.042   5.029  14.844  0.5665  0.0573 -0.6353
    3DOPE   H7X  354   1.964   4.957  14.812 -0.8619  1.7054 -1.0300
    3DOPE   H7Y  355   2.001   5.126  14.810  0.4404  0.0921 -0.3894
    3DOPE   C38  356   2.175   5.014  14.766 -0.4600  0.2626 -0.3342
    3DOPE   H8X  357   2.149   5.023  14.658 -2.3804 -1.2856 -0.0329
    3DOPE   H8Y  358   2.210   4.911  14.788  0.5460  0.2142 -1.9612
    3DOPE   C39  359   2.277   5.111  14.809 -0.6302  0.6389 -0.2905
    3DOPE   H9X  360   2.238   5.212  14.830  1.0485  0.8140  2.3276
    3DOPE  C310  361   2.411   5.090  14.801 -0.9971  0.1976 -0.2309
    3DOPE  H10X  362   2.480   5.170  14.831  0.7323 -1.8910  1.7329
    3DOPE  C311  363   2.481   4.971  14.743 -0.6421  0.4056 -0.1349
    3DOPE  H11X  364   2.535   4.918  14.824 -0.4848  1.4350  0.4547
    3DOPE  H11Y  365   2.414   4.894  14.698  0.1010  0.0404 -0.6484
    3DOPE  C312  366   2.592   5.003  14.634  0.1394 -0.1261 -0.2070
    3DOPE  H12X  367   2.642   4.908  14.605 -0.4337 -0.9412  1.4215
    3DOPE  H12Y  368   2.663   5.073  14.683 -0.4678 -0.0193  0.5299
    3DOPE  C313  369   2.533   5.062  14.504  0.0169  0.1257 -0.5848
    3DOPE  H13X  370   2.481   4.973  14.463  0.3582 -1.4736  2.2144
    3DOPE  H13Y  371   2.480   5.158  14.515  1.1232  0.7434 -0.4456
    3DOPE  C314  372   2.648   5.094  14.408  0.9342 -0.2229  0.6480
    3DOPE  H14X  373   2.733   5.023  14.405 -0.4311 -1.9672 -3.2948
    3DOPE  H14Y  374   2.681   5.194  14.443 -1.4745  1.3749 -1.3039
    3DOPE  C315  375   2.585   5.118  14.267  0.0074 -0.6154 -0.0161
    3DOPE  H15X  376   2.510   5.198  14.252  0.0460 -0.2568  1.5369
    3DOPE  H15Y  377   2.549   5.027  14.214 -0.1331  0.3410 -1.6082
    3DOPE  C316  378   2.696   5.159  14.173  0.0329 -0.3114  0.4148
    3DOPE  H16X  379   2.774   5.083  14.189  1.4272  1.0838  0.4821
    3DOPE  H16Y  380   2.731   5.260  14.205  1.0845  0.1638 -1.9985
    3DOPE  C317  381   2.654   5.148  14.024 -0.6413  0.6894 -0.0991
    3DOPE  H17X  382   2.737   5.184  13.958 -1.2638 -1.7821 -2.4192
    3DOPE  H17Y  383   2.639   5.041  13.998 -1.1510  1.0507 -1.3693
    3DOPE  C318  384   2.528   5.217  13.983 -0.0322 -0.0176  0.3180
    3DOPE  H18X  385   2.538   5.326  14.004 -0.1766 -0.4130  2.8283
    3DOPE  H18Y  386   2.519   5.219  13.873 -1.8001 -0.2920  0.4351
    3DOPE  H18Z  387   2.438   5.181  14.037 -1.2581  3.1994  0.6449
    4DOPE     N  388   3.217   4.151  16.545 -0.3677  0.2777  0.0473
    4DOPE   HN1  389   3.128   4.122  16.591  0.2683 -1.2930  0.3606
    4DOPE   HN2  390   3.193   4.241  16.499  0.0043 -0.0649 -0.8379
    4DOPE   HN3  391   3.245   4.082  16.472 -0.1254 -1.0147  1.3067
    4DOPE   C12  392   3.327   4.160  16.646  0.4768 -0.1037 -1.0541
    4DOPE  H12A  393   3.298   4.233  16.724  2.9274 -1.4333  1.2544
    4DOPE  H12B  394   3.412   4.208  16.593  0.2006  1.1584 -0.3710
    4DOPE   C11  395   3.374   4.021  16.694 -0.7163 -0.5346 -0.4819
    4DOPE  H11A  396   3.290   3.976  16.751 -1.1224  0.9085  0.1277
    4DOPE  H11B  397   3.459   4.045  16.761 -0.9264 -1.1583  0.0051
    4DOPE     P  398   3.566   3.947  16.532 -0.1403 -0.1437 -0.0710
    4DOPE   O13  399   3.662   3.957  16.642  0.2352 -0.1897 -0.1520
    4DOPE   O14  400   3.580   4.051  16.423 -0.1294  0.9881 -0.2407
    4DOPE   O11  401   3.586   3.801  16.472 -0.0490 -0.7021  0.3774
    4DOPE   O12  402   3.413   3.946  16.577  0.0741  0.0601  0.2707
    4DOPE    C1  403   3.668   3.759  16.363 -0.7485  0.0830 -0.4867
    4DOPE    HA  404   3.713   3.659  16.380 -0.5586  0.1354 -0.6791
    4DOPE    HB  405   3.750   3.832  16.352 -1.3073  1.0185  1.1822
    4DOPE    C2  406   3.603   3.735  16.221 -0.1259 -0.4588  0.3114
    4DOPE    HS  407   3.670   3.668  16.163  0.0383  0.2456 -0.3392
    4DOPE   O21  408   3.585   3.861  16.150  0.1850  0.1207 -0.3084
    4DOPE   C21  409   3.568   3.852  16.026  0.6048 -0.5281  0.0558
    4DOPE   O22  410   3.573   3.750  15.957 -0.5494 -0.0872  0.4905
    4DOPE   C22  411   3.534   3.995  15.968  0.2469  0.1637  0.1594
    4DOPE   H2R  412   3.423   3.998  15.981  0.3156  1.4824  0.6108
    4DOPE   H2S  413   3.550   3.987  15.858  0.9841 -0.6413  0.3122
    4DOPE    C3  414   3.468   3.673  16.253 -0.2033 -0.3332  0.0446
    4DOPE    HX  415   3.396   3.752  16.284 -0.3677 -1.2083  2.0318
    4DOPE    HY  416   3.484   3.600  16.335  0.8165 -1.5967 -1.2409
    4DOPE   O31  417   3.398   3.609  16.149  0.0714  0.2012 -0.0378
    4DOPE   C31  418   3.377   3.471  16.156  0.4757 -0.9382 -0.2077
    4DOPE   O32  419   3.429   3.400  16.234  0.3208  0.3003 -0.5561
    4DOPE   C32  420   3.289   3.441  16.032 -0.0910 -0.3449 -0.4236
    4DOPE   H2X  421   3.190   3.490  16.045  0.4394  0.2361  1.6725
    4DOPE   H2Y  422   3.340   3.496  15.949 -2.8840  0.0130 -2.0382
    4DOPE   C23  423   3.612   4.111  16.034  0.3354  0.7763 -0.4970
    4DOPE   H3R  424   3.590   4.117  16.143 -1.5984 -1.4875 -0.6938
    4DOPE   H3S  425   3.573   4.206  15.991 -0.0126  0.7700 -0.2023
    4DOPE   C24  426   3.760   4.103  16.021 -0.7201 -0.1461 -0.6429
    4DOPE   H4R  427   3.801   4.002  16.045  0.6680  0.5300 -0.0283
    4DOPE   H4S  428   3.801   4.175  16.096 -2.2210 -0.6432  0.7088
    4DOPE   C25  429   3.803   4.157  15.881 -0.4916  0.4527 -0.2383
    4DOPE   H5R  430   3.784   4.267  15.881  1.9525  0.9414 -0.7542
    4DOPE   H5S  431   3.743   4.110  15.801 -0.2389 -0.5983  0.1738
    4DOPE   C26  432   3.957   4.144  15.857  0.6473 -0.1202 -0.5539
    4DOPE   H6R  433   3.979   4.035  15.858  0.9624 -0.0562 -0.1356
    4DOPE   H6S  434   4.008   4.177  15.949  0.3102  1.8921 -1.0541
    4DOPE   C27  435   4.006   4.226  15.737  0.1037 -0.6745  0.5130
    4DOPE   H7R  436   4.113   4.202  15.720  0.5615  1.0106  0.7598
    4DOPE   H7S  437   4.013   4.333  15.768 -0.4174 -1.0407  1.9712
    4DOPE   C28  438   3.927   4.215  15.606  0.3193 -0.0173 -1.0619
    4DOPE   H8R  439   3.901   4.107  15.604 -0.5326  0.1223  0.7022
    4DOPE   H8S  440   4.004   4.234  15.528  2.0396 -1.9643  0.0493
    4DOPE   C29  441   3.806   4.307  15.582  0.1966 -0.2505  0.5113
    4DOPE   H9R  442   3.718   4.294  15.647 -0.7273  1.1924 -0.3661
    4DOPE  C210  443   3.788   4.407  15.492 -0.2439  0.6586  0.1505
    4DOPE  H10R  444   3.694   4.462  15.503 -0.0550  0.7258  1.6808
    4DOPE  C211  445   3.894   4.464  15.400 -0.2608  0.2996 -0.2483
    4DOPE  H11R  446   3.974   4.394  15.367  0.1110  1.6046 -2.2391
    4DOPE  H11S  447   3.948   4.548  15.449  1.3034 -1.7412  1.7547
    4DOPE  C212  448   3.828   4.511  15.268  0.4894 -0.1720  0.0790
    4DOPE  H12R  449   3.744   4.584  15.275 -0.5276 -1.3260  0.1347
    4DOPE  H12S  450   3.776   4.426  15.220  2.2223 -0.8390 -0.6970
    4DOPE  C213  451   3.931   4.568  15.174  0.1661 -0.2763  0.1476
    4DOPE  H13R  452   4.015   4.496  15.176 -1.2082 -2.0334 -1.7649
    4DOPE  H13S  453   3.966   4.665  15.217  0.5525 -1.7202  3.4131
    4DOPE  C214  454   3.876   4.587  15.025  0.0469 -0.2211  0.7401
    4DOPE  H14R  455   3.935   4.668  14.978  1.6330 -1.7148  0.0244
    4DOPE  H14S  456   3.767   4.606  15.027  0.3917  2.2355 -0.4281
    4DOPE  C215  457   3.891   4.456  14.942 -0.4188  0.2816 -0.3599
    4DOPE  H15R  458   3.828   4.372  14.980  0.7981 -1.3176 -1.7518
    4DOPE  H15S  459   3.995   4.419  14.951 -1.1561 -1.5729  1.6009
    4DOPE  C216  460   3.853   4.474  14.798  0.2882 -0.3566 -0.2629
    4DOPE  H16R  461   3.748   4.510  14.804  0.6717  0.6592  0.5117
    4DOPE  H16S  462   3.850   4.378  14.741 -1.0903 -0.2082 -0.4833
    4DOPE  C217  463   3.924   4.580  14.711 -0.1456  0.7016  0.8778
    4DOPE  H17R  464   3.937   4.673  14.770 -0.3924  0.6730  0.9781
    4DOPE  H17S  465   3.861   4.598  14.621 -0.5154 -1.3552  0.6661
    4DOPE  C218  466   4.055   4.514  14.668  0.6841 -0.0827 -0.1887
    4DOPE  H18R  467   4.035   4.421  14.610  0.0022  0.4680 -0.8577
    4DOPE  H18S  468   4.123   4.497  14.754 -0.4332  0.4833  0.8279
    4DOPE  H18T  469   4.101   4.580  14.591  1.3697  1.2838  1.3358
    4DOPE   C33  470   3.283   3.295  16.002 -0.8819 -0.1310  0.6149
    4DOPE   H3X  471   3.220   3.237  16.072 -0.6415  1.5908  2.3429
    4DOPE   H3Y  472   3.384   3.249  16.010 -0.9913 -0.2950  1.0781
    4DOPE   C34  473   3.227   3.266  15.866  0.1131 -0.1417  0.0827
    4DOPE   H4X  474   3.117   3.275  15.870  0.0275 -0.2115 -1.5938
    4DOPE   H4Y  475   3.265   3.349  15.802 -1.3001  1.1821  0.8926
    4DOPE   C35  476   3.257   3.131  15.805 -0.3455  0.1426  0.5653
    4DOPE   H5X  477   3.230   3.049  15.874 -0.5156 -1.1728 -1.0039
    4DOPE   H5Y  478   3.365   3.122  15.780 -0.4394 -0.2909  0.3040
    4DOPE   C36  479   3.191   3.110  15.663  0.4643 -0.4829 -0.3791
    4DOPE   H6X  480   3.228   3.169  15.577 -1.1545  0.0086 -0.7775
    4DOPE   H6Y  481   3.087   3.147  15.680  0.3016 -1.2519  0.4002
    4DOPE   C37  482   3.190   2.961  15.625 -0.4766  0.2472  0.1065
    4DOPE   H7X  483   3.157   2.908  15.717 -1.8191  2.0578  0.7223
    4DOPE   H7Y  484   3.115   2.935  15.546  0.4637 -1.2283 -0.3368
    4DOPE   C38  485   3.338   2.902  15.591 -0.3877 -0.1145 -0.1438
    4DOPE   H8X  486   3.336   2.790  15.594 -0.1255 -0.1057  0.3140
    4DOPE   H8Y  487   3.404   2.942  15.670 -0.6017 -3.2388  1.7757
    4DOPE   C39  488   3.379   2.962  15.459  0.4789  0.0335 -0.1994
    4DOPE   H9X  489   3.419   3.065  15.461  1.4802 -0.3329  2.6836
    4DOPE  C310  490   3.378   2.910  15.337 -0.2701 -0.0595  1.0710
    4DOPE  H10X  491   3.413   2.972  15.254 -0.9840 -0.2994  0.5807
    4DOPE  C311  492   3.343   2.770  15.299  0.3488 -0.2401 -0.7373
    4DOPE  H11X  493   3.429   2.700  15.308  1.2683  1.1311  5.1017
    4DOPE  H11Y  494   3.271   2.729  15.374  0.1702  0.5890 -0.4425
    4DOPE  C312  495   3.265   2.766  15.162 -0.5984  0.5217 -0.1169
    4DOPE  H12X  496   3.179   2.836  15.164 -0.9350  0.1308 -0.6592
    4DOPE  H12Y  497   3.221   2.664  15.155 -0.4328  0.2834  1.7100
    4DOPE  C313  498   3.361   2.793  15.039  0.6997 -0.1847 -0.5461
    4DOPE  H13X  499   3.405   2.895  15.047  1.2587 -0.3704 -1.1996
    4DOPE  H13Y  500   3.445   2.720  15.037  4.4856  3.5985  2.2199
    4DOPE  C314  501   3.284   2.796  14.904  0.7256 -0.0191 -0.0322
    4DOPE  H14X  502   3.200   2.723  14.897 -0.4655  1.2121  0.9618
    4DOPE  H14Y  503   3.351   2.765  14.820 -0.2038 -2.1643 -0.0357
    4DOPE  C315  504   3.217   2.920  14.861 -0.0852  0.0673 -0.2472
    4DOPE  H15X  505   3.277   3.007  14.892  0.1876 -0.3671  0.4767
    4DOPE  H15Y  506   3.111   2.926  14.892  0.3023 -2.1607  1.8937
    4DOPE  C316  507   3.214   2.940  14.711  0.4089 -0.3750  0.0658
    4DOPE  H16X  508   3.142   2.863  14.674  0.3752 -0.4070  0.1960
    4DOPE  H16Y  509   3.312   2.908  14.669 -0.7870  0.5225 -3.7905
    4DOPE  C317  510   3.204   3.084  14.665 -0.3591 -0.4344 -0.6247
    4DOPE  H17X  511   3.125   3.128  14.729  0.6979 -1.0956  1.2162
    4DOPE  H17Y  512   3.296   3.137  14.697 -2.3724  1.8563  1.8557
    4DOPE  C318  513   3.174   3.091  14.509  0.1337 -0.1405 -0.2074
    4DOPE  H18X  514   3.188   3.196  14.475 -2.7086 -0.0269 -1.3174
    4DOPE  H18Y  515   3.254   3.024  14.470 -0.4240 -0.7020 -0.4032
    4DOPE  H18Z  516   3.074   3.053  14.479 -1.0243  2.2666  0.3864
    5DOPE     N  517   0.874   4.814  15.736 -0.7192 -0.4089 -0.4014
    5DOPE   HN1  518   0.867   4.742  15.810  0.4200  0.4584  0.5906
    5DOPE   HN2  519   0.776   4.840  15.714  0.4557  2.8324 -2.6162
    5DOPE   HN3  520   0.927   4.768  15.659 -0.7967  1.8530 -1.9047
    5DOPE   C12  521   0.936   4.934  15.795 -0.1852  0.3795 -0.3059
    5DOPE  H12A  522   1.038   4.914  15.834 -0.7452 -2.2813  0.0056
    5DOPE  H12B  523   0.874   4.959  15.884  0.4550  2.0550 -0.3081
    5DOPE   C11  524   0.949   5.047  15.701  0.4518 -0.3039  0.7330
    5DOPE  H11A  525   0.996   5.002  15.610 -1.7480  3.3819 -2.5160
    5DOPE  H11B  526   1.017   5.124  15.743  0.6617 -0.3049  0.4019
    5DOPE     P  527   0.756   5.118  15.530 -0.2830 -0.2893  0.3584
    5DOPE   O13  528   0.830   5.231  15.468  0.0202 -0.2107  0.4611
    5DOPE   O14  529   0.612   5.140  15.553  0.2084 -0.3693  0.5770
    5DOPE   O11  530   0.785   4.982  15.467 -0.3229  0.1319  0.0330
    5DOPE   O12  531   0.817   5.107  15.670 -0.2281  0.2711 -0.7020
    5DOPE    C1  532   0.880   4.962  15.361 -0.5045 -0.8923 -0.3451
    5DOPE    HA  533   0.916   4.857  15.362 -0.4377 -0.8820 -1.0182
    5DOPE    HB  534   0.972   5.022  15.378 -1.5322  0.7467 -0.2588
    5DOPE    C2  535   0.822   4.983  15.216  0.5226  0.1684 -0.9499
    5DOPE    HS  536   0.768   5.081  15.214  0.1232 -0.0422 -0.6507
    5DOPE   O21  537   0.736   4.870  15.178  0.1657  0.0398  0.1073
    5DOPE   C21  538   0.611   4.896  15.208 -0.0682  0.3196  0.3531
    5DOPE   O22  539   0.567   4.998  15.255  0.1477 -0.4363 -0.8530
    5DOPE   C22  540   0.528   4.780  15.164 -0.6138  0.2629  0.0424
    5DOPE   H2R  541   0.444   4.789  15.236  0.4702  1.1497  1.2424
    5DOPE   H2S  542   0.569   4.680  15.188 -1.5188 -0.5460 -1.6074
    5DOPE    C3  543   0.936   4.989  15.114  0.2800  0.0459  0.3397
    5DOPE    HX  544   0.982   4.889  15.101  0.8822  0.0752  2.0713
    5DOPE    HY  545   1.013   5.066  15.138 -0.3179  0.4709  0.9421
    5DOPE   O31  546   0.867   5.013  14.985 -0.6823 -0.2050 -0.4553
    5DOPE   C31  547   0.893   5.121  14.917  0.0520 -0.8098  0.6775
    5DOPE   O32  548   0.968   5.214  14.950 -0.1259  0.5096  0.4371
    5DOPE   C32  549   0.828   5.102  14.785  0.0641  0.0062 -0.3158
    5DOPE   H2X  550   0.843   4.998  14.750  2.3515  0.0964  0.2091
    5DOPE   H2Y  551   0.722   5.127  14.805  0.7569  0.7865  2.9303
    5DOPE   C23  552   0.492   4.777  15.012  0.1255 -0.0070  0.5797
    5DOPE   H3R  553   0.473   4.876  14.964 -1.3200 -0.1446  0.8244
    5DOPE   H3S  554   0.396   4.725  14.992  0.0550  0.7540 -1.3114
    5DOPE   C24  555   0.589   4.693  14.924 -0.0589  0.4309 -0.3445
    5DOPE   H4R  556   0.611   4.599  14.979 -0.3028 -0.3035 -1.4691
    5DOPE   H4S  557   0.695   4.726  14.925  0.5938 -1.5520  0.5336
    5DOPE   C25  558   0.545   4.649  14.783  0.1217 -0.1789  0.0544
    5DOPE   H5R  559   0.436   4.629  14.787  0.3355 -1.6519 -0.4261
    5DOPE   H5S  560   0.597   4.554  14.756  0.3948 -0.0984  0.2864
    5DOPE   C26  561   0.569   4.746  14.678 -0.3862  0.7595  0.6135
    5DOPE   H6R  562   0.678   4.769  14.680 -0.0177 -0.6959 -0.6258
    5DOPE   H6S  563   0.506   4.835  14.698 -0.3621  0.7434  0.7604
    5DOPE   C27  564   0.531   4.692  14.533 -0.0131 -0.0309 -0.1700
    5DOPE   H7R  565   0.424   4.713  14.512 -0.7172 -3.8249 -1.1052
    5DOPE   H7S  566   0.533   4.581  14.532  0.4249 -0.0303 -1.1530
    5DOPE   C28  567   0.619   4.752  14.423  0.4342 -0.1096  0.0193
    5DOPE   H8R  568   0.621   4.679  14.339  0.6600 -4.0817  3.1874
    5DOPE   H8S  569   0.719   4.753  14.471 -0.2331  0.9710  1.4304
    5DOPE   C29  570   0.596   4.898  14.381 -0.5039 -0.1713  0.0063
    5DOPE   H9R  571   0.589   4.977  14.458  2.4387  0.5754 -0.3935
    5DOPE  C210  572   0.574   4.933  14.251 -0.4710  0.1256 -0.3694
    5DOPE  H10R  573   0.571   5.040  14.227  0.0829 -0.2194 -2.1064
    5DOPE  C211  574   0.574   4.846  14.133  0.7613 -0.0603 -0.1509
    5DOPE  H11R  575   0.495   4.878  14.061  0.8440  1.0919  0.2471
    5DOPE  H11S  576   0.551   4.740  14.154  0.1757  0.5513  2.6385
    5DOPE  C212  577   0.714   4.859  14.073 -0.4461 -0.4746  0.2512
    5DOPE  H12R  578   0.795   4.829  14.142 -1.8188 -2.8747  0.9617
    5DOPE  H12S  579   0.737   4.965  14.051  2.8528 -1.0511  0.4357
    5DOPE  C213  580   0.715   4.779  13.938 -0.0431 -0.0379 -0.3556
    5DOPE  H13R  581   0.625   4.801  13.876 -0.1034  0.6225 -0.0453
    5DOPE  H13S  582   0.721   4.670  13.959  0.1495  0.4532  2.5365
    5DOPE  C214  583   0.837   4.824  13.860 -0.1083  0.0749 -0.6122
    5DOPE  H14R  584   0.924   4.846  13.925  0.9691 -1.1052 -1.5851
    5DOPE  H14S  585   0.814   4.920  13.810 -0.0600  0.6535  0.4501
    5DOPE  C215  586   0.889   4.728  13.753 -0.2790 -0.7806 -0.0758
    5DOPE  H15R  587   0.806   4.707  13.682 -1.4467 -3.1414  1.8225
    5DOPE  H15S  588   0.899   4.636  13.814 -1.0674 -0.6547  0.2582
    5DOPE  C216  589   1.023   4.767  13.693 -0.2902 -0.5530  0.0137
    5DOPE  H16R  590   1.065   4.843  13.762 -0.8330 -0.2962  0.0613
    5DOPE  H16S  591   1.014   4.822  13.597  0.2084 -0.5171 -0.0194
    5DOPE  C217  592   1.121   4.651  13.703 -0.1091  0.1105  0.1286
    5DOPE  H17R  593   1.108   4.584  13.615  2.5807  0.2940 -0.5010
    5DOPE  H17S  594   1.112   4.598  13.799  0.3197 -0.2581 -0.0300
    5DOPE  C218  595   1.270   4.698  13.707  1.0049  0.4882  0.1386
    5DOPE  H18R  596   1.307   4.738  13.804  3.1627  1.1469 -0.8779
    5DOPE  H18S  597   1.279   4.763  13.617  0.3614 -0.0011 -0.2903
    5DOPE  H18T  598   1.335   4.611  13.683 -0.4549 -0.7806  0.6148
    5DOPE   C33  599   0.863   5.200  14.674 -0.0743 -0.2743  0.5484
    5DOPE   H3X  600   0.970   5.181  14.654 -0.2433 -0.0146 -0.6771
    5DOPE   H3Y  601   0.847   5.306  14.704  0.7653 -0.0600  0.2679
    5DOPE   C34  602   0.794   5.163  14.545  1.1997 -0.1545 -0.5353
    5DOPE   H4X  603   0.794   5.052  14.535  0.6841 -0.5010  2.3627
    5DOPE   H4Y  604   0.687   5.188  14.561  1.0246  0.4354 -2.4887
    5DOPE   C35  605   0.852   5.249  14.439  0.2816 -0.0239  0.5002
    5DOPE   H5X  606   0.962   5.233  14.444 -0.0241 -2.8394  0.1156
    5DOPE   H5Y  607   0.827   5.355  14.456  0.7525  0.1610  0.0895
    5DOPE   C36  608   0.803   5.212  14.295 -0.6423  0.0642  0.6132
    5DOPE   H6X  609   0.694   5.195  14.309 -0.8282  0.3250 -0.4516
    5DOPE   H6Y  610   0.842   5.113  14.266  0.6782  0.3457  1.3181
    5DOPE   C37  611   0.824   5.308  14.177 -0.3540  0.1218 -0.2854
    5DOPE   H7X  612   0.770   5.403  14.195 -1.6885 -0.5251 -0.7574
    5DOPE   H7Y  613   0.931   5.337  14.170 -0.9130  2.0179 -1.7521
    5DOPE   C38  614   0.777   5.247  14.045  0.4483 -0.3284  0.1783
    5DOPE   H8X  615   0.688   5.184  14.065  0.4441  0.0784  1.5119
    5DOPE   H8Y  616   0.853   5.176  14.004  1.6120 -0.3777  2.2407
    5DOPE   C39  617   0.746   5.353  13.942 -0.3710 -0.5780  0.9334
    5DOPE   H9X  618   0.644   5.389  13.921  0.4971  0.5126 -2.0150
    5DOPE  C310  619   0.846   5.406  13.866  0.5756  0.5873 -0.3195
    5DOPE  H10X  620   0.822   5.485  13.794 -1.6438  0.9016  0.6666
    5DOPE  C311  621   0.993   5.374  13.865 -0.3312 -0.8138  0.4665
    5DOPE  H11X  622   0.999   5.281  13.925 -0.5808 -0.4269  1.1043
    5DOPE  H11Y  623   1.033   5.348  13.765 -1.2991  0.6213 -0.3366
    5DOPE  C312  624   1.085   5.488  13.918 -0.1915  0.9255 -0.1014
    5DOPE  H12X  625   1.187   5.445  13.912 -0.2666  0.7980 -0.5292
    5DOPE  H12Y  626   1.056   5.491  14.025 -1.3549  3.1825 -0.4302
    5DOPE  C313  627   1.082   5.622  13.843 -0.3931 -0.2352  0.4209
    5DOPE  H13X  628   1.097   5.599  13.735  0.4619  1.5451  0.1384
    5DOPE  H13Y  629   0.981   5.666  13.849  0.5596  1.9694  0.9669
    5DOPE  C314  630   1.174   5.730  13.904 -1.1530 -0.6132 -0.3414
    5DOPE  H14X  631   1.279   5.705  13.877 -1.6853 -1.4046 -1.7813
    5DOPE  H14Y  632   1.176   5.733  14.015  1.0669 -2.9709 -0.2375
    5DOPE  C315  633   1.139   5.874  13.854  0.0002 -0.3595  0.1455
    5DOPE  H15X  634   1.217   5.940  13.897  0.1525  0.3014 -1.1005
    5DOPE  H15Y  635   1.040   5.901  13.896 -1.1944 -1.3321 -1.9018
    5DOPE  C316  636   1.137   5.891  13.699 -0.3502 -0.5394 -1.1360
    5DOPE  H16X  637   1.098   5.991  13.668  0.3635  0.4394  0.9299
    5DOPE  H16Y  638   1.065   5.818  13.656 -0.1393 -2.1110  1.0188
    5DOPE  C317  639   1.268   5.881  13.622  0.3687  0.7094 -0.0097
    5DOPE  H17X  640   1.335   5.947  13.681 -0.7602  1.5198  0.4035
    5DOPE  H17Y  641   1.303   5.776  13.628 -1.6109 -0.3094 -3.2759
    5DOPE  C318  642   1.257   5.919  13.474  0.3760 -0.2102 -0.0250
    5DOPE  H18X  643   1.211   5.841  13.410  0.1229  1.0260 -1.4086
    5DOPE  H18Y  644   1.199   6.014  13.473 -3.0730 -1.8624  4.1159
    5DOPE  H18Z  645   1.358   5.941  13.435  0.3216  1.3826  0.6615
    6DOPE     N  646   0.446   5.235  15.315  0.0241 -0.2325 -0.1469
    6DOPE   HN1  647   0.482   5.138  15.313 -0.9893 -0.7988  2.9359
    6DOPE   HN2  648   0.452   5.283  15.223  0.4229 -1.3271 -0.7105
    6DOPE   HN3  649   0.495   5.302  15.378  0.3865  0.7453 -1.4360
    6DOPE   C12  650   0.308   5.234  15.361  0.5127  0.5374 -0.0647
    6DOPE  H12A  651   0.296   5.175  15.454 -1.3320 -0.2342 -0.7358
    6DOPE  H12B  652   0.253   5.177  15.283  0.4787  1.7135 -0.9284
    6DOPE   C11  653   0.258   5.385  15.384 -0.4169 -0.2138  0.3085
    6DOPE  H11A  654   0.176   5.381  15.458 -0.5997  0.6932  0.1702
    6DOPE  H11B  655   0.216   5.423  15.289  1.8760  2.2822  0.1745
    6DOPE     P  656   0.377   5.523  15.562  0.0770 -0.1973 -0.3905
    6DOPE   O13  657   0.379   5.401  15.648 -0.5939 -0.3049 -0.5802
    6DOPE   O14  658   0.268   5.619  15.591  0.0736  0.4522  0.1390
    6DOPE   O11  659   0.519   5.588  15.556 -0.4598  0.0326  0.0392
    6DOPE   O12  660   0.365   5.476  15.413 -0.0429 -0.4201 -0.4346
    6DOPE    C1  661   0.536   5.728  15.524 -0.0639 -0.2393  0.1319
    6DOPE    HA  662   0.603   5.778  15.597 -1.0394  0.2333  0.7211
    6DOPE    HB  663   0.441   5.784  15.529  1.5175  2.8142 -1.5608
    6DOPE    C2  664   0.593   5.759  15.379 -0.5717  0.3760  0.0678
    6DOPE    HS  665   0.617   5.866  15.361 -0.1818  0.0828 -1.2708
    6DOPE   O21  666   0.491   5.714  15.284  0.6017  0.1879 -0.0956
    6DOPE   C21  667   0.401   5.814  15.269 -0.3565  0.5165  0.0472
    6DOPE   O22  668   0.403   5.919  15.333  0.3982  0.1935 -0.1032
    6DOPE   C22  669   0.300   5.781  15.153 -0.4973  0.1069 -0.2343
    6DOPE   H2R  670   0.198   5.780  15.199  0.1128 -2.6282  1.3026
    6DOPE   H2S  671   0.315   5.673  15.132  1.6441  0.0657  1.2060
    6DOPE    C3  672   0.717   5.669  15.366 -0.0928  0.1284  0.1268
    6DOPE    HX  673   0.687   5.568  15.400 -0.8055  1.1154  2.6693
    6DOPE    HY  674   0.791   5.710  15.438 -0.3175  2.9775 -1.1304
    6DOPE   O31  675   0.768   5.664  15.229 -0.3530  0.1301  0.0966
    6DOPE   C31  676   0.863   5.747  15.207  0.1010 -0.3121 -0.8220
    6DOPE   O32  677   0.904   5.844  15.272 -0.1720 -0.5533  0.1528
    6DOPE   C32  678   0.929   5.694  15.082 -0.5304  0.4571  0.0770
    6DOPE   H2X  679   1.035   5.728  15.082 -0.1359 -0.7094 -0.9950
    6DOPE   H2Y  680   0.948   5.585  15.084  2.4283  0.8662 -0.4700
    6DOPE   C23  681   0.319   5.872  15.034  0.4636  0.1459  0.5345
    6DOPE   H3R  682   0.424   5.861  14.999  0.2560 -1.5767  0.3785
    6DOPE   H3S  683   0.296   5.978  15.059  1.9908  0.2657  1.5314
    6DOPE   C24  684   0.214   5.834  14.923 -0.2218  0.1086  0.3459
    6DOPE   H4R  685   0.117   5.874  14.958  0.1177  1.0896  0.1813
    6DOPE   H4S  686   0.208   5.723  14.916  1.8640 -0.0756  0.8951
    6DOPE   C25  687   0.263   5.895  14.788  0.0157  0.3460 -0.2612
    6DOPE   H5R  688   0.362   5.851  14.765  0.7788  1.6781  0.3454
    6DOPE   H5S  689   0.286   6.001  14.816 -1.2782  0.6965 -0.4765
    6DOPE   C26  690   0.162   5.888  14.675  0.3675  0.1939 -0.0568
    6DOPE   H6R  691   0.078   5.952  14.711  0.6783 -0.1412  1.3218
    6DOPE   H6S  692   0.119   5.787  14.658  0.7312  0.3401 -2.0463
    6DOPE   C27  693   0.224   5.952  14.557 -0.1373 -0.4233 -0.3961
    6DOPE   H7R  694   0.323   5.902  14.554  0.5722  0.7234  1.8604
    6DOPE   H7S  695   0.235   6.062  14.569  0.4623 -0.7230  2.2817
    6DOPE   C28  696   0.140   5.926  14.436 -0.3175 -0.4309  1.2409
    6DOPE   H8R  697   0.036   5.947  14.468  0.0950  4.7664 -0.0303
    6DOPE   H8S  698   0.144   5.815  14.425 -1.2271 -0.2941 -1.0869
    6DOPE   C29  699   0.178   5.992  14.305  0.0559  0.0855  0.0998
    6DOPE   H9R  700   0.280   6.025  14.282 -0.6819  1.0698 -2.0319
    6DOPE  C210  701   0.086   6.046  14.220  0.7176 -0.2059 -0.0203
    6DOPE  H10R  702   0.130   6.087  14.128  0.6153 -0.1751 -0.0557
    6DOPE  C211  703  -0.062   6.023  14.234 -0.0049  0.3764  0.1665
    6DOPE  H11R  704  -0.132   6.104  14.202 -2.2592 -0.9153  1.6256
    6DOPE  H11S  705  -0.092   6.011  14.340 -0.5571  1.6688  0.1815
    6DOPE  C212  706  -0.095   5.908  14.140  0.9323  0.6207 -1.0841
    6DOPE  H12R  707  -0.205   5.895  14.148  0.7380  2.2238 -0.6588
    6DOPE  H12S  708  -0.043   5.812  14.160 -0.9194 -0.4724 -1.3065
    6DOPE  C213  709  -0.065   5.939  13.993 -0.5203  0.4621  0.0158
    6DOPE  H13R  710  -0.112   5.852  13.942  0.2874  0.0126  0.0233
    6DOPE  H13S  711   0.039   5.941  13.953 -0.1420 -1.2880  0.8238
    6DOPE  C214  712  -0.130   6.061  13.924 -0.5716 -0.2533  0.0127
    6DOPE  H14R  713  -0.060   6.142  13.955  0.6621 -2.3398  3.1365
    6DOPE  H14S  714  -0.236   6.081  13.951  0.2237  0.7384  2.6630
    6DOPE  C215  715  -0.131   6.036  13.767 -0.4244 -0.5264  0.1094
    6DOPE  H15R  716  -0.206   5.957  13.746 -1.9506  0.9164 -0.0595
    6DOPE  H15S  717  -0.026   6.007  13.745  0.1124  0.5485  1.1102
    6DOPE  C216  718  -0.161   6.156  13.683 -0.5391 -0.0432 -0.5044
    6DOPE  H16R  719  -0.101   6.232  13.737 -0.9238 -1.0871  1.5219
    6DOPE  H16S  720  -0.270   6.179  13.677 -0.7353 -1.0260 -0.9335
    6DOPE  C217  721  -0.104   6.130  13.544 -0.3963 -0.0614 -0.3485
    6DOPE  H17R  722  -0.164   6.048  13.500 -1.4736  1.5506 -2.0258
    6DOPE  H17S  723  -0.001   6.089  13.552 -0.7082 -0.9219 -0.6374
    6DOPE  C218  724  -0.102   6.257  13.461  0.7137 -0.0755  0.2817
    6DOPE  H18R  725  -0.092   6.232  13.353 -1.1654  0.4202 -0.0401
    6DOPE  H18S  726  -0.021   6.330  13.481 -0.9919  2.2366 -0.8729
    6DOPE  H18T  727  -0.194   6.314  13.481 -0.2926 -1.0728 -1.3072
    6DOPE   C33  728   0.853   5.739  14.953 -0.1079  0.2453 -0.1787
    6DOPE   H3X  729   0.924   5.726  14.868  1.9661 -0.5434  1.5809
    6DOPE   H3Y  730   0.832   5.848  14.964 -0.3961  0.0367  1.5734
    6DOPE   C34  731   0.719   5.680  14.930  0.1908 -0.0114  0.1957
    6DOPE   H4X  732   0.737   5.571  14.916  1.4098 -0.2011  2.7771
    6DOPE   H4Y  733   0.655   5.689  15.020  0.5218 -1.4399  0.5952
    6DOPE   C35  734   0.639   5.747  14.819  0.6847  0.1583 -0.3651
    6DOPE   H5X  735   0.603   5.847  14.851 -0.2536 -0.8720  2.0183
    6DOPE   H5Y  736   0.545   5.689  14.814  0.8211 -0.0231 -0.8681
    6DOPE   C36  737   0.701   5.774  14.681 -0.6318  0.6858  0.3569
    6DOPE   H6X  738   0.749   5.682  14.643 -0.6523  1.5393 -1.8531
    6DOPE   H6Y  739   0.782   5.849  14.698  0.9438 -0.9189  0.2088
    6DOPE   C37  740   0.596   5.824  14.579 -0.1401 -0.7745 -0.1258
    6DOPE   H7X  741   0.521   5.744  14.560  0.2542 -1.6264  1.7001
    6DOPE   H7Y  742   0.545   5.913  14.623  0.1805 -1.0700  0.8716
    6DOPE   C38  743   0.652   5.854  14.443 -0.5912  0.1083  0.1409
    6DOPE   H8X  744   0.717   5.773  14.402  0.0354  1.4877 -1.7257
    6DOPE   H8Y  745   0.728   5.936  14.449  0.2936 -0.7100  0.4265
    6DOPE   C39  746   0.543   5.886  14.348 -0.1675  0.5971  0.6870
    6DOPE   H9X  747   0.441   5.866  14.385 -0.5168  1.0945  0.0221
    6DOPE  C310  748   0.562   5.930  14.221 -0.1413  0.1857  0.7900
    6DOPE  H10X  749   0.470   5.950  14.163 -0.2328  2.6516  1.6467
    6DOPE  C311  750   0.699   5.966  14.155  0.3489  0.4125  0.5736
    6DOPE  H11X  751   0.700   6.074  14.129 -0.8236  0.9363  2.4592
    6DOPE  H11Y  752   0.780   5.952  14.229 -0.1968 -0.1621  1.0852
    6DOPE  C312  753   0.722   5.886  14.026 -0.8448  0.3850 -0.0589
    6DOPE  H12X  754   0.721   5.779  14.057  0.3837  0.0093 -1.2487
    6DOPE  H12Y  755   0.827   5.906  13.998 -1.1744 -0.6872 -2.2382
    6DOPE  C313  756   0.633   5.915  13.907 -0.5289 -0.2176 -0.2958
    6DOPE  H13X  757   0.533   5.871  13.927 -0.2570 -1.2752 -1.2046
    6DOPE  H13Y  758   0.621   6.025  13.900 -0.8941 -0.1587  0.9045
    6DOPE  C314  759   0.695   5.862  13.780 -1.4672 -1.0639 -0.0439
    6DOPE  H14X  760   0.806   5.856  13.772 -1.4299 -2.6475  1.1524
    6DOPE  H14Y  761   0.650   5.927  13.702 -2.5436 -0.5261  0.9976
    6DOPE  C315  762   0.637   5.722  13.749  0.5067 -0.0889  0.2855
    6DOPE  H15X  763   0.526   5.728  13.739  0.7455  1.0454 -3.5201
    6DOPE  H15Y  764   0.651   5.654  13.836  1.7483 -0.9709 -0.5622
    6DOPE  C316  765   0.691   5.653  13.623  0.0105 -0.1345 -0.1344
    6DOPE  H16X  766   0.799   5.633  13.610 -0.6571 -2.7338 -2.8225
    6DOPE  H16Y  767   0.672   5.721  13.537  1.8753 -0.0674 -0.5334
    6DOPE  C317  768   0.623   5.523  13.581 -0.1220  0.1977  0.1356
    6DOPE  H17X  769   0.601   5.468  13.676 -2.8621  2.3620  0.8678
    6DOPE  H17Y  770   0.530   5.556  13.532  0.1690  0.4223 -0.2649
    6DOPE  C318  771   0.714   5.442  13.490  0.0714 -0.1161 -0.4638
    6DOPE  H18X  772   0.667   5.350  13.450 -1.6231 -0.6563  2.4617
    6DOPE  H18Y  773   0.757   5.504  13.409  0.4928 -0.5449 -0.5758
    6DOPE  H18Z  774   0.803   5.406  13.546  1.1282  2.6518 -0.1986
    7DOPE     N  775   3.084   5.754  16.173 -0.3676 -0.2292 -0.0744
    7DOPE   HN1  776   3.053   5.815  16.251 -0.4371 -1.1833  0.6519
    7DOPE   HN2  777   3.058   5.655  16.189 -1.0079 -0.0855 -0.2294
    7DOPE   HN3  778   3.186   5.779  16.175 -0.6220  0.8734  0.0055
    7DOPE   C12  779   3.036   5.812  16.044 -0.0495 -0.2415 -0.4231
    7DOPE  H12A  780   3.065   5.919  16.045 -1.3151  0.1180  0.8570
    7DOPE  H12B  781   2.926   5.793  16.043  0.1834 -2.4430  2.3252
    7DOPE   C11  782   3.101   5.740  15.923 -0.4982 -0.2078 -0.0325
    7DOPE  H11A  783   3.067   5.765  15.820 -0.6441 -1.3084 -0.2662
    7DOPE  H11B  784   3.082   5.631  15.935 -2.1312 -0.0379 -0.8615
    7DOPE     P  785   3.353   5.693  15.852  0.0055 -0.0303  0.2404
    7DOPE   O13  786   3.368   5.558  15.904 -0.3652 -0.0679  0.3660
    7DOPE   O14  787   3.477   5.776  15.846  0.2828  0.1944  0.0117
    7DOPE   O11  788   3.301   5.691  15.701  0.5272  0.1445  0.2986
    7DOPE   O12  789   3.239   5.777  15.925 -0.2047  0.2865 -0.7821
    7DOPE    C1  790   3.298   5.816  15.630  0.8959 -0.3228 -0.1236
    7DOPE    HA  791   3.393   5.872  15.633  0.7084  0.0637 -1.0598
    7DOPE    HB  792   3.221   5.884  15.673  0.4218 -1.2304  0.5064
    7DOPE    C2  793   3.249   5.794  15.481 -0.2801  0.6200  0.0488
    7DOPE    HS  794   3.256   5.897  15.439  0.5945  0.3554 -0.4866
    7DOPE   O21  795   3.122   5.734  15.464  0.2828 -0.5399  0.1132
    7DOPE   C21  796   3.026   5.818  15.427  0.3139  0.0100  0.3714
    7DOPE   O22  797   3.028   5.937  15.439 -0.5600  0.2596  0.1465
    7DOPE   C22  798   2.906   5.741  15.369 -0.4079  0.1767 -0.9632
    7DOPE   H2R  799   2.818   5.765  15.433  1.5224  0.1066  1.8879
    7DOPE   H2S  800   2.920   5.631  15.382  0.2379  0.5258  2.2408
    7DOPE    C3  801   3.361   5.706  15.405  0.7389 -0.5785 -0.3749
    7DOPE    HX  802   3.347   5.602  15.443 -2.6625  0.5788  2.0017
    7DOPE    HY  803   3.465   5.729  15.438  1.2632 -1.5359 -1.2905
    7DOPE   O31  804   3.345   5.720  15.260  0.2730  0.1947 -0.4454
    7DOPE   C31  805   3.442   5.793  15.199  0.0480  0.3552 -0.2317
    7DOPE   O32  806   3.534   5.850  15.255 -0.2060  0.8704 -0.2820
    7DOPE   C32  807   3.427   5.780  15.047 -0.3048 -0.1586  0.2513
    7DOPE   H2X  808   3.436   5.672  15.024  3.4502 -0.3805  2.0141
    7DOPE   H2Y  809   3.325   5.821  15.029 -1.0076 -1.3608  1.3426
    7DOPE   C23  810   2.878   5.781  15.229 -0.0107  0.2630 -0.1830
    7DOPE   H3R  811   2.879   5.892  15.229 -0.0902  0.3688  3.2351
    7DOPE   H3S  812   2.777   5.749  15.199  0.6045 -0.5500 -1.4327
    7DOPE   C24  813   2.976   5.706  15.142  0.0262  0.5167  0.3871
    7DOPE   H4R  814   2.947   5.599  15.148  2.1712 -0.2873 -1.9476
    7DOPE   H4S  815   3.080   5.712  15.182 -0.6247 -0.1860  2.3150
    7DOPE   C25  816   2.981   5.738  14.990  0.1829  0.0378 -0.2456
    7DOPE   H5R  817   3.020   5.839  14.966 -2.2264  1.0952 -0.0280
    7DOPE   H5S  818   2.876   5.737  14.953 -0.0606  1.2632  0.3689
    7DOPE   C26  819   3.059   5.637  14.908 -0.5183 -0.2028  0.3739
    7DOPE   H6R  820   3.006   5.540  14.906 -0.3987 -0.3427  2.0842
    7DOPE   H6S  821   3.161   5.617  14.948 -0.2434  0.5361  0.0584
    7DOPE   C27  822   3.071   5.697  14.766 -0.8705  0.2737  0.3012
    7DOPE   H7R  823   3.144   5.781  14.757 -1.4066  0.5522 -1.7114
    7DOPE   H7S  824   2.970   5.738  14.744  0.1364  2.3197 -0.8180
    7DOPE   C28  825   3.094   5.591  14.655 -0.0754  0.0423  0.7331
    7DOPE   H8R  826   3.085   5.646  14.560  0.4455 -0.7183  0.2284
    7DOPE   H8S  827   2.998   5.537  14.667  0.0939 -0.5949 -0.6238
    7DOPE   C29  828   3.221   5.505  14.679  0.4383 -0.1592 -0.5399
    7DOPE   H9R  829   3.221   5.441  14.768 -0.9089  2.1062  1.1811
    7DOPE  C210  830   3.327   5.500  14.600  0.1629 -0.2970  0.5224
    7DOPE  H10R  831   3.409   5.433  14.628 -0.1473 -0.6219  0.6557
    7DOPE  C211  832   3.351   5.567  14.470  0.2700 -0.4086  0.7091
    7DOPE  H11R  833   3.413   5.659  14.480  1.3161 -0.8627 -1.2088
    7DOPE  H11S  834   3.260   5.615  14.427 -0.8877 -2.7474  0.3717
    7DOPE  C212  835   3.405   5.476  14.357 -0.1553 -0.0434  0.3616
    7DOPE  H12R  836   3.485   5.409  14.395  1.7666  2.2710  0.6544
    7DOPE  H12S  837   3.451   5.536  14.275 -0.3661 -0.1424  0.1706
    7DOPE  C213  838   3.300   5.382  14.301 -0.6225 -0.1620  0.5212
    7DOPE  H13R  839   3.259   5.334  14.392  0.6244 -2.0887  0.1219
    7DOPE  H13S  840   3.334   5.298  14.237 -2.5823 -0.6606  0.0750
    7DOPE  C214  841   3.190   5.448  14.211 -0.1672  0.1449 -0.2325
    7DOPE  H14R  842   3.227   5.542  14.165  0.2008 -0.0822 -0.4098
    7DOPE  H14S  843   3.101   5.464  14.276 -2.6355  0.5457 -3.4602
    7DOPE  C215  844   3.144   5.358  14.087  0.4143 -0.2591  0.0562
    7DOPE  H15R  845   3.101   5.264  14.127  0.1599  0.5147  1.6870
    7DOPE  H15S  846   3.233   5.327  14.027 -1.8031 -2.1676 -2.4928
    7DOPE  C216  847   3.059   5.432  13.973  0.7782  0.1437  0.0379
    7DOPE  H16R  848   2.959   5.466  14.006 -0.1417 -1.4435 -1.0251
    7DOPE  H16S  849   3.025   5.353  13.904  1.5512 -0.4653  0.3412
    7DOPE  C217  850   3.130   5.547  13.894 -0.0615  0.4155 -0.0406
    7DOPE  H17R  851   3.235   5.509  13.895 -0.8161 -1.8515 -0.6570
    7DOPE  H17S  852   3.123   5.643  13.949 -1.4607 -0.5402  1.5275
    7DOPE  C218  853   3.056   5.578  13.762 -0.0737  0.2921 -0.6196
    7DOPE  H18R  854   3.023   5.489  13.704  0.0913  0.4978 -1.0370
    7DOPE  H18S  855   3.137   5.620  13.698  0.3162 -1.0382 -1.0439
    7DOPE  H18T  856   2.983   5.659  13.779  0.9929  1.4702 -1.4337
    7DOPE   C33  857   3.544   5.840  14.966  0.2684 -0.4680  0.0229
    7DOPE   H3X  858   3.637   5.783  14.989  2.9141  2.6491 -2.0835
    7DOPE   H3Y  859   3.549   5.950  14.985  1.2031  0.3367 -4.0202
    7DOPE   C34  860   3.527   5.824  14.812  0.2700 -1.0670 -0.1944
    7DOPE   H4X  861   3.517   5.717  14.783  2.1273 -0.9358 -1.5364
    7DOPE   H4Y  862   3.434   5.872  14.776  1.7314  0.8933 -1.5787
    7DOPE   C35  863   3.651   5.886  14.748 -0.0398 -0.2563 -0.2815
    7DOPE   H5X  864   3.739   5.856  14.809  0.9527  3.7934  0.5254
    7DOPE   H5Y  865   3.645   5.995  14.769  4.5415  0.2183 -0.4065
    7DOPE   C36  866   3.678   5.882  14.594  0.1502 -0.2661  0.0381
    7DOPE   H6X  867   3.675   5.772  14.575 -0.7932 -0.4831  1.3266
    7DOPE   H6Y  868   3.778   5.928  14.582  0.8129 -1.2663  1.4472
    7DOPE   C37  869   3.571   5.956  14.515 -0.2431  0.0047  0.3561
    7DOPE   H7X  870   3.477   5.897  14.516 -0.7315  0.7645 -0.0325
    7DOPE   H7Y  871   3.549   6.060  14.545 -2.1899 -0.3258  0.1654
    7DOPE   C38  872   3.611   5.960  14.367  0.8595  0.1437  0.2713
    7DOPE   H8X  873   3.691   6.036  14.354 -0.7750  2.1924  1.5840
    7DOPE   H8Y  874   3.524   5.990  14.305  1.2765 -1.3879 -1.1529
    7DOPE   C39  875   3.668   5.821  14.313  0.4676  0.0918 -0.1903
    7DOPE   H9X  876   3.730   5.759  14.379  0.0157  0.8263  0.9486
    7DOPE  C310  877   3.631   5.767  14.192  0.0912  0.4314  0.3518
    7DOPE  H10X  878   3.659   5.664  14.165 -2.2900 -0.4514  1.0278
    7DOPE  C311  879   3.540   5.828  14.093  0.6466 -0.3903 -0.2408
    7DOPE  H11X  880   3.440   5.835  14.140  1.9375  2.8007  2.4329
    7DOPE  H11Y  881   3.563   5.936  14.079 -3.6188  0.6459 -0.6371
    7DOPE  C312  882   3.542   5.775  13.947 -0.5725  0.3854 -1.0724
    7DOPE  H12X  883   3.478   5.684  13.946  0.1766 -0.1502 -1.1332
    7DOPE  H12Y  884   3.645   5.746  13.916  1.1370  2.4526  2.1387
    7DOPE  C313  885   3.485   5.888  13.852 -0.3885  0.3704 -0.1178
    7DOPE  H13X  886   3.397   5.930  13.905 -0.3998  0.0990  0.0838
    7DOPE  H13Y  887   3.562   5.966  13.837 -0.5799 -0.0929 -5.4993
    7DOPE  C314  888   3.446   5.828  13.719  0.5730  0.4856 -0.0364
    7DOPE  H14X  889   3.368   5.750  13.730  1.7077 -1.0133 -1.9602
    7DOPE  H14Y  890   3.531   5.781  13.665 -0.8166 -0.9456 -1.0728
    7DOPE  C315  891   3.386   5.938  13.626 -0.3338  0.6247 -0.6271
    7DOPE  H15X  892   3.447   6.030  13.633 -2.2118  1.7930  3.0830
    7DOPE  H15Y  893   3.287   5.961  13.673  0.9953 -1.2373  3.5965
    7DOPE  C316  894   3.381   5.917  13.474  0.5631 -0.7225 -0.3523
    7DOPE  H16X  895   3.344   5.814  13.456 -0.6388 -0.2825 -0.4895
    7DOPE  H16Y  896   3.485   5.912  13.434  0.9208  1.3754  0.2408
    7DOPE  C317  897   3.302   6.028  13.398 -0.5064  0.4003 -0.2718
    7DOPE  H17X  898   3.196   5.997  13.401 -0.7155  1.0873 -0.4616
    7DOPE  H17Y  899   3.300   6.124  13.453 -1.6563  1.0784 -1.4353
    7DOPE  C318  900   3.353   6.040  13.255 -0.0150  0.2806  0.3594
    7DOPE  H18X  901   3.323   6.132  13.200 -0.2214 -0.3901 -0.6820
    7DOPE  H18Y  902   3.463   6.054  13.259  0.0214  0.6418 -1.1326
    7DOPE  H18Z  903   3.330   5.950  13.193 -0.9881  0.5633  0.2898
    8DOPE     N  904   3.518   6.252  15.963  0.1926 -0.1856 -0.6196
    8DOPE   HN1  905   3.483   6.346  15.935 -0.2570 -0.6871 -1.8030
    8DOPE   HN2  906   3.618   6.272  15.988  0.7994 -1.3285 -1.9948
    8DOPE   HN3  907   3.502   6.176  15.895 -1.2377 -0.0913 -0.4182
    8DOPE   C12  908   3.439   6.189  16.072 -0.9086  0.3055 -0.2806
    8DOPE  H12A  909   3.403   6.259  16.151  2.0459  1.1489  0.4450
    8DOPE  H12B  910   3.500   6.122  16.137 -2.5439  1.6350  2.8930
    8DOPE   C11  911   3.308   6.134  16.014 -0.3398  0.2358 -0.4328
    8DOPE  H11A  912   3.258   6.089  16.102  0.4713  1.3669  0.6310
    8DOPE  H11B  913   3.330   6.049  15.945  0.7896  0.4589 -0.3603
    8DOPE     P  914   3.084   6.247  15.931 -0.8380  0.4242  0.0676
    8DOPE   O13  915   3.049   6.391  15.943  0.4036 -0.1402 -0.4938
    8DOPE   O14  916   3.031   6.162  16.042  0.0251  0.3126  0.1994
    8DOPE   O11  917   3.056   6.182  15.786  0.1317 -0.0523 -0.0982
    8DOPE   O12  918   3.242   6.244  15.937  0.1903  0.1946 -0.2236
    8DOPE    C1  919   3.156   6.177  15.685 -0.5920  0.1359 -0.2526
    8DOPE    HA  920   3.130   6.109  15.601  3.2244 -1.8817 -0.0257
    8DOPE    HB  921   3.247   6.120  15.713 -0.2570  1.0655  0.5966
    8DOPE    C2  922   3.191   6.319  15.631 -0.2506  0.3900 -0.1211
    8DOPE    HS  923   3.219   6.384  15.717 -2.1874 -0.7121  1.4369
    8DOPE   O21  924   3.066   6.363  15.576  0.2292  0.0864 -0.1298
    8DOPE   C21  925   3.064   6.493  15.545  1.1446  0.6621 -0.1047
    8DOPE   O22  926   3.159   6.566  15.573 -0.3030  0.0091 -0.3128
    8DOPE   C22  927   2.921   6.530  15.513 -0.8695 -0.1514  0.6171
    8DOPE   H2R  928   2.932   6.608  15.434  0.0328  0.5644  1.4230
    8DOPE   H2S  929   2.872   6.581  15.598 -1.8524  0.9497 -0.5665
    8DOPE    C3  930   3.306   6.307  15.529 -0.1300 -0.8050  0.1031
    8DOPE    HX  931   3.403   6.295  15.583  0.9632 -1.2213 -1.8625
    8DOPE    HY  932   3.314   6.406  15.479 -2.9063 -0.4604  0.1749
    8DOPE   O31  933   3.280   6.207  15.429  0.4564  0.2998  0.3193
    8DOPE   C31  934   3.231   6.250  15.311 -0.1801  0.2715 -0.0800
    8DOPE   O32  935   3.209   6.366  15.278  0.0308  0.3739 -0.5506
    8DOPE   C32  936   3.220   6.133  15.220 -0.1647  0.7611  0.0998
    8DOPE   H2X  937   3.318   6.080  15.215 -0.1485  0.5701  1.9090
    8DOPE   H2Y  938   3.138   6.065  15.249 -1.0569  1.3030 -1.0639
    8DOPE   C23  939   2.816   6.427  15.461  0.1208  0.0221  0.3456
    8DOPE   H3R  940   2.718   6.479  15.458  0.3612  0.6425  2.0154
    8DOPE   H3S  941   2.803   6.349  15.540  0.5310 -0.8363 -0.4162
    8DOPE   C24  942   2.848   6.362  15.331 -0.1941  0.1585  0.3555
    8DOPE   H4R  943   2.941   6.303  15.340 -2.0921 -2.8978  1.3830
    8DOPE   H4S  944   2.862   6.434  15.248 -0.0955  0.2458  0.4472
    8DOPE   C25  945   2.743   6.260  15.292  0.1127  0.3025 -0.4214
    8DOPE   H5R  946   2.642   6.293  15.324  0.0774  1.3034 -1.5261
    8DOPE   H5S  947   2.770   6.164  15.341  0.5242  0.2834 -0.6763
    8DOPE   C26  948   2.756   6.214  15.142  0.4310 -0.7724 -0.6020
    8DOPE   H6R  949   2.864   6.194  15.126  0.8217  1.2809 -0.8217
    8DOPE   H6S  950   2.711   6.303  15.093  1.1595  0.5534  1.0300
    8DOPE   C27  951   2.675   6.089  15.115 -0.1433  0.0778  0.0255
    8DOPE   H7R  952   2.568   6.118  15.128  0.0760  1.2884 -0.7104
    8DOPE   H7S  953   2.700   6.018  15.196 -2.3310  2.3106  2.8696
    8DOPE   C28  954   2.693   6.026  14.970  0.0700 -1.4222 -0.1229
    8DOPE   H8R  955   2.617   5.946  14.958 -3.3746  1.7113 -0.8612
    8DOPE   H8S  956   2.799   5.990  14.973  0.4340 -0.3105  1.3179
    8DOPE   C29  957   2.675   6.127  14.859  0.6524  0.4516  0.3444
    8DOPE   H9R  958   2.637   6.226  14.885  0.6492  0.6888 -0.5430
    8DOPE  C210  959   2.696   6.100  14.732 -0.4332  0.3142  1.0474
    8DOPE  H10R  960   2.667   6.175  14.657  0.9241  1.0628  1.2545
    8DOPE  C211  961   2.757   5.974  14.666 -0.0896  0.4319  0.2381
    8DOPE  H11R  962   2.741   5.888  14.736 -0.3725  0.7089  0.5192
    8DOPE  H11S  963   2.862   5.988  14.635  0.0953  0.4138  0.8339
    8DOPE  C212  964   2.677   5.932  14.543  0.4260  0.3444  0.6161
    8DOPE  H12R  965   2.574   5.904  14.571  1.3960 -2.7314  1.5188
    8DOPE  H12S  966   2.726   5.842  14.500  0.7329  0.4216  0.8021
    8DOPE  C213  967   2.686   6.032  14.430  0.0441  0.5848 -0.2402
    8DOPE  H13R  968   2.790   6.069  14.426  0.6162 -1.0547 -1.8151
    8DOPE  H13S  969   2.628   6.126  14.447 -0.0977  0.4780 -0.1318
    8DOPE  C214  970   2.637   5.983  14.296  0.9100 -0.4882 -0.1715
    8DOPE  H14R  971   2.536   5.939  14.315  0.5595  1.1474  2.3476
    8DOPE  H14S  972   2.706   5.908  14.253  1.7226  0.5767 -0.7874
    8DOPE  C215  973   2.605   6.096  14.200  0.9220  0.2466 -0.5117
    8DOPE  H15R  974   2.693   6.130  14.141  0.8315 -2.0064 -2.0463
    8DOPE  H15S  975   2.555   6.184  14.246 -0.2860 -0.5838 -0.1802
    8DOPE  C216  976   2.509   6.054  14.089 -0.4725 -0.5771 -0.7239
    8DOPE  H16R  977   2.424   5.992  14.126  0.8711 -2.8236 -1.2279
    8DOPE  H16S  978   2.561   5.987  14.018  1.3883 -0.9190  0.8753
    8DOPE  C217  979   2.451   6.180  14.012  0.5537  0.0170 -0.0538
    8DOPE  H17R  980   2.459   6.276  14.066  1.4591  0.0404 -0.2210
    8DOPE  H17S  981   2.342   6.159  14.004  0.2743  1.4934 -0.3738
    8DOPE  C218  982   2.519   6.203  13.877 -0.3029  0.1779  0.7475
    8DOPE  H18R  983   2.533   6.105  13.826 -0.1711  0.1966  0.7471
    8DOPE  H18S  984   2.622   6.243  13.887 -0.4687  0.9035 -0.3046
    8DOPE  H18T  985   2.463   6.270  13.808  0.1319  0.2626  0.4742
    8DOPE   C33  986   3.188   6.184  15.072  0.4222  0.0481  0.4182
    8DOPE   H3X  987   3.229   6.286  15.054 -0.5735  0.4073  0.0870
    8DOPE   H3Y  988   3.078   6.201  15.071  0.3440 -0.4402 -0.3047
    8DOPE   C34  989   3.234   6.094  14.956  0.0282  0.2294 -0.1299
    8DOPE   H4X  990   3.344   6.089  14.956  0.2257  2.6242  0.9637
    8DOPE   H4Y  991   3.195   5.990  14.956 -1.1080  0.6150 -1.6727
    8DOPE   C35  992   3.180   6.150  14.820  0.2449  0.4801  0.0699
    8DOPE   H5X  993   3.224   6.252  14.815  1.3739  0.0272  0.4099
    8DOPE   H5Y  994   3.070   6.150  14.834  0.3372 -0.7158  0.9529
    8DOPE   C36  995   3.217   6.073  14.693 -0.1693  0.6373 -0.3888
    8DOPE   H6X  996   3.182   5.969  14.704 -0.5971  0.8253  0.0881
    8DOPE   H6Y  997   3.328   6.063  14.683 -0.1574  1.4351 -1.2014
    8DOPE   C37  998   3.162   6.139  14.565 -0.0087 -0.2269  0.6343
    8DOPE   H7X  999   3.051   6.133  14.572  0.1370 -2.2907  1.8600
    8DOPE   H7Y 1000   3.168   6.250  14.555 -1.2036 -0.2680 -0.9240
    8DOPE   C38 1001   3.216   6.070  14.431 -0.4587 -0.9738  0.4089
    8DOPE   H8X 1002   3.327   6.076  14.433 -0.5425  1.7550  1.2889
    8DOPE   H8Y 1003   3.194   6.149  14.356  0.2788  0.0222  1.2091
    8DOPE   C39 1004   3.162   5.935  14.409  0.8420  1.1256  0.1090
    8DOPE   H9X 1005   3.163   5.874  14.501  3.0963  0.7294 -0.1143
    8DOPE  C310 1006   3.106   5.879  14.299 -0.4335 -0.2373  0.1687
    8DOPE  H10X 1007   3.074   5.774  14.298  1.2722 -0.7922  0.5435
    8DOPE  C311 1008   3.104   5.948  14.161  0.1364  0.4839  0.7058
    8DOPE  H11X 1009   3.168   6.038  14.174  2.1108 -0.4976 -1.5489
    8DOPE  H11Y 1010   3.153   5.882  14.086  0.4399  1.6740 -0.1768
    8DOPE  C312 1011   2.969   5.978  14.097 -0.0350  0.7009  0.8010
    8DOPE  H12X 1012   2.915   6.040  14.173 -0.2441  2.0005 -0.3733
    8DOPE  H12Y 1013   2.905   5.888  14.090  0.1361  0.6317  0.0491
    8DOPE  C313 1014   2.970   6.058  13.961 -0.6289 -0.2551 -0.5617
    8DOPE  H13X 1015   2.869   6.098  13.938 -0.6292  0.1178  0.0653
    8DOPE  H13Y 1016   3.038   6.144  13.980 -0.4467 -0.3143 -0.9352
    8DOPE  C314 1017   3.019   5.971  13.844  0.4476  0.3604 -0.0317
    8DOPE  H14X 1018   2.935   5.898  13.842  0.8934 -0.1563 -1.7644
    8DOPE  H14Y 1019   3.111   5.916  13.871  1.2431  1.7211  0.0935
    8DOPE  C315 1020   3.028   6.045  13.708  0.3277 -0.0336 -0.5494
    8DOPE  H15X 1021   2.929   6.054  13.658 -0.0781 -0.0671  0.2417
    8DOPE  H15Y 1022   3.079   5.967  13.647  0.8340  1.9992 -2.8738
    8DOPE  C316 1023   3.105   6.177  13.716  0.6253 -0.1536 -0.4716
    8DOPE  H16X 1024   3.146   6.193  13.614 -2.0251 -1.3860 -1.8331
    8DOPE  H16Y 1025   3.190   6.165  13.787  0.7900  1.4938 -0.3592
    8DOPE  C317 1026   3.018   6.298  13.752 -0.5047  0.1021 -0.0264
    8DOPE  H17X 1027   2.954   6.319  13.663 -1.8516  1.0124  1.1243
    8DOPE  H17Y 1028   2.951   6.275  13.838 -0.0378 -0.4291  0.1966
    8DOPE  C318 1029   3.095   6.422  13.775 -0.9075  0.0110  0.0395
    8DOPE  H18X 1030   3.037   6.512  13.801 -0.2082  0.0615  1.5028
    8DOPE  H18Y 1031   3.154   6.440  13.682  1.0707 -1.4057  0.9462
    8DOPE  H18Z 1032   3.176   6.409  13.850  1.0253 -2.2398 -2.2254
    9DOPE     N 1033   0.491   5.198  15.797  0.2866  0.1703  0.1384
    9DOPE   HN1 1034   0.432   5.281  15.774  0.2242 -0.2277 -1.1775
    9DOPE   HN2 1035   0.560   5.170  15.725  0.3422 -1.2457  0.7086
    9DOPE   HN3 1036   0.424   5.118  15.798  0.8410 -0.2883  0.7258
    9DOPE   C12 1037   0.540   5.226  15.932  0.3244  0.1683 -0.4134
    9DOPE  H12A 1038   0.464   5.264  16.004  0.6080 -2.0641  1.2006
    9DOPE  H12B 1039   0.615   5.307  15.934 -0.1853  0.6603 -1.0970
    9DOPE   C11 1040   0.592   5.094  16.003  0.4368  0.0091  0.0471
    9DOPE  H11A 1041   0.605   5.099  16.113 -2.7004  0.7972  0.4803
    9DOPE  H11B 1042   0.687   5.080  15.946 -0.8735  0.8477 -2.5164
    9DOPE     P 1043   0.555   4.841  15.976 -0.1834  0.4363 -0.1219
    9DOPE   O13 1044   0.438   4.753  15.977  0.6614  0.8023 -0.3539
    9DOPE   O14 1045   0.660   4.820  16.083  0.0445 -0.3459  0.2152
    9DOPE   O11 1046   0.633   4.835  15.837  0.1310  0.4459  0.4441
    9DOPE   O12 1047   0.501   4.986  15.986 -0.2391 -0.1912  0.5082
    9DOPE    C1 1048   0.556   4.850  15.722 -0.3418  0.3753  0.3868
    9DOPE    HA 1049   0.616   4.905  15.646  2.3034 -1.7404  0.7918
    9DOPE    HB 1050   0.457   4.897  15.738 -0.6599  0.1710 -0.8810
    9DOPE    C2 1051   0.524   4.716  15.649 -0.4600  0.5276  0.0904
    9DOPE    HS 1052   0.461   4.661  15.722  0.6918 -1.9799 -0.6993
    9DOPE   O21 1053   0.647   4.648  15.619 -0.0502  0.2856 -0.2494
    9DOPE   C21 1054   0.640   4.517  15.585 -0.8343 -0.0446 -0.6850
    9DOPE   O22 1055   0.545   4.444  15.603 -0.2291 -0.2016 -0.7586
    9DOPE   C22 1056   0.772   4.475  15.512 -0.0887 -0.3464  0.3573
    9DOPE   H2R 1057   0.763   4.368  15.485 -0.4487  0.3983 -2.9767
    9DOPE   H2S 1058   0.857   4.489  15.582 -0.7961  0.9318  0.9935
    9DOPE    C3 1059   0.443   4.743  15.516  0.1506 -0.1896  0.7262
    9DOPE    HX 1060   0.505   4.818  15.463 -1.1563  1.4952  1.4814
    9DOPE    HY 1061   0.348   4.801  15.523 -0.2987 -1.0027  1.7528
    9DOPE   O31 1062   0.415   4.625  15.432  0.5377 -0.5606  0.6519
    9DOPE   C31 1063   0.307   4.555  15.461 -0.4349  0.3233  0.4693
    9DOPE   O32 1064   0.217   4.587  15.541 -0.1563  0.4990 -0.0247
    9DOPE   C32 1065   0.302   4.426  15.367  0.0768  0.9268 -0.1642
    9DOPE   H2X 1066   0.383   4.360  15.402  1.3389  1.2652 -2.2803
    9DOPE   H2Y 1067   0.200   4.386  15.390  1.1774 -1.6436  0.5893
    9DOPE   C23 1068   0.790   4.559  15.384 -0.0176  0.5241 -0.2549
    9DOPE   H3R 1069   0.793   4.667  15.409 -0.3840  0.8363 -1.4888
    9DOPE   H3S 1070   0.702   4.538  15.319 -1.7042 -0.0164  2.0727
    9DOPE   C24 1071   0.908   4.520  15.308  0.0292 -0.2259  1.1058
    9DOPE   H4R 1072   0.911   4.414  15.277  0.3868 -0.5593  2.2451
    9DOPE   H4S 1073   0.990   4.519  15.383 -0.4102  0.2015  1.6009
    9DOPE   C25 1074   0.941   4.623  15.189 -0.1283 -0.0164 -0.1925
    9DOPE   H5R 1075   0.972   4.722  15.228  0.3070 -0.5827  0.9571
    9DOPE   H5S 1076   0.852   4.640  15.124 -0.4063 -0.9691 -0.0838
    9DOPE   C26 1077   1.046   4.564  15.092  0.7969 -0.3343  0.2838
    9DOPE   H6R 1078   1.126   4.519  15.154  1.2860  1.0026  0.6435
    9DOPE   H6S 1079   1.095   4.647  15.038  0.0562  1.3683  2.0990
    9DOPE   C27 1080   1.003   4.459  14.985  0.2294 -0.1674  0.5037
    9DOPE   H7R 1081   0.914   4.401  15.018  0.6303 -0.0918  1.7680
    9DOPE   H7S 1082   1.084   4.383  14.974  0.4880  0.2745 -0.8383
    9DOPE   C28 1083   0.974   4.513  14.843  0.3389 -0.3195  0.0954
    9DOPE   H8R 1084   0.911   4.603  14.860  1.5014  0.2102  1.9383
    9DOPE   H8S 1085   0.921   4.435  14.784 -0.8403 -0.0567  0.7791
    9DOPE   C29 1086   1.107   4.546  14.780  0.0819  0.7676  0.3463
    9DOPE   H9R 1087   1.163   4.454  14.760  2.0642  2.0560 -0.3394
    9DOPE  C210 1088   1.166   4.665  14.749  0.3077  0.2840 -0.7697
    9DOPE  H10R 1089   1.272   4.667  14.720  0.9126 -0.1453  1.2948
    9DOPE  C211 1090   1.103   4.801  14.769 -0.5572 -0.4584  0.0108
    9DOPE  H11R 1091   1.173   4.849  14.840  0.1859  0.5436 -1.3594
    9DOPE  H11S 1092   1.003   4.784  14.814 -0.8420 -0.1946 -0.5204
    9DOPE  C212 1093   1.098   4.889  14.647 -0.6776  1.1375 -0.8556
    9DOPE  H12R 1094   1.011   4.956  14.664 -0.2138  1.1480  1.9674
    9DOPE  H12S 1095   1.072   4.817  14.566 -1.8558  0.2772  0.2464
    9DOPE  C213 1096   1.228   4.957  14.619  0.7219  0.3217  0.0325
    9DOPE  H13R 1097   1.314   4.889  14.631  1.7163  1.3665 -0.9719
    9DOPE  H13S 1098   1.245   5.041  14.690  3.3374  1.7502 -2.1456
    9DOPE  C214 1099   1.244   5.014  14.474  0.2043  0.9762  0.5116
    9DOPE  H14R 1100   1.341   5.067  14.464  0.3612  0.5252 -0.3744
    9DOPE  H14S 1101   1.157   5.083  14.465  1.2371  2.7506  2.8780
    9DOPE  C215 1102   1.227   4.894  14.374 -0.0407 -1.0926  0.1631
    9DOPE  H15R 1103   1.125   4.852  14.376 -0.6210  0.2826  0.1878
    9DOPE  H15S 1104   1.289   4.816  14.425  0.8963 -0.5656 -0.1330
    9DOPE  C216 1105   1.281   4.926  14.230 -0.0799  0.2451  0.2058
    9DOPE  H16R 1106   1.295   4.834  14.169  1.0797 -0.2833  1.2337
    9DOPE  H16S 1107   1.372   4.989  14.225 -0.2519  0.4083 -1.2580
    9DOPE  C217 1108   1.169   5.011  14.151  0.0469  0.0850  0.2757
    9DOPE  H17R 1109   1.158   5.114  14.191 -0.6094  0.6957 -1.4065
    9DOPE  H17S 1110   1.072   4.957  14.149 -0.2584  0.6587 -0.5581
    9DOPE  C218 1111   1.213   5.025  14.004 -0.5484 -0.0342  0.1406
    9DOPE  H18R 1112   1.207   4.919  13.973 -2.5235 -0.2057  0.9418
    9DOPE  H18S 1113   1.316   5.065  14.003 -0.2715 -0.7232  0.4670
    9DOPE  H18T 1114   1.142   5.088  13.946  0.5268  0.8403 -0.2615
    9DOPE   C33 1115   0.320   4.448  15.213 -0.1908 -1.0837 -0.9102
    9DOPE   H3X 1116   0.425   4.482  15.198 -0.9204  0.7374 -2.2128
    9DOPE   H3Y 1117   0.245   4.525  15.187  0.3156 -0.6465 -1.0985
    9DOPE   C34 1118   0.298   4.321  15.134  0.2682  0.5899  0.3887
    9DOPE   H4X 1119   0.380   4.248  15.150 -1.3115 -1.1826  0.7840
    9DOPE   H4Y 1120   0.219   4.258  15.179  0.5303  1.0833  1.5915
    9DOPE   C35 1121   0.262   4.351  14.983 -0.2892 -0.0686  0.2874
    9DOPE   H5X 1122   0.328   4.429  14.940 -0.8400 -0.9909 -2.4134
    9DOPE   H5Y 1123   0.163   4.400  14.972 -0.7527 -0.3209  2.6909
    9DOPE   C36 1124   0.257   4.225  14.890  0.5010  0.3856  0.9825
    9DOPE   H6X 1125   0.200   4.141  14.936 -3.9372  1.8444 -1.2765
    9DOPE   H6Y 1126   0.363   4.198  14.873  0.3366  0.1962  0.2044
    9DOPE   C37 1127   0.183   4.244  14.751  0.6028  0.0481  0.4591
    9DOPE   H7X 1128   0.184   4.149  14.695 -0.5997 -0.4453  1.2445
    9DOPE   H7Y 1129   0.074   4.265  14.759 -0.1231 -2.0322 -2.3966
    9DOPE   C38 1130   0.244   4.358  14.662  0.8467  0.5820  0.1398
    9DOPE   H8X 1131   0.354   4.344  14.657  1.2086  3.0755 -0.2143
    9DOPE   H8Y 1132   0.227   4.451  14.719  1.3665  0.1829  0.9547
    9DOPE   C39 1133   0.184   4.350  14.526  0.6115 -0.4846  0.6321
    9DOPE   H9X 1134   0.077   4.372  14.512 -0.4186 -4.4489  1.1193
    9DOPE  C310 1135   0.243   4.326  14.408  0.2883 -0.0772  0.0681
    9DOPE  H10X 1136   0.181   4.319  14.317 -2.0799 -0.0767  1.5725
    9DOPE  C311 1137   0.386   4.286  14.383  0.3594 -0.2001 -0.1000
    9DOPE  H11X 1138   0.440   4.281  14.480  0.2281 -0.6081 -0.0475
    9DOPE  H11Y 1139   0.396   4.183  14.343  3.3499 -0.2561  0.5886
    9DOPE  C312 1140   0.477   4.374  14.299  0.5070  0.2385 -0.2388
    9DOPE  H12X 1141   0.575   4.322  14.303 -1.6592 -4.2648 -0.2673
    9DOPE  H12Y 1142   0.499   4.477  14.335 -0.8828  0.0456  1.2723
    9DOPE  C313 1143   0.438   4.383  14.153  0.8716  0.6408  0.3607
    9DOPE  H13X 1144   0.401   4.290  14.105 -0.7812  1.1191  0.6366
    9DOPE  H13Y 1145   0.355   4.457  14.147  0.9879  0.6585 -3.2820
    9DOPE  C314 1146   0.556   4.424  14.062 -0.4186 -0.1290  0.0359
    9DOPE  H14X 1147   0.640   4.361  14.101 -2.4515 -2.9333  0.2385
    9DOPE  H14Y 1148   0.587   4.525  14.095 -3.3435  0.9823 -0.3609
    9DOPE  C315 1149   0.551   4.424  13.910  0.7631 -0.0027 -0.5936
    9DOPE  H15X 1150   0.544   4.325  13.862  1.1712  0.0161 -0.6930
    9DOPE  H15Y 1151   0.651   4.458  13.877  0.3752 -0.2920 -2.1008
    9DOPE  C316 1152   0.432   4.500  13.852 -0.7177 -0.4681 -0.5736
    9DOPE  H16X 1153   0.441   4.608  13.875 -2.0748 -0.1491 -1.3795
    9DOPE  H16Y 1154   0.343   4.465  13.908  0.1626 -0.1421  1.0757
    9DOPE  C317 1155   0.411   4.468  13.704  0.3414 -0.0124 -0.4389
    9DOPE  H17X 1156   0.392   4.360  13.686  2.3591 -0.1841 -1.8087
    9DOPE  H17Y 1157   0.318   4.518  13.669 -1.5574 -3.4609 -0.8176
    9DOPE  C318 1158   0.521   4.508  13.619 -0.7553 -0.7652 -0.5106
    9DOPE  H18X 1159   0.496   4.483  13.513  2.9027 -0.0097 -1.7123
    9DOPE  H18Y 1160   0.550   4.615  13.624 -0.4970 -0.8568 -0.0054
    9DOPE  H18Z 1161   0.614   4.449  13.628  0.5813  1.1398 -1.1883
   10DOPE     N 1162   0.595   6.229  15.675  0.0399  0.4050 -0.6131
   10DOPE   HN1 1163   0.539   6.289  15.739 -0.2571 -0.8827  0.3657
   10DOPE   HN2 1164   0.668   6.287  15.629  1.7597 -0.6299  0.7005
   10DOPE   HN3 1165   0.525   6.193  15.606 -0.1434  0.3263 -0.3875
   10DOPE   C12 1166   0.666   6.124  15.763 -0.3120  0.0620  0.3299
   10DOPE  H12A 1167   0.734   6.060  15.703 -0.5171 -1.0766  1.2638
   10DOPE  H12B 1168   0.583   6.060  15.802  0.0410 -0.7570 -0.2451
   10DOPE   C11 1169   0.734   6.205  15.871 -0.5098 -0.2337  0.0947
   10DOPE  H11A 1170   0.760   6.144  15.960 -0.9407 -1.5857 -0.6742
   10DOPE  H11B 1171   0.654   6.273  15.907  0.5724  1.4439 -0.5269
   10DOPE     P 1172   0.955   6.337  15.903  0.4235  0.2576 -0.0564
   10DOPE   O13 1173   1.063   6.237  15.880  0.0791 -0.0665  1.0696
   10DOPE   O14 1174   0.895   6.361  16.035 -0.6649  0.3822 -0.0133
   10DOPE   O11 1175   0.990   6.464  15.828 -0.5341  0.0613 -0.4333
   10DOPE   O12 1176   0.838   6.280  15.813  0.0717 -0.7022 -0.0056
   10DOPE    C1 1177   0.936   6.538  15.722 -0.3561 -0.5979 -0.2230
   10DOPE    HA 1178   0.986   6.637  15.715 -0.5152 -0.5794 -1.1820
   10DOPE    HB 1179   0.828   6.559  15.739  0.0060  0.0594  1.3902
   10DOPE    C2 1180   0.940   6.474  15.579 -0.2238  0.4159  0.4233
   10DOPE    HS 1181   0.922   6.365  15.592 -0.9412  0.3184 -1.1191
   10DOPE   O21 1182   1.068   6.501  15.518  0.0079 -0.0093  0.1214
   10DOPE   C21 1183   1.101   6.415  15.427 -0.3011  0.2285 -0.8507
   10DOPE   O22 1184   1.042   6.314  15.398  0.2302  0.2730 -0.9502
   10DOPE   C22 1185   1.225   6.467  15.356 -0.0672  0.7109 -0.1554
   10DOPE   H2R 1186   1.272   6.381  15.304  0.6421  0.1614  1.3313
   10DOPE   H2S 1187   1.304   6.498  15.427 -0.4714 -0.7719  1.0088
   10DOPE    C3 1188   0.833   6.541  15.491  0.5126  0.5458  0.6101
   10DOPE    HX 1189   0.854   6.651  15.491  0.5482  0.6447 -3.0084
   10DOPE    HY 1190   0.731   6.533  15.536  0.5624  0.4168  0.6991
   10DOPE   O31 1191   0.833   6.498  15.357 -0.0747  0.2035 -0.0830
   10DOPE   C31 1192   0.772   6.376  15.333  0.4449 -0.6756 -0.5919
   10DOPE   O32 1193   0.719   6.311  15.421  0.0520 -0.1533  0.1863
   10DOPE   C32 1194   0.763   6.347  15.186 -0.6046  0.5541 -0.5703
   10DOPE   H2X 1195   0.746   6.447  15.141 -0.2932 -0.3806 -2.9484
   10DOPE   H2Y 1196   0.859   6.310  15.142 -0.5902 -0.7382  0.4879
   10DOPE   C23 1197   1.198   6.573  15.246 -0.5999  0.6433  0.1500
   10DOPE   H3R 1198   1.288   6.608  15.192 -0.0418  0.3109  0.8454
   10DOPE   H3S 1199   1.165   6.667  15.296  0.6152  0.4592  1.3847
   10DOPE   C24 1200   1.109   6.522  15.132  0.3187 -0.1123  0.4388
   10DOPE   H4R 1201   1.018   6.479  15.179 -0.0763  2.2514  1.9898
   10DOPE   H4S 1202   1.166   6.439  15.086  0.1764  0.3358 -0.5496
   10DOPE   C25 1203   1.062   6.638  15.053  0.3384  0.1767 -0.9225
   10DOPE   H5R 1204   1.143   6.701  15.011  2.0223 -1.6818 -0.5919
   10DOPE   H5S 1205   0.984   6.693  15.111  0.2924 -1.1134  0.2929
   10DOPE   C26 1206   0.980   6.587  14.934 -0.6988  0.4331  0.1134
   10DOPE   H6R 1207   0.901   6.514  14.962 -0.2599  0.1448  0.6180
   10DOPE   H6S 1208   1.053   6.526  14.878 -0.3485  0.4983  0.4906
   10DOPE   C27 1209   0.910   6.695  14.850 -0.4429 -0.4411  0.2392
   10DOPE   H7R 1210   0.989   6.762  14.810 -1.4463  0.2383 -0.6887
   10DOPE   H7S 1211   0.849   6.756  14.919 -0.8977 -0.1550 -0.3989
   10DOPE   C28 1212   0.820   6.642  14.735  0.6163  0.2169  0.1372
   10DOPE   H8R 1213   0.753   6.726  14.705 -0.9593 -0.1699  2.2957
   10DOPE   H8S 1214   0.746   6.576  14.786  0.0160  0.4545 -0.4127
   10DOPE   C29 1215   0.880   6.570  14.619  0.6769 -0.6609  0.4531
   10DOPE   H9R 1216   0.850   6.464  14.619 -0.7072 -0.2900  0.0530
   10DOPE  C210 1217   0.936   6.627  14.509 -0.3190 -0.1882 -0.1821
   10DOPE  H10R 1218   0.971   6.559  14.429  1.3186 -1.7452  1.7709
   10DOPE  C211 1219   0.957   6.773  14.473  0.1691  0.7723  0.2372
   10DOPE  H11R 1220   1.067   6.772  14.484  0.1962  1.6284  0.0888
   10DOPE  H11S 1221   0.929   6.849  14.550  1.0853  2.5754 -1.1284
   10DOPE  C212 1222   0.915   6.824  14.331  0.5600 -0.4008  0.3577
   10DOPE  H12R 1223   0.972   6.917  14.309 -1.4851  1.0725  0.9569
   10DOPE  H12S 1224   0.809   6.854  14.340  0.3307 -1.0294 -0.1924
   10DOPE  C213 1225   0.935   6.734  14.204  0.5700  0.0436  0.1322
   10DOPE  H13R 1226   0.869   6.645  14.214  0.1607  0.5003  2.1101
   10DOPE  H13S 1227   1.043   6.709  14.200  0.8592  1.1881  0.4495
   10DOPE  C214 1228   0.892   6.816  14.083 -0.1116 -0.2380 -0.2729
   10DOPE  H14R 1229   0.899   6.926  14.096  2.0412 -0.5922  2.5657
   10DOPE  H14S 1230   0.787   6.788  14.059 -0.1368  0.3501 -0.8912
   10DOPE  C215 1231   0.986   6.788  13.962 -0.4371  0.2961 -0.5234
   10DOPE  H15R 1232   1.019   6.682  13.962 -1.6330 -0.1144  0.9127
   10DOPE  H15S 1233   1.080   6.841  13.987 -0.4502 -0.6510  1.7350
   10DOPE  C216 1234   0.926   6.836  13.827  0.3339  0.3078  1.1728
   10DOPE  H16R 1235   0.900   6.944  13.829 -0.8170  0.0395  1.6298
   10DOPE  H16S 1236   0.846   6.768  13.791  2.9178 -2.1128 -0.3608
   10DOPE  C217 1237   1.030   6.818  13.714 -0.5403  0.0128  0.3906
   10DOPE  H17R 1238   1.037   6.712  13.681  0.7935  0.5493 -1.2207
   10DOPE  H17S 1239   1.129   6.854  13.749 -0.4410  0.9563 -0.7887
   10DOPE  C218 1240   0.996   6.895  13.586  0.6226  0.0546 -0.5864
   10DOPE  H18R 1241   0.975   7.002  13.606 -0.0993  0.0247 -1.1287
   10DOPE  H18S 1242   0.907   6.847  13.538  0.5045 -0.0523 -0.2629
   10DOPE  H18T 1243   1.078   6.890  13.511  0.0471 -1.0991 -1.1658
   10DOPE   C33 1244   0.638   6.265  15.146  0.1517  0.4600  0.2271
   10DOPE   H3X 1245   0.548   6.311  15.192 -0.1031  1.1197 -0.9087
   10DOPE   H3Y 1246   0.636   6.159  15.180  0.1129  0.1230 -0.7811
   10DOPE   C34 1247   0.635   6.271  14.992  0.2363  0.2699  0.4127
   10DOPE   H4X 1248   0.627   6.379  14.967  1.4390  0.3031  0.1188
   10DOPE   H4Y 1249   0.722   6.233  14.935 -1.2757  0.2254 -1.9941
   10DOPE   C35 1250   0.507   6.213  14.934 -0.1564 -0.4306  0.2003
   10DOPE   H5X 1251   0.413   6.271  14.948  0.4772  1.2358 -1.8240
   10DOPE   H5Y 1252   0.481   6.116  14.980 -1.0989 -1.1158 -1.6399
   10DOPE   C36 1253   0.520   6.193  14.782  0.1226 -0.5510 -0.1663
   10DOPE   H6X 1254   0.456   6.110  14.743 -1.5903  0.4787  0.3446
   10DOPE   H6Y 1255   0.626   6.163  14.771  1.6672  3.6887  1.4799
   10DOPE   C37 1256   0.511   6.324  14.696 -0.6244 -0.4087 -1.4256
   10DOPE   H7X 1257   0.417   6.380  14.718 -0.9672 -1.3351 -0.4412
   10DOPE   H7Y 1258   0.589   6.399  14.719 -0.4404 -1.2534  0.9892
   10DOPE   C38 1259   0.493   6.302  14.544 -0.0004  0.1456  0.3331
   10DOPE   H8X 1260   0.455   6.391  14.490 -0.3270  0.0912  0.4677
   10DOPE   H8Y 1261   0.411   6.229  14.525 -0.7971  0.9978  0.4342
   10DOPE   C39 1262   0.607   6.234  14.477  0.1987 -0.5210  0.1226
   10DOPE   H9X 1263   0.611   6.126  14.498  0.1317 -0.2957  1.3656
   10DOPE  C310 1264   0.688   6.283  14.384 -0.2293  0.0007 -0.0789
   10DOPE  H10X 1265   0.765   6.211  14.354  2.5144  2.5580  0.3449
   10DOPE  C311 1266   0.709   6.422  14.320 -0.0842 -0.1468  0.0800
   10DOPE  H11X 1267   0.675   6.503  14.389 -1.6862  0.8491 -1.7850
   10DOPE  H11Y 1268   0.817   6.432  14.300 -0.5863 -0.3175 -3.1909
   10DOPE  C312 1269   0.643   6.462  14.182  0.2461 -0.5582  0.3341
   10DOPE  H12X 1270   0.672   6.388  14.103 -0.1566 -0.4159  0.0523
   10DOPE  H12Y 1271   0.690   6.557  14.148  0.3588 -0.7937 -0.1791
   10DOPE  C313 1272   0.492   6.485  14.177 -0.3642  0.3222  0.3033
   10DOPE  H13X 1273   0.431   6.408  14.228  1.3617 -0.1905  1.6733
   10DOPE  H13Y 1274   0.467   6.583  14.224 -1.8827  0.1359 -0.0717
   10DOPE  C314 1275   0.443   6.501  14.032 -0.0587 -0.0493 -0.5304
   10DOPE  H14X 1276   0.524   6.537  13.964 -0.2521 -2.0928 -1.9530
   10DOPE  H14Y 1277   0.357   6.570  14.023 -0.1146 -0.2636 -1.8904
   10DOPE  C315 1278   0.379   6.374  13.976  0.1337  0.5312  0.5362
   10DOPE  H15X 1279   0.302   6.350  14.053 -0.7072 -0.8691 -0.6943
   10DOPE  H15Y 1280   0.441   6.283  13.964 -1.0453  0.0303 -2.4057
   10DOPE  C316 1281   0.293   6.399  13.854 -0.1371 -0.4517  0.4936
   10DOPE  H16X 1282   0.351   6.427  13.763  1.9062 -1.8141  1.3060
   10DOPE  H16Y 1283   0.223   6.477  13.889 -1.4078 -0.6884 -1.3717
   10DOPE  C317 1284   0.203   6.274  13.802 -0.8362 -0.2682 -0.1676
   10DOPE  H17X 1285   0.158   6.246  13.899 -0.6120 -0.1052 -0.0150
   10DOPE  H17Y 1286   0.129   6.316  13.730  2.3730  2.0638 -2.4007
   10DOPE  C318 1287   0.281   6.155  13.749 -0.0019  0.3240  0.3474
   10DOPE  H18X 1288   0.221   6.062  13.754  0.8851 -0.2594  0.3818
   10DOPE  H18Y 1289   0.306   6.172  13.642 -2.1778 -1.4217 -0.5083
   10DOPE  H18Z 1290   0.375   6.140  13.806  0.4378 -1.3061 -0.7519
   11DOPE     N 1291   0.053   3.759  15.874  0.6328  0.1485  0.1034
   11DOPE   HN1 1292   0.126   3.819  15.919 -0.6942  3.9130 -2.3450
   11DOPE   HN2 1293  -0.035   3.813  15.880 -0.4010 -1.2346 -1.8182
   11DOPE   HN3 1294   0.037   3.667  15.921  0.2649  1.0019  1.7445
   11DOPE   C12 1295   0.094   3.746  15.729  0.3093 -0.0894 -0.2776
   11DOPE  H12A 1296   0.148   3.650  15.717 -0.8120 -0.6455 -0.9808
   11DOPE  H12B 1297   0.157   3.833  15.701 -0.7158  0.3084 -1.3867
   11DOPE   C11 1298  -0.019   3.756  15.640  0.1295 -0.2398  0.1598
   11DOPE  H11A 1299  -0.094   3.677  15.661  2.0457 -1.9718  0.8462
   11DOPE  H11B 1300   0.025   3.723  15.543  1.5429 -2.5981  1.5068
   11DOPE     P 1301  -0.198   3.925  15.726  0.1862  0.3234 -0.3323
   11DOPE   O13 1302  -0.254   4.058  15.694  0.3790  0.2403  0.0668
   11DOPE   O14 1303  -0.171   3.905  15.869 -0.6196  0.1453 -0.3255
   11DOPE   O11 1304  -0.306   3.813  15.692 -0.0928 -0.3753 -0.2425
   11DOPE   O12 1305  -0.076   3.888  15.631 -0.2019 -0.1678 -0.0855
   11DOPE    C1 1306  -0.397   3.849  15.585  0.4986  0.7635 -0.1728
   11DOPE    HA 1307  -0.429   3.757  15.531  0.4313  1.7750 -1.9460
   11DOPE    HB 1308  -0.362   3.921  15.507  0.8592 -0.0258 -0.7596
   11DOPE    C2 1309  -0.535   3.892  15.647  0.7432 -0.0735 -0.3881
   11DOPE    HS 1310  -0.516   3.948  15.741  0.0228  0.6744 -0.6705
   11DOPE   O21 1311  -0.626   3.781  15.663 -0.4719 -0.3035  0.2223
   11DOPE   C21 1312  -0.684   3.770  15.785 -0.0892  0.3100  0.2370
   11DOPE   O22 1313  -0.660   3.848  15.875 -0.1627 -0.1590 -0.1870
   11DOPE   C22 1314  -0.776   3.650  15.775 -0.5384  0.5649 -0.3685
   11DOPE   H2R 1315  -0.759   3.603  15.875 -1.8851 -0.5080 -0.6096
   11DOPE   H2S 1316  -0.731   3.574  15.708  0.2015  0.8335 -0.1870
   11DOPE    C3 1317  -0.616   3.991  15.556 -0.7218  0.5883 -0.3229
   11DOPE    HX 1318  -0.569   4.089  15.577 -2.6973  1.1108  2.1652
   11DOPE    HY 1319  -0.718   4.006  15.597  0.8496  2.4594  3.3107
   11DOPE   O31 1320  -0.610   3.947  15.422 -0.2004  0.4840 -0.3450
   11DOPE   C31 1321  -0.697   3.992  15.339 -0.1181  0.2629 -0.0811
   11DOPE   O32 1322  -0.773   4.081  15.366 -0.2702 -0.2422  0.0389
   11DOPE   C32 1323  -0.682   3.931  15.193  0.0086 -0.1695 -0.5171
   11DOPE   H2X 1324  -0.573   3.933  15.173  0.1760  1.3374  0.3261
   11DOPE   H2Y 1325  -0.722   3.828  15.188 -0.4717 -0.1795  2.0173
   11DOPE   C23 1326  -0.915   3.700  15.736  0.5197 -0.0195 -0.0775
   11DOPE   H3R 1327  -0.967   3.762  15.812 -0.6122 -1.3940  0.3117
   11DOPE   H3S 1328  -0.978   3.610  15.724  2.1035 -1.6444  2.6838
   11DOPE   C24 1329  -0.921   3.773  15.597 -0.1728 -0.3442 -0.2165
   11DOPE   H4R 1330  -0.829   3.753  15.538 -0.1907 -0.1813 -0.2980
   11DOPE   H4S 1331  -0.922   3.882  15.617  0.1440  0.1022 -2.3218
   11DOPE   C25 1332  -1.048   3.739  15.516 -0.1925  0.5660  1.8033
   11DOPE   H5R 1333  -1.136   3.767  15.579 -2.0662 -0.1884 -0.3649
   11DOPE   H5S 1334  -1.052   3.630  15.492  1.6291  0.9930 -0.6963
   11DOPE   C26 1335  -1.069   3.823  15.383  0.1210 -0.5759  0.8834
   11DOPE   H6R 1336  -1.058   3.932  15.402 -0.7215 -0.1377 -0.8610
   11DOPE   H6S 1337  -1.173   3.806  15.347  0.7722  0.1354 -1.5459
   11DOPE   C27 1338  -0.980   3.773  15.266 -0.6088  0.2634 -0.5043
   11DOPE   H7R 1339  -0.884   3.734  15.307 -1.4751 -1.2626  0.2046
   11DOPE   H7S 1340  -0.964   3.864  15.206 -1.6093  0.3245 -0.7031
   11DOPE   C28 1341  -1.048   3.662  15.179 -0.4559 -0.0406 -0.5088
   11DOPE   H8R 1342  -1.151   3.697  15.160 -0.9295 -0.2080  1.5373
   11DOPE   H8S 1343  -1.063   3.574  15.245  0.4681 -0.2480 -0.5637
   11DOPE   C29 1344  -0.972   3.616  15.062  0.1620 -0.7208 -0.1353
   11DOPE   H9R 1345  -0.865   3.589  15.072  0.2318 -1.6159 -2.7452
   11DOPE  C210 1346  -1.000   3.612  14.934 -0.0533  0.3883  0.4547
   11DOPE  H10R 1347  -0.922   3.564  14.874 -0.3011  0.9702 -0.3491
   11DOPE  C211 1348  -1.129   3.655  14.868  0.7317  0.9328 -0.5086
   11DOPE  H11R 1349  -1.139   3.762  14.841  1.2252  1.7225  2.1691
   11DOPE  H11S 1350  -1.209   3.642  14.944  0.4776  0.4202 -0.8536
   11DOPE  C212 1351  -1.162   3.567  14.748  0.1063  0.5043 -0.1745
   11DOPE  H12R 1352  -1.265   3.584  14.710  1.0042 -0.2777 -3.2405
   11DOPE  H12S 1353  -1.154   3.462  14.785 -0.6480  0.0193 -1.3425
   11DOPE  C213 1354  -1.083   3.590  14.618  0.4761 -0.0481 -0.3888
   11DOPE  H13R 1355  -0.975   3.569  14.631  0.3038 -0.8883 -0.2479
   11DOPE  H13S 1356  -1.112   3.688  14.575 -0.9995  0.2248  1.0829
   11DOPE  C214 1357  -1.136   3.488  14.521  0.2311 -0.2413  0.2931
   11DOPE  H14R 1358  -1.244   3.508  14.501 -0.9594 -0.5118  5.1444
   11DOPE  H14S 1359  -1.116   3.385  14.557 -1.0866 -0.9125 -0.8030
   11DOPE  C215 1360  -1.067   3.492  14.379 -0.2686  0.1800  0.2503
   11DOPE  H15R 1361  -0.957   3.492  14.398 -0.3879 -1.9922  1.2737
   11DOPE  H15S 1362  -1.083   3.592  14.332 -0.1326  0.5851  1.0507
   11DOPE  C216 1363  -1.114   3.388  14.276  0.2681 -0.1004  0.2185
   11DOPE  H16R 1364  -1.219   3.393  14.242  0.8500 -0.8957 -1.8829
   11DOPE  H16S 1365  -1.108   3.285  14.315 -0.4987 -1.0125 -1.9482
   11DOPE  C217 1366  -1.021   3.379  14.153  1.2000  0.2502  1.0447
   11DOPE  H17R 1367  -0.924   3.332  14.179  1.9671  1.0757 -0.2428
   11DOPE  H17S 1368  -1.001   3.486  14.132  2.6184 -0.4405 -1.4826
   11DOPE  C218 1369  -1.081   3.310  14.027 -0.2265 -0.7864  0.4181
   11DOPE  H18R 1370  -1.017   3.317  13.937  0.4695 -1.3595  0.8622
   11DOPE  H18S 1371  -1.179   3.360  14.010  0.2428  0.3460  0.8882
   11DOPE  H18T 1372  -1.101   3.201  14.034 -0.4844 -0.9259 -1.7562
   11DOPE   C33 1373  -0.754   4.030  15.089 -0.2146 -0.3112 -0.8899
   11DOPE   H3X 1374  -0.707   4.131  15.091 -0.7132 -0.0761 -0.6108
   11DOPE   H3Y 1375  -0.862   4.041  15.114 -0.4706 -1.5670 -1.3766
   11DOPE   C34 1376  -0.750   3.964  14.946 -0.3305  0.5723  0.4557
   11DOPE   H4X 1377  -0.647   3.975  14.905 -0.6365  0.5482 -0.3447
   11DOPE   H4Y 1378  -0.772   3.856  14.950  1.5865  0.1548  0.9000
   11DOPE   C35 1379  -0.837   4.040  14.843 -1.0182  0.2376  0.2478
   11DOPE   H5X 1380  -0.819   4.150  14.846  1.5935 -0.1589  1.0654
   11DOPE   H5Y 1381  -0.946   4.018  14.852 -1.2384  1.7261  2.0969
   11DOPE   C36 1382  -0.813   3.983  14.699 -0.2983  0.5862  0.1518
   11DOPE   H6X 1383  -0.836   3.875  14.706 -0.9039  0.7518  0.7933
   11DOPE   H6Y 1384  -0.705   3.984  14.671 -0.5835  1.7638 -1.0446
   11DOPE   C37 1385  -0.900   4.054  14.590  0.3571  0.3135  0.0304
   11DOPE   H7X 1386  -1.000   4.073  14.636  0.8875  1.0973  0.9209
   11DOPE   H7Y 1387  -0.860   4.158  14.584  1.2031  0.1992  2.4006
   11DOPE   C38 1388  -0.927   3.976  14.458 -0.4674  0.0424  0.9246
   11DOPE   H8X 1389  -1.014   4.017  14.402  0.7420 -2.5276 -3.2706
   11DOPE   H8Y 1390  -0.961   3.873  14.483 -1.2657 -0.0263 -0.3337
   11DOPE   C39 1391  -0.809   3.970  14.362  0.2141 -0.3490  0.4195
   11DOPE   H9X 1392  -0.807   4.058  14.296 -1.2139  0.1221  0.9611
   11DOPE  C310 1393  -0.720   3.872  14.344 -0.3525 -0.0503 -0.3291
   11DOPE  H10X 1394  -0.645   3.894  14.266 -0.4779  1.1936 -0.1252
   11DOPE  C311 1395  -0.717   3.742  14.416  0.6327 -0.1417  0.1905
   11DOPE  H11X 1396  -0.766   3.754  14.516  1.6859  3.5313  0.4200
   11DOPE  H11Y 1397  -0.775   3.659  14.371 -0.0715  0.0539  0.7162
   11DOPE  C312 1398  -0.572   3.697  14.450 -0.3280  0.0875  0.1068
   11DOPE  H12X 1399  -0.518   3.780  14.500 -0.1151 -0.2389  0.4224
   11DOPE  H12Y 1400  -0.514   3.692  14.355  0.9255  1.6401  0.7355
   11DOPE  C313 1401  -0.560   3.573  14.529 -0.1379  0.3522 -0.5881
   11DOPE  H13X 1402  -0.623   3.491  14.488 -0.0253 -0.5567  0.9530
   11DOPE  H13Y 1403  -0.454   3.539  14.523  0.0469  0.9849 -0.9896
   11DOPE  C314 1404  -0.599   3.596  14.678  0.3278 -0.3367  0.6881
   11DOPE  H14X 1405  -0.709   3.604  14.683  0.3081 -0.6992  0.8270
   11DOPE  H14Y 1406  -0.557   3.691  14.718  1.2071 -0.2131 -0.4616
   11DOPE  C315 1407  -0.555   3.485  14.768 -0.8620 -0.1011 -0.4959
   11DOPE  H15X 1408  -0.447   3.465  14.750 -0.3129  2.4812 -0.5062
   11DOPE  H15Y 1409  -0.596   3.385  14.747 -2.2537  0.2047  0.6225
   11DOPE  C316 1410  -0.571   3.519  14.919 -0.0067 -0.0489  0.3048
   11DOPE  H16X 1411  -0.531   3.427  14.966 -1.3865 -2.3797 -2.7701
   11DOPE  H16Y 1412  -0.678   3.538  14.944  0.4013  1.8789  0.7295
   11DOPE  C317 1413  -0.488   3.631  14.971  0.0464 -0.5783  0.0249
   11DOPE  H17X 1414  -0.379   3.614  14.961  0.1632  0.0111  0.2914
   11DOPE  H17Y 1415  -0.514   3.724  14.916 -0.6903 -2.0080 -2.1628
   11DOPE  C318 1416  -0.508   3.635  15.122 -0.5321 -0.0052 -0.1118
   11DOPE  H18X 1417  -0.442   3.706  15.177 -1.2929  1.0033 -0.4705
   11DOPE  H18Y 1418  -0.610   3.662  15.156  0.4003 -0.1012  3.1959
   11DOPE  H18Z 1419  -0.470   3.539  15.162  0.6716  0.8823  0.9933
   12DOPE     N 1420   2.025   6.418  15.780 -0.0809 -0.0980 -0.0201
   12DOPE   HN1 1421   1.966   6.370  15.709 -0.4845 -2.1173  1.5688
   12DOPE   HN2 1422   2.079   6.345  15.830 -1.6507  0.2599  2.3997
   12DOPE   HN3 1423   1.955   6.464  15.843 -1.0275  0.0912 -1.1693
   12DOPE   C12 1424   2.123   6.517  15.717 -0.6440  0.1056 -0.5871
   12DOPE  H12A 1425   2.201   6.457  15.666  0.9396  1.6553 -0.1095
   12DOPE  H12B 1426   2.176   6.564  15.802 -2.0691 -0.2217  0.5188
   12DOPE   C11 1427   2.044   6.611  15.629  0.1408 -0.0924  0.6735
   12DOPE  H11A 1428   1.998   6.552  15.548 -1.2004 -0.9659  2.0197
   12DOPE  H11B 1429   2.112   6.679  15.573  0.8521 -1.0094  0.4057
   12DOPE     P 1430   1.961   6.794  15.790 -0.4718  0.0557  0.1732
   12DOPE   O13 1431   2.091   6.777  15.862  0.1164 -0.4086 -0.2951
   12DOPE   O14 1432   1.838   6.819  15.859 -0.1970 -0.8323 -0.0691
   12DOPE   O11 1433   1.984   6.918  15.697  0.3454  0.0047 -0.1472
   12DOPE   O12 1434   1.938   6.682  15.691 -1.0837 -0.5311 -0.1835
   12DOPE    C1 1435   1.880   6.956  15.613 -0.2981 -0.2894  0.7377
   12DOPE    HA 1436   1.874   7.065  15.634  0.6280 -0.4862  2.1795
   12DOPE    HB 1437   1.778   6.922  15.639  0.0350 -1.5431  0.4563
   12DOPE    C2 1438   1.908   6.936  15.465  0.1911 -0.0713 -0.2020
   12DOPE    HS 1439   1.927   6.828  15.449 -1.5714 -0.5494  0.6813
   12DOPE   O21 1440   2.016   7.023  15.428  0.1427 -0.0419  0.3214
   12DOPE   C21 1441   2.087   6.980  15.319  0.5112  0.1877 -0.3486
   12DOPE   O22 1442   2.069   6.870  15.268 -0.2101  0.5256 -0.3402
   12DOPE   C22 1443   2.193   7.089  15.270 -0.4811 -0.2758  0.0444
   12DOPE   H2R 1444   2.249   7.116  15.361  0.0722 -0.3921 -0.2571
   12DOPE   H2S 1445   2.146   7.180  15.225 -0.3313 -0.2264 -0.0151
   12DOPE    C3 1446   1.777   6.983  15.385  0.3203  0.1107  0.2802
   12DOPE    HX 1447   1.793   7.093  15.386  0.9282  0.0938 -1.8371
   12DOPE    HY 1448   1.683   6.962  15.441  0.2130  0.1868  0.1319
   12DOPE   O31 1449   1.762   6.945  15.243  0.4911  0.0435  0.0427
   12DOPE   C31 1450   1.748   6.811  15.233  0.2289  0.1838 -0.4000
   12DOPE   O32 1451   1.742   6.727  15.320  0.2107  0.0341 -0.0419
   12DOPE   C32 1452   1.720   6.785  15.085  0.0457  0.0108 -0.4227
   12DOPE   H2X 1453   1.741   6.678  15.063  1.0478 -0.2966  1.7586
   12DOPE   H2Y 1454   1.615   6.807  15.058 -0.9509 -1.4252  2.0161
   12DOPE   C23 1455   2.301   7.035  15.177  0.1222 -0.3930  0.4681
   12DOPE   H3R 1456   2.344   6.944  15.225  0.6083  0.1558  1.0819
   12DOPE   H3S 1457   2.381   7.112  15.171  2.2071 -2.5157 -0.7199
   12DOPE   C24 1458   2.240   7.010  15.042 -0.3057  0.2932  0.8266
   12DOPE   H4R 1459   2.188   7.104  15.011 -1.7872  0.0877  2.5013
   12DOPE   H4S 1460   2.166   6.927  15.040  0.8976 -0.8359  1.8104
   12DOPE   C25 1461   2.340   6.980  14.929  0.6238 -0.2308 -0.4365
   12DOPE   H5R 1462   2.381   6.878  14.943 -1.1101 -0.9025  0.0099
   12DOPE   H5S 1463   2.430   7.044  14.939  0.8056 -0.3762 -1.0733
   12DOPE   C26 1464   2.292   7.007  14.790  0.7253  0.2166  0.3698
   12DOPE   H6R 1465   2.374   6.989  14.718 -1.6721  0.7008 -2.7173
   12DOPE   H6S 1466   2.244   7.108  14.784 -1.7950 -0.9047  0.2004
   12DOPE   C27 1467   2.189   6.898  14.755 -0.4516  0.0401  0.2438
   12DOPE   H7R 1468   2.097   6.921  14.813  0.3176  1.2161  1.0433
   12DOPE   H7S 1469   2.228   6.798  14.781 -0.9375  0.1280  1.3962
   12DOPE   C28 1470   2.162   6.893  14.606 -0.1672  0.0608  0.1625
   12DOPE   H8R 1471   2.088   6.812  14.588  0.1975  0.3179 -2.9779
   12DOPE   H8S 1472   2.261   6.862  14.567  0.3012  0.1742  1.2311
   12DOPE   C29 1473   2.124   7.025  14.541  0.6477  0.3344  0.0485
   12DOPE   H9R 1474   2.033   7.065  14.589  0.2265  1.4939 -1.6574
   12DOPE  C210 1475   2.200   7.100  14.453 -0.1968 -0.4578  0.1236
   12DOPE  H10R 1476   2.177   7.206  14.435 -1.4515 -0.8990 -1.0480
   12DOPE  C211 1477   2.317   7.050  14.372  0.2768  0.4086 -0.0545
   12DOPE  H11R 1478   2.373   6.980  14.438  1.9041  0.4345 -1.3512
   12DOPE  H11S 1479   2.383   7.134  14.342  0.8138 -0.5027 -1.4786
   12DOPE  C212 1480   2.279   6.972  14.247 -0.0209  0.2478  0.3241
   12DOPE  H12R 1481   2.221   6.878  14.260  0.7997 -0.7433 -2.5761
   12DOPE  H12S 1482   2.376   6.943  14.202 -0.2914 -1.0172  0.5166
   12DOPE  C213 1483   2.222   7.064  14.141 -0.2267 -0.1431 -0.3276
   12DOPE  H13R 1484   2.292   7.146  14.117 -2.1124  0.3597 -5.5836
   12DOPE  H13S 1485   2.135   7.114  14.188  1.3429  1.0931  1.3931
   12DOPE  C214 1486   2.182   7.006  14.006 -0.4646 -0.0604 -0.3712
   12DOPE  H14R 1487   2.112   6.920  14.016 -0.7478 -0.0027 -1.6702
   12DOPE  H14S 1488   2.259   6.952  13.946 -1.6865 -1.6851 -0.5330
   12DOPE  C215 1489   2.114   7.104  13.914 -0.2167  0.3061  0.3706
   12DOPE  H15R 1490   2.193   7.179  13.891  0.6957 -0.5956  0.4726
   12DOPE  H15S 1491   2.028   7.162  13.954 -0.0336  0.8679 -0.0372
   12DOPE  C216 1492   2.074   7.046  13.776  0.2757  0.3598 -0.8285
   12DOPE  H16R 1493   1.966   7.069  13.761 -0.0344  0.1685  0.8875
   12DOPE  H16S 1494   2.090   6.936  13.777 -0.2559  0.2766 -1.1111
   12DOPE  C217 1495   2.153   7.103  13.660  0.6237 -0.2955 -0.5557
   12DOPE  H17R 1496   2.260   7.074  13.662  0.6355 -0.5644 -2.6547
   12DOPE  H17S 1497   2.155   7.214  13.668 -3.1503 -0.0328 -1.5290
   12DOPE  C218 1498   2.097   7.078  13.523 -0.5047 -0.2639 -0.0648
   12DOPE  H18R 1499   2.154   7.135  13.446 -4.2926  0.4794 -2.6144
   12DOPE  H18S 1500   1.993   7.116  13.518 -0.9338 -1.6043 -2.4201
   12DOPE  H18T 1501   2.093   6.972  13.491 -4.3328 -0.5916  1.0236
   12DOPE   C33 1502   1.815   6.873  14.998 -0.6236 -0.2925  0.3763
   12DOPE   H3X 1503   1.921   6.846  15.018 -0.2543 -0.5101 -1.7370
   12DOPE   H3Y 1504   1.801   6.982  15.013 -0.3079 -0.0568 -0.9766
   12DOPE   C34 1505   1.791   6.847  14.846 -0.2256 -0.6749 -0.5040
   12DOPE   H4X 1506   1.868   6.903  14.790 -0.7224  0.3358 -0.1921
   12DOPE   H4Y 1507   1.809   6.737  14.842 -0.1110 -0.7766  1.5680
   12DOPE   C35 1508   1.650   6.879  14.787 -0.4561 -0.4317  0.6468
   12DOPE   H5X 1509   1.631   6.987  14.772  1.6544  0.1853  2.1044
   12DOPE   H5Y 1510   1.576   6.833  14.856  0.9936 -2.3202  1.0276
   12DOPE   C36 1511   1.637   6.805  14.650 -0.0059 -0.0708  0.2653
   12DOPE   H6X 1512   1.536   6.816  14.604  1.0144 -1.5595 -2.5714
   12DOPE   H6Y 1513   1.643   6.696  14.665 -0.7951 -0.2759 -0.7527
   12DOPE   C37 1514   1.735   6.843  14.548  0.1463  0.2762  0.1838
   12DOPE   H7X 1515   1.725   6.953  14.535 -0.6891  0.5918  2.9436
   12DOPE   H7Y 1516   1.831   6.822  14.600 -1.3774 -0.0717  3.0728
   12DOPE   C38 1517   1.716   6.780  14.412  0.0318  0.1671 -0.0616
   12DOPE   H8X 1518   1.628   6.828  14.364 -0.7788 -2.3596 -1.2956
   12DOPE   H8Y 1519   1.688   6.674  14.431 -1.0310  0.1933 -1.3543
   12DOPE   C39 1520   1.836   6.788  14.321  0.1035 -0.3776  0.4773
   12DOPE   H9X 1521   1.919   6.849  14.361 -0.7858  1.1290  0.1183
   12DOPE  C310 1522   1.840   6.755  14.193 -0.2598  0.5357  0.3809
   12DOPE  H10X 1523   1.935   6.772  14.140 -0.8974 -3.5772 -2.6213
   12DOPE  C311 1524   1.740   6.683  14.106  0.0565  0.1187 -0.2242
   12DOPE  H11X 1525   1.789   6.600  14.050 -1.4625 -1.9272  1.3300
   12DOPE  H11Y 1526   1.668   6.636  14.176  0.4803 -1.6480 -0.9125
   12DOPE  C312 1527   1.670   6.773  13.997  0.0256  0.3140  0.5328
   12DOPE  H12X 1528   1.649   6.875  14.036  0.5388  1.1764 -1.3061
   12DOPE  H12Y 1529   1.577   6.724  13.960  0.6953 -1.3082  0.9422
   12DOPE  C313 1530   1.761   6.796  13.871  0.4625 -0.0814  0.7560
   12DOPE  H13X 1531   1.862   6.831  13.901 -0.7000  2.3171  2.2044
   12DOPE  H13Y 1532   1.770   6.695  13.825  2.0865  0.3041  0.1424
   12DOPE  C314 1533   1.706   6.884  13.761 -0.1892  0.1149  0.2139
   12DOPE  H14X 1534   1.735   6.988  13.787 -0.5361  0.2755 -0.0372
   12DOPE  H14Y 1535   1.595   6.882  13.767 -0.2265 -2.3089 -0.0488
   12DOPE  C315 1536   1.763   6.858  13.615  0.3793  0.4107 -0.0974
   12DOPE  H15X 1537   1.748   6.751  13.587 -0.9354  0.1024  1.5595
   12DOPE  H15Y 1538   1.869   6.890  13.608  0.5097  0.0897  0.2961
   12DOPE  C316 1539   1.683   6.938  13.501 -0.1437  0.7621 -0.9936
   12DOPE  H16X 1540   1.664   7.038  13.544 -2.7393  0.8478 -2.1581
   12DOPE  H16Y 1541   1.582   6.892  13.500 -0.0392  0.4873  0.2333
   12DOPE  C317 1542   1.752   6.941  13.371 -0.1182 -0.0343  0.1657
   12DOPE  H17X 1543   1.851   6.991  13.383  0.9768 -2.3760  1.6514
   12DOPE  H17Y 1544   1.789   6.841  13.339  1.8210  1.1433 -1.5349
   12DOPE  C318 1545   1.673   7.022  13.261 -0.0688  0.6563 -0.3437
   12DOPE  H18X 1546   1.727   7.009  13.164  2.8235  5.1028  0.3793
   12DOPE  H18Y 1547   1.571   6.979  13.247 -0.8364  2.0198  0.8369
   12DOPE  H18Z 1548   1.661   7.128  13.291 -0.5379  0.2663  0.9163
   13DOPE     N 1549   0.497   2.891  16.237  0.6006  0.0829  0.0436
   13DOPE   HN1 1550   0.430   2.811  16.246  0.7761  0.0768  1.5505
   13DOPE   HN2 1551   0.442   2.944  16.166 -0.5728 -0.7061  0.3237
   13DOPE   HN3 1552   0.586   2.854  16.199  0.0633 -0.9214 -0.2922
   13DOPE   C12 1553   0.528   2.966  16.368 -0.3255 -0.2285 -0.2865
   13DOPE  H12A 1554   0.435   2.998  16.419  0.9097  2.1891  0.6420
   13DOPE  H12B 1555   0.589   3.057  16.348  0.9593 -1.0514 -0.1973
   13DOPE   C11 1556   0.603   2.879  16.465  0.2231  0.0116  0.5332
   13DOPE  H11A 1557   0.553   2.780  16.464  1.8826 -0.8514 -0.5092
   13DOPE  H11B 1558   0.589   2.926  16.564  2.1832 -0.0640  0.8818
   13DOPE     P 1559   0.835   2.794  16.533 -0.4469  0.5048 -0.2221
   13DOPE   O13 1560   0.761   2.718  16.637 -0.1506 -0.0398 -0.5191
   13DOPE   O14 1561   0.930   2.898  16.576  0.5451 -0.2824 -1.0352
   13DOPE   O11 1562   0.912   2.689  16.440  0.6677 -0.6072 -0.8928
   13DOPE   O12 1563   0.743   2.869  16.427 -0.0669  0.5065 -0.4766
   13DOPE    C1 1564   0.881   2.651  16.305  0.1802  0.1840  0.1866
   13DOPE    HA 1565   0.771   2.640  16.297  0.1848  0.5845 -0.4693
   13DOPE    HB 1566   0.931   2.557  16.274  0.5311 -0.1152  1.5933
   13DOPE    C2 1567   0.942   2.758  16.210  0.3060 -0.2658  0.4052
   13DOPE    HS 1568   0.901   2.858  16.236  2.2835  0.7076 -0.0072
   13DOPE   O21 1569   0.909   2.721  16.075  0.0464 -0.1804 -0.4931
   13DOPE   C21 1570   0.782   2.745  16.036  0.4587 -0.7838 -0.5147
   13DOPE   O22 1571   0.700   2.815  16.095  0.4725 -0.2056  0.3745
   13DOPE   C22 1572   0.755   2.668  15.908  0.6177 -0.3447  0.1088
   13DOPE   H2R 1573   0.665   2.702  15.852  0.1697 -3.5203 -1.3112
   13DOPE   H2S 1574   0.736   2.563  15.940  1.4570 -0.3786  0.5345
   13DOPE    C3 1575   1.094   2.784  16.228 -0.5283 -0.2964  0.0003
   13DOPE    HX 1576   1.161   2.696  16.234  0.0682  0.2384  1.8130
   13DOPE    HY 1577   1.112   2.820  16.331  0.0501 -0.0546 -0.1766
   13DOPE   O31 1578   1.144   2.888  16.140  0.1629  0.1417  0.2742
   13DOPE   C31 1579   1.233   2.840  16.053 -0.0400 -0.0406  0.7664
   13DOPE   O32 1580   1.294   2.736  16.063 -0.0825  0.4704 -0.1153
   13DOPE   C32 1581   1.239   2.929  15.930  0.7689 -1.1427  0.2125
   13DOPE   H2X 1582   1.189   3.026  15.954 -0.5896 -1.7086 -0.2767
   13DOPE   H2Y 1583   1.346   2.953  15.909 -0.1616  0.8839 -2.8771
   13DOPE   C23 1584   0.866   2.654  15.804  0.0170  0.3125 -0.4561
   13DOPE   H3R 1585   0.957   2.614  15.854  0.4631  2.2166  0.3515
   13DOPE   H3S 1586   0.905   2.753  15.772  1.8111 -0.5157 -0.9548
   13DOPE   C24 1587   0.816   2.581  15.683 -0.1465  1.2084  0.2216
   13DOPE   H4R 1588   0.738   2.512  15.722  0.3175 -0.8344 -2.2430
   13DOPE   H4S 1589   0.896   2.517  15.641 -1.3442 -0.6419  0.6504
   13DOPE   C25 1590   0.770   2.681  15.581  0.5802  0.0959 -0.3539
   13DOPE   H5R 1591   0.865   2.735  15.560  0.6881  2.2747  4.4118
   13DOPE   H5S 1592   0.692   2.750  15.620  1.2620  0.0410  1.1409
   13DOPE   C26 1593   0.704   2.609  15.458  0.0954 -0.2986  0.6171
   13DOPE   H6R 1594   0.595   2.629  15.451  0.6774  3.0470 -0.8654
   13DOPE   H6S 1595   0.736   2.503  15.467 -1.0409 -0.5596  2.0034
   13DOPE   C27 1596   0.774   2.654  15.325  0.8391 -0.3929  0.1853
   13DOPE   H7R 1597   0.882   2.632  15.343  1.3163  0.6394 -1.2185
   13DOPE   H7S 1598   0.784   2.764  15.314  3.1111 -0.7086 -1.7425
   13DOPE   C28 1599   0.726   2.578  15.206 -0.1384  0.1009 -0.8183
   13DOPE   H8R 1600   0.738   2.469  15.223 -0.4138 -0.1412 -2.1258
   13DOPE   H8S 1601   0.806   2.600  15.133 -0.4830  2.2920 -0.6016
   13DOPE   C29 1602   0.591   2.615  15.156 -0.2379 -0.4133 -0.2131
   13DOPE   H9R 1603   0.508   2.601  15.226  0.2010 -0.3517  0.3288
   13DOPE  C210 1604   0.553   2.634  15.030  0.9448 -0.2066 -1.0602
   13DOPE  H10R 1605   0.448   2.667  15.019  0.8630 -0.3112 -0.6217
   13DOPE  C211 1606   0.637   2.666  14.910  0.2499  0.0117 -0.2297
   13DOPE  H11R 1607   0.654   2.584  14.837 -0.1283 -1.4006  1.2072
   13DOPE  H11S 1608   0.735   2.700  14.950  0.3477  0.1945 -0.6251
   13DOPE  C212 1609   0.564   2.783  14.835 -0.1218 -0.2951  0.0372
   13DOPE  H12R 1610   0.584   2.878  14.889  0.7015 -0.3984 -0.0610
   13DOPE  H12S 1611   0.457   2.756  14.829  0.1891 -1.2667 -2.3812
   13DOPE  C213 1612   0.615   2.806  14.694 -1.0957  0.5235  0.5428
   13DOPE  H13R 1613   0.576   2.730  14.623 -1.1467 -0.3220  1.4595
   13DOPE  H13S 1614   0.725   2.795  14.688 -0.8827  2.9062 -1.6870
   13DOPE  C214 1615   0.587   2.953  14.643 -0.1609 -0.2358 -0.2083
   13DOPE  H14R 1616   0.638   3.013  14.721  0.5251 -2.2797  0.9997
   13DOPE  H14S 1617   0.479   2.975  14.632 -0.2961 -1.1343 -0.7824
   13DOPE  C215 1618   0.650   2.984  14.508  0.2479 -0.2893  0.2960
   13DOPE  H15R 1619   0.758   2.962  14.504  0.5298  0.6628  1.8746
   13DOPE  H15S 1620   0.631   3.092  14.490 -1.1750 -0.0450  2.8122
   13DOPE  C216 1621   0.599   2.898  14.395 -0.5818  0.3981 -0.1892
   13DOPE  H16R 1622   0.488   2.901  14.394 -0.6795  0.0819  2.1348
   13DOPE  H16S 1623   0.631   2.794  14.418 -1.0853  0.3803  0.4685
   13DOPE  C217 1624   0.657   2.948  14.256  0.5069 -0.0715 -0.4313
   13DOPE  H17R 1625   0.644   2.866  14.182 -0.5892  1.5447 -2.1146
   13DOPE  H17S 1626   0.764   2.979  14.259  0.9071 -1.4104  0.4183
   13DOPE  C218 1627   0.569   3.069  14.209  0.1584 -0.5729  0.1266
   13DOPE  H18R 1628   0.598   3.096  14.105 -2.0909  2.1052  0.0956
   13DOPE  H18S 1629   0.599   3.156  14.271  1.7398 -0.9167 -0.1205
   13DOPE  H18T 1630   0.461   3.051  14.228  0.0124  0.6045  0.4902
   13DOPE   C33 1631   1.178   2.866  15.808 -0.1697  0.1418  0.5955
   13DOPE   H3X 1632   1.154   2.954  15.745  3.0025 -1.0068 -2.5492
   13DOPE   H3Y 1633   1.080   2.815  15.823  0.1938 -0.6182  0.4686
   13DOPE   C34 1634   1.264   2.762  15.738  0.0068 -0.7189  1.3138
   13DOPE   H4X 1635   1.360   2.812  15.710 -1.2448  1.0056 -0.1477
   13DOPE   H4Y 1636   1.290   2.687  15.815  1.2715 -1.0886  0.5591
   13DOPE   C35 1637   1.207   2.703  15.611  0.1487 -0.5842  0.3436
   13DOPE   H5X 1638   1.114   2.645  15.625 -0.5349  0.4334  0.1465
   13DOPE   H5Y 1639   1.286   2.634  15.573 -0.9406 -1.1806 -0.9022
   13DOPE   C36 1640   1.191   2.812  15.506  0.0690 -0.2016 -0.4980
   13DOPE   H6X 1641   1.281   2.875  15.525  0.4661 -1.6123  3.3410
   13DOPE   H6Y 1642   1.103   2.877  15.522 -1.5422 -2.4071  0.2522
   13DOPE   C37 1643   1.189   2.766  15.355  0.4801  0.3387 -0.9616
   13DOPE   H7X 1644   1.274   2.705  15.317  0.2757 -1.9946  1.9381
   13DOPE   H7Y 1645   1.104   2.695  15.359  1.4076 -0.7884 -0.6605
   13DOPE   C38 1646   1.164   2.880  15.246 -0.2615  0.1548 -0.3985
   13DOPE   H8X 1647   1.177   2.836  15.145  3.2792  2.1646 -0.9766
   13DOPE   H8Y 1648   1.249   2.951  15.248 -0.3558  0.3814 -2.2761
   13DOPE   C39 1649   1.040   2.968  15.269 -0.3072  0.4834 -0.6936
   13DOPE   H9X 1650   1.044   3.031  15.359 -0.5987 -0.9295  0.3374
   13DOPE  C310 1651   0.939   2.978  15.186 -0.6385 -0.5677  0.0564
   13DOPE  H10X 1652   0.862   3.053  15.211  1.8675  2.8421 -1.5927
   13DOPE  C311 1653   0.912   2.909  15.057  0.0486  0.2916  0.6765
   13DOPE  H11X 1654   0.930   2.799  15.055 -0.6416  0.1262  2.1142
   13DOPE  H11Y 1655   0.806   2.916  15.024  0.4535  2.9662 -0.2485
   13DOPE  C312 1656   0.972   2.971  14.931 -0.4004  0.0499  0.2412
   13DOPE  H12X 1657   0.988   2.912  14.839 -1.5275  1.0016 -0.5993
   13DOPE  H12Y 1658   1.076   3.000  14.959 -0.0975 -0.2407 -0.5673
   13DOPE  C313 1659   0.904   3.106  14.883 -0.3130 -0.4017  0.2365
   13DOPE  H13X 1660   0.799   3.080  14.856 -0.2759 -0.0639 -0.2588
   13DOPE  H13Y 1661   0.893   3.174  14.970 -0.1336  0.2592 -0.2476
   13DOPE  C314 1662   0.987   3.170  14.765 -0.3710 -0.1543  0.5844
   13DOPE  H14X 1663   1.098   3.170  14.777 -0.2080  0.0987 -0.7891
   13DOPE  H14Y 1664   0.962   3.279  14.766 -1.8320 -0.4801  1.1231
   13DOPE  C315 1665   0.953   3.108  14.629 -0.0880 -0.4104 -0.0793
   13DOPE  H15X 1666   0.851   3.144  14.606  0.3880  0.7307 -0.5077
   13DOPE  H15Y 1667   0.950   2.997  14.638 -0.8017 -0.3223  0.9543
   13DOPE  C316 1668   1.043   3.153  14.504 -0.2089  0.8133 -0.5084
   13DOPE  H16X 1669   1.150   3.125  14.518  0.5687  2.5002 -2.5267
   13DOPE  H16Y 1670   1.034   3.263  14.505  0.0573  0.8868  2.2601
   13DOPE  C317 1671   1.011   3.083  14.368 -0.4502  0.9091 -0.5853
   13DOPE  H17X 1672   0.981   2.980  14.400  2.4603 -0.2989 -1.4736
   13DOPE  H17Y 1673   0.920   3.131  14.326 -2.1159 -1.3711  0.1499
   13DOPE  C318 1674   1.129   3.066  14.267  0.4536  0.3656  0.2454
   13DOPE  H18X 1675   1.108   2.990  14.189 -1.1940  2.7976 -1.8219
   13DOPE  H18Y 1676   1.151   3.164  14.221 -1.0376  0.9975  0.8155
   13DOPE  H18Z 1677   1.220   3.027  14.319 -0.8060  1.1168  3.2139
   14DOPE     N 1678   5.793   5.588  15.779 -0.0680 -0.1331 -0.0016
   14DOPE   HN1 1679   5.735   5.544  15.854 -0.6199 -1.4758 -1.1635
   14DOPE   HN2 1680   5.869   5.526  15.746  0.3562 -1.2531  2.8032
   14DOPE   HN3 1681   5.844   5.669  15.820 -1.6719  2.4631 -2.7421
   14DOPE   C12 1682   5.704   5.645  15.675 -0.6224  0.2324 -0.1806
   14DOPE  H12A 1683   5.766   5.694  15.597  0.2371  1.3979  1.1918
   14DOPE  H12B 1684   5.648   5.731  15.717  1.5840  1.0190  1.2906
   14DOPE   C11 1685   5.612   5.543  15.612 -0.1593  0.0133 -0.1881
   14DOPE  H11A 1686   5.667   5.485  15.534  1.9137  0.3567  0.9647
   14DOPE  H11B 1687   5.522   5.585  15.562  0.0886  0.2225 -0.4618
   14DOPE     P 1688   5.417   5.470  15.783  0.1802  0.3211 -0.2513
   14DOPE   O13 1689   5.380   5.610  15.784 -0.4132 -0.0979  0.0688
   14DOPE   O14 1690   5.409   5.409  15.913 -0.5649 -0.3509 -0.1673
   14DOPE   O11 1691   5.322   5.384  15.701  0.5145  0.6707 -0.5726
   14DOPE   O12 1692   5.564   5.449  15.715  0.4500 -0.8568 -0.5793
   14DOPE    C1 1693   5.370   5.274  15.624 -0.2023  0.5760 -0.3005
   14DOPE    HA 1694   5.297   5.191  15.638  0.7282  0.2859  4.1641
   14DOPE    HB 1695   5.471   5.242  15.655  0.3215  2.5392  0.1832
   14DOPE    C2 1696   5.378   5.307  15.472 -0.3882  0.0911  0.1474
   14DOPE    HS 1697   5.460   5.381  15.461  0.0540 -0.4561 -0.3528
   14DOPE   O21 1698   5.252   5.359  15.435 -0.4702  0.2313 -0.3138
   14DOPE   C21 1699   5.257   5.487  15.414  0.2894 -0.1759 -1.1040
   14DOPE   O22 1700   5.352   5.553  15.376  0.5865  0.2356  1.0402
   14DOPE   C22 1701   5.118   5.549  15.439  0.3621 -0.8955 -0.1376
   14DOPE   H2R 1702   5.129   5.654  15.405  2.4105 -0.8259  0.5844
   14DOPE   H2S 1703   5.098   5.551  15.548 -1.7621 -3.2613 -0.3971
   14DOPE    C3 1704   5.421   5.189  15.388  0.7025 -0.4173  0.1525
   14DOPE    HX 1705   5.351   5.107  15.416 -0.0893  0.3142  0.3576
   14DOPE    HY 1706   5.524   5.161  15.421  2.0979  1.4602 -2.2765
   14DOPE   O31 1707   5.420   5.211  15.248  0.3351 -0.6180 -0.2541
   14DOPE   C31 1708   5.538   5.250  15.199 -0.3884 -0.1765 -0.2088
   14DOPE   O32 1709   5.630   5.293  15.270  0.4777  0.3001  1.3316
   14DOPE   C32 1710   5.540   5.237  15.039 -0.3397 -0.3970  0.0477
   14DOPE   H2X 1711   5.547   5.127  15.028  1.3530 -0.3221 -0.0078
   14DOPE   H2Y 1712   5.448   5.281  14.996  0.3616 -0.1265 -1.2301
   14DOPE   C23 1713   4.995   5.471  15.375  0.2974 -0.1387 -1.1714
   14DOPE   H3R 1714   4.909   5.494  15.440 -1.1507 -3.0063 -1.8956
   14DOPE   H3S 1715   4.996   5.360  15.372 -1.1213 -0.1488 -2.4759
   14DOPE   C24 1716   4.959   5.526  15.236 -0.0189  0.5889  0.9129
   14DOPE   H4R 1717   4.953   5.635  15.256 -2.9612  0.3552  1.8613
   14DOPE   H4S 1718   4.859   5.494  15.200 -0.2341  0.3960  1.6629
   14DOPE   C25 1719   5.065   5.489  15.126 -0.0229  0.1409 -0.4272
   14DOPE   H5R 1720   5.081   5.379  15.120 -0.5053  0.0219  0.2885
   14DOPE   H5S 1721   5.161   5.535  15.157  0.8934 -2.7471  1.4371
   14DOPE   C26 1722   5.035   5.537  14.988  0.0239  0.3847  0.1081
   14DOPE   H6R 1723   5.014   5.646  15.002 -0.8018  0.4070 -1.1489
   14DOPE   H6S 1724   4.949   5.493  14.933 -0.0114 -0.1073  0.5501
   14DOPE   C27 1725   5.160   5.532  14.902  0.2038  0.1907  0.1500
   14DOPE   H7R 1726   5.153   5.436  14.848 -0.4355  1.5688 -2.3871
   14DOPE   H7S 1727   5.251   5.538  14.966  1.4778 -1.6204 -1.3989
   14DOPE   C28 1728   5.177   5.643  14.791  0.0257  0.5243 -0.0671
   14DOPE   H8R 1729   5.275   5.621  14.744  0.4463  0.2688  0.8997
   14DOPE   H8S 1730   5.176   5.748  14.825  0.2293  0.9188 -1.2352
   14DOPE   C29 1731   5.061   5.622  14.697  0.4536 -1.1435 -0.1901
   14DOPE   H9R 1732   4.963   5.651  14.737  1.2375  0.0456  0.9590
   14DOPE  C210 1733   5.074   5.596  14.561 -0.2673  0.3110 -0.9400
   14DOPE  H10R 1734   4.978   5.594  14.508  0.1027  0.3092 -1.6369
   14DOPE  C211 1735   5.196   5.572  14.474 -0.4385  1.3366 -0.6602
   14DOPE  H11R 1736   5.273   5.649  14.499  1.6599 -1.6772  3.3120
   14DOPE  H11S 1737   5.178   5.556  14.365 -0.9660 -0.5059 -0.3339
   14DOPE  C212 1738   5.273   5.439  14.508 -0.1472 -0.1481 -0.0309
   14DOPE  H12R 1739   5.318   5.462  14.606 -2.1563  0.7500  0.7218
   14DOPE  H12S 1740   5.348   5.408  14.431 -1.6834 -2.5795 -0.6561
   14DOPE  C213 1741   5.174   5.323  14.536  0.0464 -0.1195  0.3751
   14DOPE  H13R 1742   5.071   5.354  14.565  0.7109  3.3807 -0.6201
   14DOPE  H13S 1743   5.212   5.265  14.623 -0.1723 -0.4215  0.2739
   14DOPE  C214 1744   5.160   5.229  14.417 -0.1594 -0.8874 -0.5094
   14DOPE  H14R 1745   5.089   5.150  14.449 -1.5871  1.2311  1.9705
   14DOPE  H14S 1746   5.257   5.182  14.390  0.2321  0.8885 -2.3767
   14DOPE  C215 1747   5.096   5.301  14.295 -0.2663  0.3779 -0.8486
   14DOPE  H15R 1748   5.181   5.344  14.237 -0.7462  2.0030 -0.3898
   14DOPE  H15S 1749   5.023   5.379  14.324 -1.1670 -0.3469 -1.1167
   14DOPE  C216 1750   5.023   5.199  14.208  0.6677 -0.5261  0.2421
   14DOPE  H16R 1751   4.940   5.164  14.272  0.6246  0.5082  0.7681
   14DOPE  H16S 1752   5.095   5.117  14.185  0.8770 -0.0918 -0.6955
   14DOPE  C217 1753   4.969   5.260  14.078 -0.2320  0.3397 -0.5132
   14DOPE  H17R 1754   5.054   5.306  14.022  0.2393  0.7182  0.5015
   14DOPE  H17S 1755   4.906   5.346  14.106  1.7001  1.8351 -0.5593
   14DOPE  C218 1756   4.891   5.160  13.988  0.1647  0.3518  0.1688
   14DOPE  H18R 1757   4.846   5.210  13.900 -1.5240 -0.6418  0.4037
   14DOPE  H18S 1758   4.803   5.109  14.034 -0.7669  0.6302 -1.2398
   14DOPE  H18T 1759   4.963   5.089  13.943  0.0521  0.2679  0.1206
   14DOPE   C33 1760   5.669   5.294  14.971 -0.5831  0.0838 -0.0102
   14DOPE   H3X 1761   5.755   5.277  15.040 -0.5223  1.4030  0.2534
   14DOPE   H3Y 1762   5.658   5.404  14.968  0.1462  0.1522 -0.6403
   14DOPE   C34 1763   5.686   5.238  14.828 -0.4564 -0.2927  0.5097
   14DOPE   H4X 1764   5.772   5.279  14.771  1.3965 -0.3943  3.0906
   14DOPE   H4Y 1765   5.700   5.128  14.838 -0.3971 -0.3387 -0.0421
   14DOPE   C35 1766   5.557   5.265  14.744  0.8203  0.2208 -0.1069
   14DOPE   H5X 1767   5.522   5.371  14.745  0.2578  0.0375 -0.1485
   14DOPE   H5Y 1768   5.471   5.212  14.791  0.4061  0.7947 -0.2022
   14DOPE   C36 1769   5.558   5.216  14.603 -0.7271 -0.2350 -0.1363
   14DOPE   H6X 1770   5.460   5.203  14.553 -1.2426  0.5617  0.6444
   14DOPE   H6Y 1771   5.609   5.117  14.596  1.1214  0.3459  2.9911
   14DOPE   C37 1772   5.633   5.308  14.508 -0.0332  0.6057  0.3309
   14DOPE   H7X 1773   5.562   5.393  14.509 -1.9586 -0.7474 -3.3251
   14DOPE   H7Y 1774   5.732   5.333  14.551  1.1630 -1.4421 -1.0632
   14DOPE   C38 1775   5.668   5.239  14.370 -0.0073  0.4424  1.0043
   14DOPE   H8X 1776   5.735   5.151  14.384 -0.3302 -0.1166 -0.6721
   14DOPE   H8Y 1777   5.719   5.319  14.313  0.4091 -0.3554  0.2170
   14DOPE   C39 1778   5.545   5.190  14.301  0.4436 -0.0278  0.4324
   14DOPE   H9X 1779   5.497   5.105  14.352 -0.2205 -0.5728 -1.0276
   14DOPE  C310 1780   5.481   5.240  14.189  0.1203  0.4487 -0.1835
   14DOPE  H10X 1781   5.393   5.186  14.150  0.2341  0.2209 -0.1260
   14DOPE  C311 1782   5.512   5.369  14.108  0.4821 -0.0242 -0.0977
   14DOPE  H11X 1783   5.429   5.442  14.123 -0.0330 -0.2856 -1.5508
   14DOPE  H11Y 1784   5.600   5.429  14.140  1.1003 -0.0946 -1.6021
   14DOPE  C312 1785   5.522   5.358  13.953  0.1212  1.1248 -0.3515
   14DOPE  H12X 1786   5.620   5.309  13.935  0.3705  1.1904  0.7409
   14DOPE  H12Y 1787   5.531   5.458  13.904 -0.1425  0.7142 -1.2684
   14DOPE  C313 1788   5.403   5.277  13.888  0.8449 -0.1496  0.2584
   14DOPE  H13X 1789   5.409   5.179  13.940 -0.6005  1.1042  3.0177
   14DOPE  H13Y 1790   5.307   5.323  13.919  0.3692 -0.5920 -0.5299
   14DOPE  C314 1791   5.410   5.263  13.733 -0.1101  0.4779  0.0107
   14DOPE  H14X 1792   5.496   5.204  13.695 -0.6247  0.5454 -1.3426
   14DOPE  H14Y 1793   5.419   5.363  13.685  1.6560  0.1924 -0.3348
   14DOPE  C315 1794   5.290   5.188  13.662  0.2690  0.6939  0.7497
   14DOPE  H15X 1795   5.200   5.253  13.671 -1.4475 -1.6804  1.8801
   14DOPE  H15Y 1796   5.265   5.101  13.725  0.2285 -2.3211 -3.0490
   14DOPE  C316 1797   5.310   5.153  13.511  0.2308  0.6437  0.1943
   14DOPE  H16X 1798   5.402   5.090  13.505  0.6553  1.2152  0.5632
   14DOPE  H16Y 1799   5.329   5.238  13.442  0.7602 -0.6923 -1.3830
   14DOPE  C317 1800   5.191   5.073  13.446  0.4097  0.6074 -0.8490
   14DOPE  H17X 1801   5.099   5.114  13.492  0.9999  2.2459 -1.0290
   14DOPE  H17Y 1802   5.178   5.095  13.338 -0.3882  1.6744 -0.5469
   14DOPE  C318 1803   5.201   4.925  13.453 -0.3598  0.0924  0.2515
   14DOPE  H18X 1804   5.250   4.889  13.546 -0.6398 -0.2158  0.2812
   14DOPE  H18Y 1805   5.105   4.872  13.435  0.5644 -1.4590 -0.2567
   14DOPE  H18Z 1806   5.266   4.891  13.370  0.5627  1.6490  0.2891
   15DOPE     N 1807   6.495   3.180  16.246  0.1288 -0.3421  0.2906
   15DOPE   HN1 1808   6.527   3.089  16.205 -2.1757 -0.9739 -0.2185
   15DOPE   HN2 1809   6.533   3.187  16.343 -2.4673 -2.3749  1.5797
   15DOPE   HN3 1810   6.392   3.186  16.257  0.1801  2.1379  0.0219
   15DOPE   C12 1811   6.543   3.294  16.173 -0.2720 -0.3269  0.0266
   15DOPE  H12A 1812   6.524   3.287  16.064 -2.8672 -0.1684  0.4187
   15DOPE  H12B 1813   6.654   3.299  16.176 -0.1646  0.7709 -2.8204
   15DOPE   C11 1814   6.483   3.431  16.224 -0.3670 -0.6828  0.3804
   15DOPE  H11A 1815   6.546   3.515  16.190  0.9328 -2.5834 -2.2858
   15DOPE  H11B 1816   6.490   3.433  16.335 -1.9947 -2.3847  0.5659
   15DOPE     P 1817   6.294   3.525  16.061 -0.3198 -0.1982  0.0744
   15DOPE   O13 1818   6.374   3.652  16.050  0.0525  0.6293  0.1017
   15DOPE   O14 1819   6.149   3.541  16.063  0.1651 -0.3965 -0.5495
   15DOPE   O11 1820   6.333   3.426  15.945  0.3812  0.5183  0.8592
   15DOPE   O12 1821   6.340   3.447  16.185 -0.4196 -0.0943 -0.4797
   15DOPE    C1 1822   6.272   3.293  15.943  0.2758 -0.1653  0.4604
   15DOPE    HA 1823   6.162   3.305  15.947 -0.1555 -3.2612 -0.0850
   15DOPE    HB 1824   6.311   3.233  16.027 -2.4832 -2.0781  0.4854
   15DOPE    C2 1825   6.315   3.206  15.818 -0.3532  0.2106 -0.6096
   15DOPE    HS 1826   6.424   3.188  15.828 -0.2493  0.6985 -0.8178
   15DOPE   O21 1827   6.272   3.267  15.692 -0.3650 -0.2439  0.2696
   15DOPE   C21 1828   6.357   3.245  15.595 -0.2915  0.4023 -0.0234
   15DOPE   O22 1829   6.474   3.212  15.606  0.2451 -1.1045 -0.3887
   15DOPE   C22 1830   6.293   3.271  15.458  0.1670 -0.3596 -0.4791
   15DOPE   H2R 1831   6.341   3.363  15.419  2.1441 -0.8273  0.7074
   15DOPE   H2S 1832   6.184   3.285  15.475  0.5485  1.7060  0.6218
   15DOPE    C3 1833   6.245   3.070  15.817 -0.3852 -0.2536 -0.1127
   15DOPE    HX 1834   6.138   3.096  15.803  0.0663  0.5917 -2.4649
   15DOPE    HY 1835   6.269   3.015  15.911  0.2425 -1.3734 -0.8884
   15DOPE   O31 1836   6.288   2.987  15.705  0.4488 -0.3086  0.4004
   15DOPE   C31 1837   6.391   2.897  15.733 -0.6361  0.3589 -0.2518
   15DOPE   O32 1838   6.468   2.910  15.828 -0.1160 -0.3783  0.1149
   15DOPE   C32 1839   6.409   2.800  15.618  0.0726  0.2306  0.8419
   15DOPE   H2X 1840   6.316   2.740  15.610 -0.4223  1.0508  0.3608
   15DOPE   H2Y 1841   6.426   2.862  15.528 -0.6610 -1.3200 -0.4076
   15DOPE   C23 1842   6.307   3.149  15.356  0.1440  0.7799  0.0066
   15DOPE   H3R 1843   6.248   3.177  15.266  0.0849 -0.7460 -0.4538
   15DOPE   H3S 1844   6.261   3.053  15.387  1.8125 -0.4131 -1.0213
   15DOPE   C24 1845   6.446   3.104  15.312 -0.0474 -0.0026 -1.6545
   15DOPE   H4R 1846   6.529   3.107  15.387 -0.0123 -2.0093 -1.5727
   15DOPE   H4S 1847   6.479   3.177  15.234 -0.2866  0.4496 -1.3393
   15DOPE   C25 1848   6.455   2.971  15.239 -0.5164  0.5668  0.2640
   15DOPE   H5R 1849   6.415   2.887  15.300 -0.2615  1.4735  1.7541
   15DOPE   H5S 1850   6.565   2.959  15.225 -0.4791 -0.3041  1.1531
   15DOPE   C26 1851   6.376   2.956  15.108  0.3694 -0.0021  0.0574
   15DOPE   H6R 1852   6.269   2.987  15.119 -0.3012 -1.6902 -1.2541
   15DOPE   H6S 1853   6.370   2.846  15.095  1.1994 -0.0192 -0.1856
   15DOPE   C27 1854   6.448   3.019  14.987  0.4746 -0.4434 -0.0544
   15DOPE   H7R 1855   6.557   3.009  15.004  0.2999  0.4682  1.9007
   15DOPE   H7S 1856   6.428   3.129  14.990  0.6665 -0.4286  1.1843
   15DOPE   C28 1857   6.413   2.945  14.860  0.3878  0.0828  0.3929
   15DOPE   H8R 1858   6.308   2.910  14.865  1.3916 -3.5621 -0.7212
   15DOPE   H8S 1859   6.473   2.851  14.869 -2.5488 -1.8084  1.7089
   15DOPE   C29 1860   6.442   3.015  14.729  0.8031  0.1835 -0.4956
   15DOPE   H9R 1861   6.418   3.123  14.731 -0.2259  0.0415 -2.5270
   15DOPE  C210 1862   6.440   2.957  14.606 -0.2706  0.2023 -0.5784
   15DOPE  H10R 1863   6.449   3.015  14.513 -1.7062 -0.4233 -1.1385
   15DOPE  C211 1864   6.435   2.811  14.577 -0.8563  0.4064 -0.2803
   15DOPE  H11R 1865   6.346   2.791  14.514 -0.4293  1.1309 -1.1405
   15DOPE  H11S 1866   6.413   2.762  14.674  0.5061 -2.0900 -1.1330
   15DOPE  C212 1867   6.555   2.743  14.508  0.3029  0.3339  0.0414
   15DOPE  H12R 1868   6.526   2.636  14.494 -0.6524  0.5862  0.0527
   15DOPE  H12S 1869   6.646   2.754  14.570  0.1842 -1.4238  0.6005
   15DOPE  C213 1870   6.591   2.796  14.369  1.7766 -0.4503  0.1429
   15DOPE  H13R 1871   6.610   2.906  14.371  0.1126 -0.1110 -0.9784
   15DOPE  H13S 1872   6.494   2.783  14.317  1.0440 -2.6538  1.8763
   15DOPE  C214 1873   6.700   2.725  14.291 -0.9049  0.2986  0.1241
   15DOPE  H14R 1874   6.689   2.616  14.308  0.5021 -0.0571 -1.0597
   15DOPE  H14S 1875   6.796   2.747  14.342 -0.2316 -2.8681  0.4528
   15DOPE  C215 1876   6.716   2.774  14.148 -0.0370  0.3735  0.2553
   15DOPE  H15R 1877   6.619   2.781  14.094  1.2697  0.9752 -2.1947
   15DOPE  H15S 1878   6.766   2.689  14.097  0.1039 -0.3356  1.5529
   15DOPE  C216 1879   6.780   2.909  14.131  0.5382 -0.4834  0.0038
   15DOPE  H16R 1880   6.877   2.918  14.185  0.6100 -1.5138  0.0662
   15DOPE  H16S 1881   6.711   2.989  14.167  0.3014 -1.4647  1.8841
   15DOPE  C217 1882   6.799   2.934  13.983 -0.3106 -1.4252  0.0673
   15DOPE  H17R 1883   6.708   2.917  13.920 -0.9585 -0.4428  0.7017
   15DOPE  H17S 1884   6.877   2.864  13.946  1.2172 -0.1118  0.7147
   15DOPE  C218 1885   6.846   3.082  13.945 -0.6350  0.0414  0.3755
   15DOPE  H18R 1886   6.943   3.110  13.992 -0.7960  1.9099 -0.3178
   15DOPE  H18S 1887   6.777   3.164  13.974  0.1672  0.0282  2.5322
   15DOPE  H18T 1888   6.872   3.080  13.837  0.0935 -2.4786  0.5508
   15DOPE   C33 1889   6.529   2.689  15.633 -0.4464 -0.8864 -0.2835
   15DOPE   H3X 1890   6.528   2.645  15.735  1.8274 -3.2819 -1.1953
   15DOPE   H3Y 1891   6.626   2.743  15.626 -0.3412 -1.1265 -0.6640
   15DOPE   C34 1892   6.520   2.574  15.532 -0.3762  0.0851 -0.8319
   15DOPE   H4X 1893   6.591   2.497  15.568 -0.7982  0.7445  1.6372
   15DOPE   H4Y 1894   6.419   2.530  15.550 -0.3836  0.0523 -0.9570
   15DOPE   C35 1895   6.533   2.616  15.387 -0.0465 -0.2615  0.3427
   15DOPE   H5X 1896   6.588   2.712  15.384  0.4424 -0.5366  0.4774
   15DOPE   H5Y 1897   6.432   2.643  15.350 -0.7369 -1.0272  1.5986
   15DOPE   C36 1898   6.596   2.514  15.295  0.1700  0.4172 -0.0368
   15DOPE   H6X 1899   6.526   2.428  15.308  1.8242 -0.8634  0.6472
   15DOPE   H6Y 1900   6.690   2.484  15.344 -0.1130 -1.3206 -0.4713
   15DOPE   C37 1901   6.599   2.557  15.147 -0.1428 -0.2082  0.3097
   15DOPE   H7X 1902   6.498   2.587  15.114  0.9006  0.7729 -2.2828
   15DOPE   H7Y 1903   6.647   2.654  15.121  1.6425 -0.9890  0.4986
   15DOPE   C38 1904   6.657   2.454  15.051 -0.7462 -0.2546  0.6226
   15DOPE   H8X 1905   6.606   2.357  15.067 -0.5481 -0.5205 -0.3109
   15DOPE   H8Y 1906   6.765   2.446  15.073  0.0650  2.2636 -1.8160
   15DOPE   C39 1907   6.640   2.477  14.899  0.1667  0.2733 -0.2063
   15DOPE   H9X 1908   6.540   2.518  14.883 -0.1248 -0.5393 -0.5002
   15DOPE  C310 1909   6.733   2.454  14.803  1.1827  0.1678  0.1328
   15DOPE  H10X 1910   6.715   2.492  14.701  0.4226  2.2143  0.9707
   15DOPE  C311 1911   6.868   2.401  14.834  0.1312 -0.0517 -0.8693
   15DOPE  H11X 1912   6.918   2.475  14.900 -0.5797  0.5227 -0.9677
   15DOPE  H11Y 1913   6.879   2.300  14.880  0.2221 -0.5521 -1.9579
   15DOPE  C312 1914   6.955   2.395  14.704  0.7654  0.3332  0.3632
   15DOPE  H12X 1915   6.896   2.348  14.622 -1.7268  1.2878  1.5217
   15DOPE  H12Y 1916   7.047   2.343  14.742  0.1182  0.2671  1.9105
   15DOPE  C313 1917   6.994   2.529  14.655 -0.2815  0.5195 -0.0386
   15DOPE  H13X 1918   6.901   2.583  14.630 -0.0659  0.1094 -1.8144
   15DOPE  H13Y 1919   7.038   2.583  14.742 -0.0062 -1.0048  0.8057
   15DOPE  C314 1920   7.102   2.527  14.545  0.6431  0.0477 -0.7191
   15DOPE  H14X 1921   7.201   2.490  14.581  0.8516 -0.7810 -2.0628
   15DOPE  H14Y 1922   7.119   2.633  14.518  0.1151 -0.3555 -2.9175
   15DOPE  C315 1923   7.056   2.450  14.422 -0.2597  0.5574  0.0530
   15DOPE  H15X 1924   6.953   2.482  14.394  0.0431  0.6792 -0.9503
   15DOPE  H15Y 1925   7.049   2.343  14.449  1.2187  0.0250 -1.5900
   15DOPE  C316 1926   7.147   2.456  14.301  0.1962  0.0064  0.8760
   15DOPE  H16X 1927   7.122   2.359  14.253 -0.6270 -0.7108  2.6566
   15DOPE  H16Y 1928   7.253   2.457  14.334  0.0264  0.5708  1.4336
   15DOPE  C317 1929   7.122   2.566  14.204  0.1785 -0.0162 -0.0763
   15DOPE  H17X 1930   7.020   2.555  14.163 -0.2173 -0.5752  1.0238
   15DOPE  H17Y 1931   7.133   2.668  14.247  2.9545  1.6092 -4.0125
   15DOPE  C318 1932   7.233   2.578  14.093 -0.0083 -0.1244  0.5057
   15DOPE  H18X 1933   7.221   2.671  14.034 -0.3166 -0.4857 -0.0032
   15DOPE  H18Y 1934   7.336   2.567  14.134  0.3272 -1.9381 -0.6785
   15DOPE  H18Z 1935   7.229   2.487  14.030 -0.1954  0.1796  0.0736
   16DOPE     N 1936   6.409   4.131  15.969 -0.1453  0.5014  0.2501
   16DOPE   HN1 1937   6.355   4.209  15.926  2.6893  2.2471 -0.4038
   16DOPE   HN2 1938   6.437   4.081  15.882 -0.0098  2.2597 -0.7794
   16DOPE   HN3 1939   6.343   4.088  16.037  0.7498  0.5805  1.1791
   16DOPE   C12 1940   6.527   4.182  16.044 -0.2077  0.0902  0.0071
   16DOPE  H12A 1941   6.606   4.106  16.060  1.0275  1.7595  2.4029
   16DOPE  H12B 1942   6.486   4.229  16.137  1.0412 -2.3106  1.8893
   16DOPE   C11 1943   6.587   4.297  15.961  0.1150 -0.1825  0.3421
   16DOPE  H11A 1944   6.612   4.254  15.862 -0.8637  0.6157 -0.2662
   16DOPE  H11B 1945   6.680   4.322  16.016  0.6995 -0.2131 -0.6150
   16DOPE     P 1946   6.541   4.547  15.884 -0.1443  0.5384  0.3485
   16DOPE   O13 1947   6.676   4.573  15.922 -0.1982 -0.7968 -0.8183
   16DOPE   O14 1948   6.434   4.642  15.916  0.5040  0.0471 -0.3545
   16DOPE   O11 1949   6.541   4.535  15.727  0.0441  0.5384  0.5935
   16DOPE   O12 1950   6.495   4.399  15.939 -0.0148 -0.0171 -0.1752
   16DOPE    C1 1951   6.549   4.632  15.626  0.4788 -0.4698 -0.3043
   16DOPE    HA 1952   6.645   4.687  15.630 -0.0662  0.8357 -2.8947
   16DOPE    HB 1953   6.471   4.709  15.643 -0.7169 -1.2867 -1.7723
   16DOPE    C2 1954   6.520   4.575  15.483  0.1989 -0.2579  0.5105
   16DOPE    HS 1955   6.519   4.659  15.410 -2.3009  0.1215  0.9002
   16DOPE   O21 1956   6.397   4.500  15.483  0.2592  0.5835 -0.4958
   16DOPE   C21 1957   6.298   4.579  15.465  0.0729 -0.5229 -0.2298
   16DOPE   O22 1958   6.298   4.703  15.465 -0.1252  0.1292  0.3084
   16DOPE   C22 1959   6.161   4.513  15.443  0.1879 -0.7004  0.5757
   16DOPE   H2R 1960   6.084   4.593  15.432 -0.2076 -1.1993 -0.4189
   16DOPE   H2S 1961   6.134   4.454  15.533  1.2624  1.5273  2.4503
   16DOPE    C3 1962   6.634   4.476  15.443  0.2612  0.5771  0.6726
   16DOPE    HX 1963   6.643   4.409  15.531  0.1439  0.2520  0.4391
   16DOPE    HY 1964   6.731   4.530  15.445 -0.1700  1.8240 -3.1653
   16DOPE   O31 1965   6.607   4.410  15.313 -0.4946 -0.7640  0.7600
   16DOPE   C31 1966   6.645   4.492  15.209  0.9950 -0.4380 -0.5975
   16DOPE   O32 1967   6.679   4.607  15.227 -0.4611 -0.3419 -0.0861
   16DOPE   C32 1968   6.635   4.418  15.081  0.5746 -0.5472  1.0808
   16DOPE   H2X 1969   6.720   4.346  15.076 -0.3314 -1.5454 -0.8082
   16DOPE   H2Y 1970   6.536   4.367  15.080  0.1603  0.2533  0.4662
   16DOPE   C23 1971   6.163   4.424  15.312  0.5494  0.8333  0.5857
   16DOPE   H3R 1972   6.062   4.378  15.301  0.5408  1.2524 -1.4839
   16DOPE   H3S 1973   6.241   4.345  15.313  0.5453  0.7291 -1.9982
   16DOPE   C24 1974   6.192   4.512  15.186  0.3707  0.7083  0.1857
   16DOPE   H4R 1975   6.289   4.566  15.183  1.1040 -0.5988  0.1703
   16DOPE   H4S 1976   6.108   4.584  15.171  1.6399  2.0619 -0.6663
   16DOPE   C25 1977   6.198   4.418  15.071  0.4495  0.6567  0.1465
   16DOPE   H5R 1978   6.110   4.351  15.072  2.0855 -1.5900  0.5169
   16DOPE   H5S 1979   6.289   4.355  15.063 -0.2728 -0.4763  0.6129
   16DOPE   C26 1980   6.185   4.489  14.930 -0.7897  0.4670 -0.1851
   16DOPE   H6R 1981   6.275   4.553  14.914 -2.6764  3.0406 -1.1156
   16DOPE   H6S 1982   6.094   4.552  14.928  1.0576  3.3307 -2.1006
   16DOPE   C27 1983   6.163   4.390  14.812 -0.0993  0.7354 -0.2360
   16DOPE   H7R 1984   6.082   4.319  14.841 -0.3719  1.5898  1.1725
   16DOPE   H7S 1985   6.257   4.335  14.795 -0.3149  0.9146 -2.2476
   16DOPE   C28 1986   6.150   4.448  14.670  0.2705 -0.4804 -0.1364
   16DOPE   H8R 1987   6.225   4.527  14.653 -2.5140  2.2803 -0.4781
   16DOPE   H8S 1988   6.057   4.509  14.667  0.6911  0.1522 -0.4828
   16DOPE   C29 1989   6.152   4.341  14.568 -0.1118 -0.3728 -0.2437
   16DOPE   H9R 1990   6.166   4.242  14.613 -0.1589  0.0358  0.6917
   16DOPE  C210 1991   6.156   4.357  14.435 -0.1970 -0.0433  0.9248
   16DOPE  H10R 1992   6.150   4.267  14.373 -0.1578 -0.5495  1.6388
   16DOPE  C211 1993   6.148   4.486  14.362 -0.4835 -0.3365  0.5804
   16DOPE  H11R 1994   6.237   4.508  14.299 -2.3086 -1.1219 -2.5108
   16DOPE  H11S 1995   6.151   4.567  14.438 -0.6610 -0.1588  0.3995
   16DOPE  C212 1996   6.024   4.505  14.275 -0.1473 -0.5433  0.6108
   16DOPE  H12R 1997   6.045   4.595  14.213  1.1692 -0.7323  0.7494
   16DOPE  H12S 1998   5.934   4.525  14.336  0.0973  1.3882  0.3889
   16DOPE  C213 1999   5.991   4.392  14.180  0.6833 -0.6576  0.1460
   16DOPE  H13R 2000   5.894   4.420  14.133  0.1040 -0.4050  1.4359
   16DOPE  H13S 2001   5.987   4.291  14.225  2.3055 -1.0363 -0.4779
   16DOPE  C214 2002   6.104   4.374  14.073  0.5141 -0.9103 -0.6480
   16DOPE  H14R 2003   6.189   4.341  14.136 -0.3174 -3.6669 -0.8138
   16DOPE  H14S 2004   6.128   4.473  14.029  1.5125 -0.5558  0.6438
   16DOPE  C215 2005   6.063   4.281  13.964 -0.3777  0.4605 -0.1244
   16DOPE  H15R 2006   5.974   4.322  13.912 -1.0336 -0.4588  0.2442
   16DOPE  H15S 2007   6.037   4.183  14.010 -1.1294  0.8497  0.3040
   16DOPE  C216 2008   6.182   4.262  13.874  0.0869 -0.1253  0.0502
   16DOPE  H16R 2009   6.160   4.174  13.810 -0.6052  0.6073 -0.7380
   16DOPE  H16S 2010   6.272   4.248  13.938  0.2895 -1.7542 -0.5313
   16DOPE  C217 2011   6.190   4.370  13.776  0.5179 -0.2192  0.4863
   16DOPE  H17R 2012   6.202   4.470  13.823 -0.4452 -0.4678  1.3009
   16DOPE  H17S 2013   6.097   4.358  13.718  0.2589 -0.3553  0.9217
   16DOPE  C218 2014   6.315   4.349  13.686  0.1406 -0.0618  0.4029
   16DOPE  H18R 2015   6.313   4.432  13.611  0.0937 -0.3761  0.0542
   16DOPE  H18S 2016   6.325   4.250  13.637  2.0962 -0.1259  0.8543
   16DOPE  H18T 2017   6.408   4.374  13.742  0.2545 -1.4137  0.8477
   16DOPE   C33 2018   6.634   4.501  14.950 -0.5658  0.0834  0.0725
   16DOPE   H3X 2019   6.736   4.537  14.927 -1.3027  0.9488 -2.1136
   16DOPE   H3Y 2020   6.570   4.591  14.967  0.3409  1.1176 -1.7558
   16DOPE   C34 2021   6.585   4.422  14.825  0.1479  0.1383 -0.8726
   16DOPE   H4X 2022   6.665   4.351  14.796  0.6278 -0.1237  0.9435
   16DOPE   H4Y 2023   6.499   4.357  14.852  1.3747 -2.1956 -2.2570
   16DOPE   C35 2024   6.551   4.505  14.697 -0.2742 -0.4326  0.4590
   16DOPE   H5X 2025   6.634   4.575  14.673 -0.3183 -0.7299 -0.6011
   16DOPE   H5Y 2026   6.466   4.573  14.717 -0.5343 -0.5273 -0.2978
   16DOPE   C36 2027   6.530   4.423  14.565 -0.3683  0.3819 -0.4268
   16DOPE   H6X 2028   6.436   4.366  14.576 -0.3890  0.5281  0.2238
   16DOPE   H6Y 2029   6.608   4.346  14.552  0.2775  0.7150  1.1931
   16DOPE   C37 2030   6.525   4.500  14.432 -0.1004  0.2657 -0.2083
   16DOPE   H7X 2031   6.443   4.573  14.452 -1.5696 -0.9634 -1.4386
   16DOPE   H7Y 2032   6.617   4.560  14.419 -0.5594  1.3299  1.2024
   16DOPE   C38 2033   6.506   4.402  14.312  0.0088 -0.1495  0.4484
   16DOPE   H8X 2034   6.417   4.336  14.318  0.8366 -1.4387 -0.8193
   16DOPE   H8Y 2035   6.597   4.341  14.293  0.2087 -0.1921  1.4631
   16DOPE   C39 2036   6.488   4.500  14.197 -0.1683  0.6283 -0.0892
   16DOPE   H9X 2037   6.452   4.600  14.223  0.4013  1.4134 -2.1438
   16DOPE  C310 2038   6.510   4.469  14.071 -0.7326 -0.0103 -0.2100
   16DOPE  H10X 2039   6.495   4.548  13.995  1.1167  2.0672  1.4556
   16DOPE  C311 2040   6.584   4.342  14.021  0.5814  0.3801  0.5968
   16DOPE  H11X 2041   6.568   4.253  14.085  1.6493  0.7240  1.3584
   16DOPE  H11Y 2042   6.544   4.329  13.918 -0.6120  1.2370  0.9323
   16DOPE  C312 2043   6.737   4.354  14.003  0.1497 -0.6288 -0.2119
   16DOPE  H12X 2044   6.786   4.341  14.102  0.5504  2.7534  0.1492
   16DOPE  H12Y 2045   6.761   4.459  13.975  0.1497 -0.3783  0.6939
   16DOPE  C313 2046   6.805   4.267  13.890  0.2775  0.7693  0.3999
   16DOPE  H13X 2047   6.739   4.279  13.801 -0.3660  2.9587  1.0817
   16DOPE  H13Y 2048   6.906   4.292  13.852  0.7038 -0.3765  0.7366
   16DOPE  C314 2049   6.797   4.115  13.927  0.5076 -0.2044 -0.2836
   16DOPE  H14X 2050   6.815   4.059  13.833  2.1560 -1.4123  0.6913
   16DOPE  H14Y 2051   6.694   4.090  13.960  0.1517 -0.4590 -1.5499
   16DOPE  C315 2052   6.889   4.069  14.046 -0.2326  0.5115  0.6078
   16DOPE  H15X 2053   6.861   4.126  14.137  1.6800  0.3102  1.3541
   16DOPE  H15Y 2054   6.997   4.085  14.031  0.0988 -2.0050 -0.1918
   16DOPE  C316 2055   6.864   3.919  14.085  0.2200 -0.3520 -0.3672
   16DOPE  H16X 2056   6.875   3.855  13.995 -1.3338 -2.1720  0.6630
   16DOPE  H16Y 2057   6.755   3.907  14.102 -0.1203  3.3777  0.9584
   16DOPE  C317 2058   6.949   3.879  14.208 -0.3681  0.6634 -0.3964
   16DOPE  H17X 2059   7.025   3.959  14.224  0.4301 -0.1351 -0.1120
   16DOPE  H17Y 2060   6.888   3.878  14.301 -2.0297  0.0534 -1.4398
   16DOPE  C318 2061   7.020   3.744  14.189  0.3400  0.2553 -0.1131
   16DOPE  H18X 2062   7.115   3.743  14.131 -0.8730 -2.2957 -2.2310
   16DOPE  H18Y 2063   7.041   3.704  14.290 -1.7179  0.5815  0.4798
   16DOPE  H18Z 2064   6.942   3.675  14.152 -1.4237  1.2497  1.5781
   17DOPE     N 2065   1.419   6.686  16.094  0.3363 -0.5155 -0.2332
   17DOPE   HN1 2066   1.426   6.622  16.176 -2.3421  0.8159  1.1757
   17DOPE   HN2 2067   1.507   6.688  16.039  1.6429 -0.0002  1.7716
   17DOPE   HN3 2068   1.397   6.780  16.132  1.5347 -0.6253  0.7840
   17DOPE   C12 2069   1.298   6.643  16.027 -0.2911 -0.3103  0.6897
   17DOPE  H12A 2070   1.302   6.535  16.000 -2.2172 -0.4343  0.8002
   17DOPE  H12B 2071   1.304   6.686  15.925  0.5066 -0.3552  0.7112
   17DOPE   C11 2072   1.176   6.669  16.107  0.0027 -0.4285  0.1966
   17DOPE  H11A 2073   1.175   6.595  16.190  2.6657 -0.3973  0.3332
   17DOPE  H11B 2074   1.088   6.648  16.043 -1.5230 -0.2304  2.1034
   17DOPE     P 2075   1.061   6.898  16.133 -0.6615 -0.0187 -0.3391
   17DOPE   O13 2076   1.096   7.028  16.195 -0.2901 -0.3657  0.3680
   17DOPE   O14 2077   0.944   6.829  16.180 -0.0791 -0.2357  0.0819
   17DOPE   O11 2078   1.053   6.923  15.977  0.4198  0.7928 -0.0385
   17DOPE   O12 2079   1.185   6.807  16.149  0.0720 -0.1562  0.3088
   17DOPE    C1 2080   1.173   6.957  15.895 -0.0888 -0.2238 -0.8205
   17DOPE    HA 2081   1.270   6.916  15.929  0.0972  2.0374  1.7311
   17DOPE    HB 2082   1.192   7.066  15.906  0.8012 -0.2730 -1.7900
   17DOPE    C2 2083   1.147   6.930  15.741 -0.0820  0.3137  0.2961
   17DOPE    HS 2084   1.124   6.822  15.729  1.3054 -0.0588  0.8573
   17DOPE   O21 2085   1.255   6.978  15.656  0.0863 -0.3085 -0.3103
   17DOPE   C21 2086   1.340   6.884  15.630 -0.3760  0.8287 -0.4888
   17DOPE   O22 2087   1.335   6.770  15.670 -0.0112  0.0001 -0.3228
   17DOPE   C22 2088   1.446   6.948  15.549 -0.5580  0.1084 -0.9578
   17DOPE   H2R 2089   1.488   6.864  15.490  2.4836  0.7980  0.0388
   17DOPE   H2S 2090   1.518   6.993  15.621 -2.2382  1.0750  0.1916
   17DOPE    C3 2091   1.018   6.996  15.699 -0.6152 -0.0663 -0.2886
   17DOPE    HX 2092   1.036   7.105  15.712 -1.0336 -0.0718  0.3400
   17DOPE    HY 2093   0.939   6.956  15.765  1.2410 -1.6339  1.1027
   17DOPE   O31 2094   0.991   6.968  15.559  0.1870 -0.1549  0.2434
   17DOPE   C31 2095   0.869   7.000  15.533  0.0173  0.1140 -0.1129
   17DOPE   O32 2096   0.791   7.045  15.614  0.2617 -0.6071  0.1284
   17DOPE   C32 2097   0.828   6.985  15.381 -0.1861  0.1431 -0.0565
   17DOPE   H2X 2098   0.803   6.878  15.371 -0.3008  0.3346 -2.1278
   17DOPE   H2Y 2099   0.738   7.048  15.361  0.6816  1.6478  0.5510
   17DOPE   C23 2100   1.396   7.052  15.453  0.3130 -0.6330  0.8911
   17DOPE   H3R 2101   1.477   7.116  15.411 -1.5297  0.8540 -0.5501
   17DOPE   H3S 2102   1.336   7.131  15.502 -1.8414 -1.3152 -0.5308
   17DOPE   C24 2103   1.317   7.014  15.333  0.6122  0.1726 -0.2434
   17DOPE   H4R 2104   1.286   7.108  15.283 -1.9592  0.2493  1.3238
   17DOPE   H4S 2105   1.224   6.964  15.367 -0.6132  2.8964  0.7407
   17DOPE   C25 2106   1.402   6.939  15.227  0.3211 -0.7982 -0.2953
   17DOPE   H5R 2107   1.435   6.838  15.260  1.0204 -0.3254  0.5081
   17DOPE   H5S 2108   1.491   6.999  15.198  0.7538 -1.0322  0.5283
   17DOPE   C26 2109   1.328   6.913  15.090  0.1450  0.0472 -0.5011
   17DOPE   H6R 2110   1.245   6.851  15.131  0.8097  0.3210  1.3280
   17DOPE   H6S 2111   1.381   6.833  15.035 -1.2464 -0.5133 -1.0731
   17DOPE   C27 2112   1.287   7.024  15.003 -0.6932 -0.0897  0.0862
   17DOPE   H7R 2113   1.368   7.071  14.942  0.8326  2.0680  3.4872
   17DOPE   H7S 2114   1.253   7.113  15.060  0.2766  0.7373 -0.5760
   17DOPE   C28 2115   1.172   6.973  14.912  0.6725  0.7461 -0.3264
   17DOPE   H8R 2116   1.084   6.947  14.975  1.1580  0.1456  0.1154
   17DOPE   H8S 2117   1.201   6.878  14.862  1.4370  0.7963  0.0149
   17DOPE   C29 2118   1.131   7.074  14.813  0.8118 -0.6224 -1.1013
   17DOPE   H9R 2119   1.050   7.144  14.839  1.5986 -0.4905  1.2603
   17DOPE  C210 2120   1.175   7.083  14.687 -0.2111  0.3792  0.0494
   17DOPE  H10R 2121   1.127   7.147  14.611  0.7637  1.3781  0.2395
   17DOPE  C211 2122   1.260   6.975  14.622 -0.0442  0.1468 -0.1289
   17DOPE  H11R 2123   1.182   6.898  14.604 -1.6558  0.8664  3.0009
   17DOPE  H11S 2124   1.330   6.938  14.701 -0.6530  0.8053  0.7437
   17DOPE  C212 2125   1.344   7.004  14.497  0.0264 -0.1374 -0.2689
   17DOPE  H12R 2126   1.394   6.908  14.474 -2.4116 -1.4036 -0.5794
   17DOPE  H12S 2127   1.415   7.085  14.526 -0.8104  1.4001 -2.2213
   17DOPE  C213 2128   1.257   7.044  14.382  0.1125 -0.7218  0.5400
   17DOPE  H13R 2129   1.199   7.135  14.408  1.1087 -0.3468  1.5591
   17DOPE  H13S 2130   1.177   6.967  14.378 -1.2361  0.5702  1.5333
   17DOPE  C214 2131   1.333   7.041  14.246 -0.7549  0.4966 -0.9031
   17DOPE  H14R 2132   1.368   6.941  14.215 -1.0932  0.6901 -1.9446
   17DOPE  H14S 2133   1.418   7.112  14.246  0.3844 -0.7284  2.0438
   17DOPE  C215 2134   1.247   7.084  14.127  0.4956  0.0616  0.6634
   17DOPE  H15R 2135   1.212   7.188  14.150 -1.7359 -0.6940  0.9204
   17DOPE  H15S 2136   1.158   7.019  14.112 -0.8926  0.9571  4.0389
   17DOPE  C216 2137   1.327   7.096  13.996  0.2981 -0.2002 -1.0704
   17DOPE  H16R 2138   1.350   6.993  13.960 -4.6123 -2.1920  0.6016
   17DOPE  H16S 2139   1.419   7.153  14.021  0.0061 -0.1731  0.0113
   17DOPE  C217 2140   1.250   7.181  13.892 -0.5615  0.1105 -1.0776
   17DOPE  H17R 2141   1.257   7.281  13.939 -0.6098 -1.0900  1.6770
   17DOPE  H17S 2142   1.142   7.163  13.876 -0.9570 -0.4583  1.6973
   17DOPE  C218 2143   1.329   7.178  13.763 -0.4914 -0.3164 -0.0419
   17DOPE  H18R 2144   1.327   7.085  13.703  0.1341  1.0970 -2.3675
   17DOPE  H18S 2145   1.437   7.182  13.789 -0.4448  1.9322 -0.3719
   17DOPE  H18T 2146   1.306   7.268  13.703 -0.0707  0.3936  0.8451
   17DOPE   C33 2147   0.931   7.014  15.273 -0.3122 -0.3001  0.0202
   17DOPE   H3X 2148   0.964   6.920  15.226 -0.0202  0.0905 -0.5686
   17DOPE   H3Y 2149   1.020   7.063  15.318 -0.0633 -2.3998  1.9649
   17DOPE   C34 2150   0.867   7.108  15.163 -0.2048  0.1486  0.3186
   17DOPE   H4X 2151   0.824   7.202  15.203 -0.5824 -0.2026  0.7528
   17DOPE   H4Y 2152   0.953   7.139  15.101 -0.2401 -1.0509 -0.3482
   17DOPE   C35 2153   0.767   7.028  15.078  0.1573 -0.2590 -0.1820
   17DOPE   H5X 2154   0.673   7.020  15.136  2.0120 -2.6989  2.7881
   17DOPE   H5Y 2155   0.802   6.923  15.080  2.1157  0.3493 -0.3349
   17DOPE   C36 2156   0.763   7.081  14.941  0.0907  0.4749  0.0933
   17DOPE   H6X 2157   0.862   7.062  14.895  0.6970 -0.4838  1.7161
   17DOPE   H6Y 2158   0.759   7.192  14.954 -0.1395  0.2153  2.5863
   17DOPE   C37 2159   0.642   7.039  14.861 -0.0926 -0.1925 -0.0043
   17DOPE   H7X 2160   0.649   6.928  14.863  1.9286 -0.0761  0.9023
   17DOPE   H7Y 2161   0.550   7.075  14.913 -1.1574  0.8604 -2.4496
   17DOPE   C38 2162   0.632   7.082  14.720  0.2015 -1.0743  0.7364
   17DOPE   H8X 2163   0.526   7.074  14.686  0.7475  1.9925 -2.3116
   17DOPE   H8Y 2164   0.688   7.004  14.665 -1.8336 -2.0484 -0.0665
   17DOPE   C39 2165   0.698   7.221  14.692  0.5970  0.8772  0.1027
   17DOPE   H9X 2166   0.648   7.293  14.758 -0.7091  0.7258 -0.6876
   17DOPE  C310 2167   0.782   7.266  14.602  0.1990 -0.3230 -0.0353
   17DOPE  H10X 2168   0.795   7.374  14.591  0.2074 -0.1818  1.2083
   17DOPE  C311 2169   0.834   7.195  14.484  0.3221 -0.6589  0.5502
   17DOPE  H11X 2170   0.940   7.225  14.474  0.3334 -1.2850 -1.6705
   17DOPE  H11Y 2171   0.845   7.084  14.486  1.1625 -0.6008  3.6164
   17DOPE  C312 2172   0.758   7.237  14.354 -0.1312 -0.1347  0.3246
   17DOPE  H12X 2173   0.758   7.347  14.345 -1.9313 -0.0486  1.0467
   17DOPE  H12Y 2174   0.658   7.192  14.371  0.0669 -0.9666 -0.5880
   17DOPE  C313 2175   0.814   7.180  14.223  0.0207  1.0622 -0.3869
   17DOPE  H13X 2176   0.924   7.190  14.231  0.0506 -0.2979  2.1329
   17DOPE  H13Y 2177   0.797   7.070  14.224 -1.1937  1.1708  2.5303
   17DOPE  C314 2178   0.772   7.260  14.104  0.4427 -0.0300  0.9463
   17DOPE  H14X 2179   0.804   7.364  14.122  0.9149  0.1053 -0.5662
   17DOPE  H14Y 2180   0.661   7.257  14.092  0.4468  3.2585 -0.7288
   17DOPE  C315 2181   0.823   7.201  13.970 -0.2038  0.0649 -0.3016
   17DOPE  H15X 2182   0.779   7.105  13.935  1.5151 -1.2669  1.0026
   17DOPE  H15Y 2183   0.928   7.167  13.984 -1.5383 -3.8643  1.8696
   17DOPE  C316 2184   0.806   7.302  13.852  0.2112  0.4615 -0.3634
   17DOPE  H16X 2185   0.846   7.241  13.768  1.8850 -0.0152  0.7156
   17DOPE  H16Y 2186   0.871   7.388  13.877 -0.3723  0.6653  0.4869
   17DOPE  C317 2187   0.669   7.348  13.833  0.1099 -0.1209  0.2329
   17DOPE  H17X 2188   0.607   7.260  13.805  1.5724 -1.4547  1.0249
   17DOPE  H17Y 2189   0.624   7.402  13.918  0.2404  0.8785 -0.3268
   17DOPE  C318 2190   0.654   7.438  13.703  0.3044 -0.1879 -0.4098
   17DOPE  H18X 2191   0.718   7.394  13.624 -1.3379 -1.3520 -1.1214
   17DOPE  H18Y 2192   0.555   7.432  13.655  0.9414  1.2348 -1.9902
   17DOPE  H18Z 2193   0.690   7.541  13.726  3.7196 -1.7469  2.3366
   18DOPE     N 2194   5.984   3.713  16.241  0.1135 -0.0692  0.1687
   18DOPE   HN1 2195   6.024   3.626  16.201 -1.5280 -1.5496  1.5611
   18DOPE   HN2 2196   6.062   3.769  16.281  0.2763  0.8463 -1.3526
   18DOPE   HN3 2197   5.932   3.679  16.324  1.5333 -1.1352  0.6654
   18DOPE   C12 2198   5.895   3.801  16.153 -0.2801  0.0270  0.2080
   18DOPE  H12A 2199   5.961   3.829  16.068  0.9165 -0.7494  0.8427
   18DOPE  H12B 2200   5.872   3.896  16.207  1.6528  0.5066  0.2915
   18DOPE   C11 2201   5.769   3.726  16.109 -0.0329 -0.0908  0.1245
   18DOPE  H11A 2202   5.804   3.630  16.066  1.2466  0.4895 -0.1790
   18DOPE  H11B 2203   5.718   3.782  16.026  1.2943  0.3734 -0.4055
   18DOPE     P 2204   5.546   3.774  16.242  0.0037 -0.0169 -0.2883
   18DOPE   O13 2205   5.578   3.913  16.278  0.4288  0.5414 -0.2405
   18DOPE   O14 2206   5.468   3.696  16.340  0.1254  0.1558 -0.0177
   18DOPE   O11 2207   5.474   3.769  16.106  0.0197  0.4713  0.6769
   18DOPE   O12 2208   5.682   3.692  16.217 -0.1277 -0.7394 -0.1077
   18DOPE    C1 2209   5.427   3.657  16.031  0.0754 -0.1947 -0.6693
   18DOPE    HA 2210   5.317   3.661  16.042  0.1637 -1.4583  1.2093
   18DOPE    HB 2211   5.468   3.567  16.083  0.8097  1.7765  2.4053
   18DOPE    C2 2212   5.469   3.670  15.888 -0.5319  0.0063  0.0720
   18DOPE    HS 2213   5.577   3.679  15.863 -0.8665  3.1499 -0.7893
   18DOPE   O21 2214   5.402   3.781  15.830  0.7110 -0.2460 -0.3312
   18DOPE   C21 2215   5.470   3.896  15.821  0.4866  0.2595 -0.0306
   18DOPE   O22 2216   5.587   3.911  15.851 -0.0589  0.1424  0.2207
   18DOPE   C22 2217   5.385   4.003  15.766 -0.3915  0.4050 -0.4378
   18DOPE   H2R 2218   5.402   4.098  15.821  1.7103  1.0978 -2.1418
   18DOPE   H2S 2219   5.280   3.972  15.782 -0.1696  1.0814  3.0755
   18DOPE    C3 2220   5.423   3.542  15.810  0.0011  1.0713  0.0822
   18DOPE    HX 2221   5.323   3.516  15.850  0.5419 -1.9926 -0.2938
   18DOPE    HY 2222   5.491   3.459  15.840  1.4386  3.1050  3.0034
   18DOPE   O31 2223   5.434   3.553  15.666 -0.0040  0.2305  0.1639
   18DOPE   C31 2224   5.317   3.597  15.611 -0.9437 -0.4934  0.2316
   18DOPE   O32 2225   5.210   3.595  15.663  0.7066  0.2910  0.0241
   18DOPE   C32 2226   5.340   3.623  15.463 -0.5386  0.1780  1.0389
   18DOPE   H2X 2227   5.389   3.722  15.453  1.3442 -0.9585 -3.6766
   18DOPE   H2Y 2228   5.420   3.558  15.422 -0.1144  1.2002  0.1794
   18DOPE   C23 2229   5.415   4.021  15.618 -0.1195  0.8269  0.0113
   18DOPE   H3R 2230   5.424   3.929  15.556 -3.6358 -1.7441  2.8832
   18DOPE   H3S 2231   5.509   4.079  15.608 -0.1906  1.2507  1.6034
   18DOPE   C24 2232   5.315   4.118  15.560  0.0118 -0.0201  0.0029
   18DOPE   H4R 2233   5.338   4.215  15.609  3.1443  0.8157 -2.7501
   18DOPE   H4S 2234   5.214   4.081  15.587  0.5908 -0.8903  1.0720
   18DOPE   C25 2235   5.341   4.151  15.415 -0.2231  0.3489  0.0515
   18DOPE   H5R 2236   5.438   4.205  15.415  0.5465 -0.8325 -2.8060
   18DOPE   H5S 2237   5.255   4.216  15.387 -1.3636 -1.0937  0.0235
   18DOPE   C26 2238   5.343   4.040  15.297 -0.1047  0.4502 -0.4894
   18DOPE   H6R 2239   5.244   4.004  15.259  0.3566  1.3053 -2.6553
   18DOPE   H6S 2240   5.405   3.954  15.331  0.0208  1.3090  1.5365
   18DOPE   C27 2241   5.425   4.084  15.171  1.0718 -0.0634 -0.3985
   18DOPE   H7R 2242   5.524   4.126  15.198  0.6049  2.1316 -1.8906
   18DOPE   H7S 2243   5.365   4.164  15.122  0.6672 -0.3581 -0.3968
   18DOPE   C28 2244   5.442   3.968  15.067 -0.1290 -0.0510  0.1269
   18DOPE   H8R 2245   5.341   3.934  15.037  0.4783 -0.4513 -1.6369
   18DOPE   H8S 2246   5.489   3.891  15.132 -0.9381 -1.5688 -1.0171
   18DOPE   C29 2247   5.536   4.004  14.952 -0.5700 -0.2963  0.0085
   18DOPE   H9R 2248   5.643   4.017  14.975 -0.2491  0.7617 -1.8623
   18DOPE  C210 2249   5.488   4.017  14.824  0.1408 -0.4489 -0.7146
   18DOPE  H10R 2250   5.560   4.026  14.740 -1.4223 -1.2738 -2.2085
   18DOPE  C211 2251   5.341   4.006  14.788 -0.6449  0.3564  0.0812
   18DOPE  H11R 2252   5.288   4.097  14.824  1.2761  0.5739  2.6742
   18DOPE  H11S 2253   5.301   3.918  14.843  1.4570  0.5581  2.0908
   18DOPE  C212 2254   5.311   3.996  14.637  0.2085  0.0410 -0.2560
   18DOPE  H12R 2255   5.341   4.096  14.598  0.4430 -0.5406 -1.6294
   18DOPE  H12S 2256   5.200   3.986  14.628 -0.0166  1.4457  0.6466
   18DOPE  C213 2257   5.391   3.891  14.560 -0.0476 -0.1000  0.1451
   18DOPE  H13R 2258   5.345   3.793  14.583  1.6614 -1.1955 -0.8572
   18DOPE  H13S 2259   5.500   3.899  14.583 -0.0421  2.4670 -0.4226
   18DOPE  C214 2260   5.378   3.917  14.410  0.8178 -0.3363 -0.6436
   18DOPE  H14R 2261   5.407   4.017  14.371  0.3456  0.0961  0.0945
   18DOPE  H14S 2262   5.270   3.910  14.385  0.3965  2.1499  0.2330
   18DOPE  C215 2263   5.461   3.813  14.332  0.0585 -0.5517  0.3631
   18DOPE  H15R 2264   5.439   3.711  14.370 -0.6531 -1.0424 -1.2444
   18DOPE  H15S 2265   5.569   3.839  14.326 -0.2933  0.9723  0.1061
   18DOPE  C216 2266   5.423   3.798  14.188  0.3209 -0.1364 -0.1347
   18DOPE  H16R 2267   5.455   3.893  14.140  0.0415 -0.1902 -0.4290
   18DOPE  H16S 2268   5.314   3.784  14.180  0.1220  1.2336 -0.1623
   18DOPE  C217 2269   5.480   3.673  14.115  0.1753  0.6200 -0.0184
   18DOPE  H17R 2270   5.447   3.588  14.178  1.4970  1.1516  1.4641
   18DOPE  H17S 2271   5.590   3.683  14.125 -0.0561  0.4663  4.5781
   18DOPE  C218 2272   5.436   3.674  13.968  0.0900  0.4308 -0.8417
   18DOPE  H18R 2273   5.454   3.780  13.938 -1.2462  1.1391  0.7050
   18DOPE  H18S 2274   5.327   3.654  13.963  0.5078 -2.2312 -0.4196
   18DOPE  H18T 2275   5.488   3.601  13.902 -1.3602 -1.4635  0.0277
   18DOPE   C33 2276   5.218   3.595  15.372 -0.0165 -0.4454  0.5505
   18DOPE   H3X 2277   5.130   3.652  15.409  0.8275  0.5868  1.0228
   18DOPE   H3Y 2278   5.187   3.488  15.362 -3.1532  0.5598 -1.8363
   18DOPE   C34 2279   5.246   3.650  15.228 -0.2195  0.0428 -0.6443
   18DOPE   H4X 2280   5.228   3.759  15.218  2.1761  0.5257 -0.3121
   18DOPE   H4Y 2281   5.351   3.629  15.200 -0.0552  0.1129 -0.0976
   18DOPE   C35 2282   5.147   3.589  15.127 -0.0838  0.8245 -0.5937
   18DOPE   H5X 2283   5.047   3.623  15.160  0.2349  0.6665  0.5709
   18DOPE   H5Y 2284   5.151   3.480  15.147  3.7133  0.7320 -1.0806
   18DOPE   C36 2285   5.171   3.623  14.988 -0.5556  0.2481 -0.5754
   18DOPE   H6X 2286   5.272   3.587  14.962  0.6501  0.6894  2.9364
   18DOPE   H6Y 2287   5.180   3.733  14.973  0.5114  0.5357  1.6472
   18DOPE   C37 2288   5.067   3.575  14.891 -0.2551 -0.8168 -0.3718
   18DOPE   H7X 2289   5.064   3.464  14.899 -1.5749 -0.6819  1.7602
   18DOPE   H7Y 2290   4.972   3.615  14.933 -0.1572  0.7668 -1.5744
   18DOPE   C38 2291   5.099   3.604  14.742  0.1389 -0.2832  0.0546
   18DOPE   H8X 2292   5.175   3.526  14.719  0.8281  0.1651  0.7843
   18DOPE   H8Y 2293   5.140   3.707  14.736 -1.3217  0.3344  0.1479
   18DOPE   C39 2294   4.988   3.595  14.640  0.3121 -0.0280  0.1711
   18DOPE   H9X 2295   4.885   3.595  14.680 -0.9285 -1.8491 -2.7032
   18DOPE  C310 2296   5.000   3.575  14.507  0.4288 -0.0639 -0.1853
   18DOPE  H10X 2297   4.902   3.573  14.457  0.5700 -2.4911 -0.4794
   18DOPE  C311 2298   5.120   3.561  14.421 -0.2103  0.2356 -0.1269
   18DOPE  H11X 2299   5.212   3.605  14.465 -0.4503  0.9251 -0.3036
   18DOPE  H11Y 2300   5.156   3.456  14.416  1.0032  0.5575  1.2867
   18DOPE  C312 2301   5.114   3.625  14.278  0.4908  0.3663 -0.0368
   18DOPE  H12X 2302   5.206   3.608  14.218 -0.8630 -3.1134 -1.4191
   18DOPE  H12Y 2303   5.091   3.733  14.290 -1.8991 -0.2587  1.7653
   18DOPE  C313 2304   5.000   3.560  14.188 -0.4491  0.0332 -0.0452
   18DOPE  H13X 2305   4.909   3.560  14.253 -1.3030 -0.1859 -1.2126
   18DOPE  H13Y 2306   4.981   3.613  14.092  0.5946  2.1922  0.8745
   18DOPE  C314 2307   5.030   3.407  14.164 -0.3224  0.4888  0.5371
   18DOPE  H14X 2308   5.022   3.358  14.263  0.4047  1.5593  1.1497
   18DOPE  H14Y 2309   5.137   3.393  14.138 -0.7454 -3.1186  0.3686
   18DOPE  C315 2310   4.929   3.346  14.065  0.8932  0.4380 -0.1839
   18DOPE  H15X 2311   4.963   3.241  14.051  1.2410  0.0656  2.7394
   18DOPE  H15Y 2312   4.931   3.399  13.968  1.3027  2.0216  0.6429
   18DOPE  C316 2313   4.779   3.351  14.115 -0.2952 -0.0650 -0.0668
   18DOPE  H16X 2314   4.744   3.451  14.147  1.1629  1.1044 -1.8746
   18DOPE  H16Y 2315   4.763   3.278  14.197 -0.4495 -0.1704 -0.1909
   18DOPE  C317 2316   4.677   3.292  14.016 -0.2547  0.5139 -0.0530
   18DOPE  H17X 2317   4.723   3.199  13.976 -1.0055  1.0264 -2.2689
   18DOPE  H17Y 2318   4.574   3.281  14.055  0.6441 -4.0989  1.5923
   18DOPE  C318 2319   4.657   3.380  13.887 -0.3784 -0.7062 -0.1588
   18DOPE  H18X 2320   4.593   3.336  13.807  0.2596  1.2872 -1.8627
   18DOPE  H18Y 2321   4.620   3.475  13.931  0.7733 -0.1536 -0.3480
   18DOPE  H18Z 2322   4.754   3.407  13.839 -0.9804  1.4942 -0.2593
   19DOPE     N 2323   5.780   5.055  15.946  0.0110 -0.2919 -0.5204
   19DOPE   HN1 2324   5.863   4.997  15.968 -1.4334 -2.7342 -1.1593
   19DOPE   HN2 2325   5.804   5.153  15.919 -1.5553  0.2196 -0.1421
   19DOPE   HN3 2326   5.733   5.066  16.038 -2.2669 -0.8706 -1.5379
   19DOPE   C12 2327   5.687   4.999  15.841 -0.5397 -1.1583 -1.0434
   19DOPE  H12A 2328   5.741   5.003  15.744 -0.2218  0.3649 -0.8376
   19DOPE  H12B 2329   5.599   5.067  15.833 -0.2549 -0.7920 -1.1079
   19DOPE   C11 2330   5.650   4.855  15.880  0.9914 -0.0076 -0.4358
   19DOPE  H11A 2331   5.733   4.788  15.849  0.1525 -1.1856 -0.1902
   19DOPE  H11B 2332   5.561   4.826  15.820 -0.2207  1.7376  0.4333
   19DOPE     P 2333   5.635   4.703  16.086  0.0442  0.0209 -0.1549
   19DOPE   O13 2334   5.564   4.700  16.214 -0.5680 -0.2478  0.1631
   19DOPE   O14 2335   5.779   4.688  16.089 -0.1629  0.8870 -0.9161
   19DOPE   O11 2336   5.568   4.610  15.974  0.0547  0.5517 -0.5396
   19DOPE   O12 2337   5.605   4.846  16.017 -0.5649  0.4909 -0.3935
   19DOPE    C1 2338   5.589   4.468  15.995 -0.1587 -0.5037 -0.4242
   19DOPE    HA 2339   5.572   4.445  16.103  0.4004 -0.9429 -0.4252
   19DOPE    HB 2340   5.694   4.439  15.970 -0.4588 -0.9478 -1.1663
   19DOPE    C2 2341   5.474   4.390  15.913  0.6061 -0.2505 -0.0782
   19DOPE    HS 2342   5.489   4.281  15.930  1.2646  0.0006  1.1132
   19DOPE   O21 2343   5.489   4.414  15.774  0.2236  0.2893 -0.1410
   19DOPE   C21 2344   5.602   4.381  15.719  0.1992  0.1172  0.8462
   19DOPE   O22 2345   5.678   4.294  15.748 -0.1514 -0.1892 -0.4307
   19DOPE   C22 2346   5.615   4.448  15.581 -0.6498 -0.2279  0.2204
   19DOPE   H2R 2347   5.643   4.555  15.589 -1.4829  0.1459 -1.5279
   19DOPE   H2S 2348   5.518   4.434  15.529 -0.3985 -0.2474 -0.2491
   19DOPE    C3 2349   5.330   4.430  15.951  0.3965 -0.3618 -0.5460
   19DOPE    HX 2350   5.330   4.541  15.961  1.2269 -0.4383  0.4567
   19DOPE    HY 2351   5.303   4.396  16.053  1.8358 -2.2970 -0.7638
   19DOPE   O31 2352   5.235   4.374  15.858  0.3265 -0.2615 -0.0357
   19DOPE   C31 2353   5.107   4.394  15.886  0.3827  0.2520 -0.0907
   19DOPE   O32 2354   5.061   4.468  15.973 -0.7080 -0.0598  0.4577
   19DOPE   C32 2355   5.018   4.298  15.794  0.3517  0.2424  0.1903
   19DOPE   H2X 2356   5.083   4.225  15.743 -1.1908 -1.1758  0.1645
   19DOPE   H2Y 2357   4.952   4.240  15.863 -1.4205 -1.0296 -2.4370
   19DOPE   C23 2358   5.706   4.359  15.496 -0.2175 -0.1512  0.3645
   19DOPE   H3R 2359   5.670   4.255  15.480 -1.0778  0.3207 -0.9538
   19DOPE   H3S 2360   5.812   4.366  15.527 -0.1011 -2.1222  0.5098
   19DOPE   C24 2361   5.705   4.417  15.347  0.4151 -0.6845 -0.3532
   19DOPE   H4R 2362   5.759   4.514  15.353  0.5018 -0.6310 -1.6595
   19DOPE   H4S 2363   5.598   4.434  15.324  0.7898  0.9919 -0.9841
   19DOPE   C25 2364   5.775   4.326  15.246  0.2890 -0.1511 -0.2131
   19DOPE   H5R 2365   5.712   4.236  15.228 -1.7413  1.4195 -1.5896
   19DOPE   H5S 2366   5.877   4.299  15.279  1.3229  0.4940 -2.6787
   19DOPE   C26 2367   5.804   4.379  15.108  0.0827 -0.0714  1.1078
   19DOPE   H6R 2368   5.868   4.303  15.058  0.6369  1.0294  0.1100
   19DOPE   H6S 2369   5.855   4.477  15.101 -2.6225  1.4296  1.2830
   19DOPE   C27 2370   5.677   4.377  15.014 -0.3296 -0.4117 -0.0711
   19DOPE   H7R 2371   5.604   4.453  15.050 -1.0358 -1.3637  0.5478
   19DOPE   H7S 2372   5.623   4.284  15.039 -1.0892 -0.2383 -1.0062
   19DOPE   C28 2373   5.712   4.375  14.866  0.7487  0.1785 -0.3120
   19DOPE   H8R 2374   5.787   4.293  14.867 -0.1979 -0.7245 -0.0759
   19DOPE   H8S 2375   5.762   4.471  14.842 -0.7778  1.0489 -0.1674
   19DOPE   C29 2376   5.587   4.355  14.782  0.4447  0.3555 -0.3657
   19DOPE   H9R 2377   5.501   4.311  14.835  0.7686 -2.2575 -1.8290
   19DOPE  C210 2378   5.572   4.384  14.651  0.3300 -0.3302 -0.6940
   19DOPE  H10R 2379   5.478   4.363  14.598  0.2885  0.1192 -0.8027
   19DOPE  C211 2380   5.674   4.434  14.557 -0.5339  0.1674 -0.8348
   19DOPE  H11R 2381   5.778   4.432  14.596 -0.5776 -0.8262 -0.7371
   19DOPE  H11S 2382   5.653   4.537  14.522  1.4090 -0.1687 -3.2053
   19DOPE  C212 2383   5.672   4.349  14.429  0.3708 -0.9513  0.1922
   19DOPE  H12R 2384   5.690   4.243  14.455 -1.5080 -1.8158 -1.7651
   19DOPE  H12S 2385   5.760   4.381  14.369 -0.5416  2.1005  0.3029
   19DOPE  C213 2386   5.552   4.364  14.341 -0.0054  0.0860  0.4473
   19DOPE  H13R 2387   5.528   4.470  14.316 -0.9604  0.2798  2.0904
   19DOPE  H13S 2388   5.463   4.329  14.397 -0.1538  1.1071  0.8796
   19DOPE  C214 2389   5.556   4.313  14.198  0.1325 -0.2886  0.3535
   19DOPE  H14R 2390   5.610   4.382  14.130 -3.5440  0.4049 -2.1759
   19DOPE  H14S 2391   5.453   4.318  14.156 -0.0253  1.0665  0.8735
   19DOPE  C215 2392   5.614   4.172  14.180 -0.0394  0.1255  0.2620
   19DOPE  H15R 2393   5.566   4.099  14.248 -1.2708  0.5227 -0.1646
   19DOPE  H15S 2394   5.717   4.180  14.220 -1.0108  1.7247  2.6225
   19DOPE  C216 2395   5.622   4.115  14.036  0.7187  0.2825  0.1513
   19DOPE  H16R 2396   5.518   4.101  14.000  0.5442 -0.0056  0.7603
   19DOPE  H16S 2397   5.664   4.015  14.056  0.2456 -0.3134 -1.6727
   19DOPE  C217 2398   5.706   4.183  13.933 -0.3883 -0.1319  0.4658
   19DOPE  H17R 2399   5.788   4.236  13.987 -0.2999  2.1576 -1.7133
   19DOPE  H17S 2400   5.638   4.261  13.894  0.6818  0.1431 -0.9334
   19DOPE  C218 2401   5.743   4.092  13.822  0.0680 -0.0743  0.1454
   19DOPE  H18R 2402   5.806   4.144  13.747 -1.9456  1.4074 -0.6022
   19DOPE  H18S 2403   5.650   4.050  13.778  0.5672 -2.9760  1.6209
   19DOPE  H18T 2404   5.802   4.008  13.864 -0.0925  0.2028  0.9342
   19DOPE   C33 2405   4.918   4.375  15.699 -0.4408 -0.6684 -0.3441
   19DOPE   H3X 2406   4.859   4.452  15.755 -1.9499 -2.4898  0.6824
   19DOPE   H3Y 2407   4.848   4.301  15.657 -0.4774 -0.7461 -0.1495
   19DOPE   C34 2408   4.978   4.451  15.579  0.1716 -0.2012 -0.1522
   19DOPE   H4X 2409   4.902   4.517  15.532  0.7673  1.6088  1.2996
   19DOPE   H4Y 2410   5.055   4.524  15.611  0.1687 -0.2629 -0.0055
   19DOPE   C35 2411   5.040   4.365  15.471 -0.3539  0.4168 -0.0391
   19DOPE   H5X 2412   4.966   4.293  15.430  0.3376 -0.4100  0.1243
   19DOPE   H5Y 2413   5.121   4.312  15.525 -3.0018 -1.5848  2.3336
   19DOPE   C36 2414   5.087   4.462  15.366 -0.1095  0.1300  0.3229
   19DOPE   H6X 2415   5.171   4.439  15.297 -0.6215  1.4300 -0.7730
   19DOPE   H6Y 2416   5.126   4.552  15.418  0.8984  1.0844 -1.9353
   19DOPE   C37 2417   4.977   4.502  15.261  0.2680  0.4000  0.0479
   19DOPE   H7X 2418   4.893   4.539  15.323  0.4938  0.9489  0.0331
   19DOPE   H7Y 2419   5.015   4.586  15.199  0.7731 -0.2214 -0.5108
   19DOPE   C38 2420   4.917   4.391  15.179  0.1992  0.5091 -0.7722
   19DOPE   H8X 2421   4.839   4.422  15.107 -0.8816  0.5451  0.3883
   19DOPE   H8Y 2422   4.867   4.316  15.245  0.4377  0.9859 -0.0341
   19DOPE   C39 2423   5.025   4.326  15.091 -0.5091  0.0690 -0.8955
   19DOPE   H9X 2424   5.101   4.272  15.149 -0.3566  1.4635  0.2588
   19DOPE  C310 2425   5.056   4.352  14.962  0.2875  0.5148  0.8439
   19DOPE  H10X 2426   5.136   4.291  14.915 -1.4571 -2.3529  1.3855
   19DOPE  C311 2427   4.989   4.435  14.849 -0.1726  0.4490 -1.3835
   19DOPE  H11X 2428   4.893   4.480  14.882 -0.3116 -0.5647 -0.3257
   19DOPE  H11Y 2429   5.063   4.514  14.822 -1.3368  2.6085  1.2740
   19DOPE  C312 2430   4.944   4.350  14.725  0.4245 -0.1635  0.1076
   19DOPE  H12X 2431   4.874   4.418  14.672 -0.2216 -0.9939 -0.1337
   19DOPE  H12Y 2432   4.874   4.269  14.754 -2.2433  1.4524 -1.3915
   19DOPE  C313 2433   5.055   4.313  14.631  0.2698  0.1843 -0.3246
   19DOPE  H13X 2434   5.108   4.404  14.597 -0.8477  0.2410 -2.0163
   19DOPE  H13Y 2435   5.135   4.259  14.686 -0.1644  0.2311  0.3768
   19DOPE  C314 2436   5.011   4.239  14.501 -0.7111  0.6542  0.4742
   19DOPE  H14X 2437   4.936   4.293  14.440 -1.1575  0.6844  1.0346
   19DOPE  H14Y 2438   4.971   4.139  14.529 -0.4629 -0.2182 -2.0385
   19DOPE  C315 2439   5.128   4.213  14.401  0.4549 -0.1237  0.3660
   19DOPE  H15X 2440   5.214   4.159  14.445  0.6355 -0.3534 -0.2580
   19DOPE  H15Y 2441   5.171   4.309  14.366 -1.2400 -0.0898 -1.8990
   19DOPE  C316 2442   5.078   4.133  14.271  0.9227  0.4033 -0.1267
   19DOPE  H16X 2443   4.995   4.189  14.224  1.0421 -1.4922 -2.8570
   19DOPE  H16Y 2444   5.037   4.034  14.300  1.9166 -0.5912 -1.8992
   19DOPE  C317 2445   5.176   4.117  14.157 -0.3371  0.5833  0.4199
   19DOPE  H17X 2446   5.244   4.205  14.154  0.4780  0.0204  1.5516
   19DOPE  H17Y 2447   5.235   4.029  14.193 -0.1468  1.4065  2.1763
   19DOPE  C318 2448   5.103   4.087  14.028  0.2474 -0.4875  0.1030
   19DOPE  H18X 2449   5.162   4.019  13.962  1.1383  1.0069 -0.6939
   19DOPE  H18Y 2450   5.013   4.024  14.045  0.1819 -0.1940  0.8968
   19DOPE  H18Z 2451   5.077   4.179  13.971  0.0578  0.4392  1.6363
   20DOPE     N 2452   2.691   0.668  15.973 -0.3568 -0.9871 -0.5469
   20DOPE   HN1 2453   2.763   0.729  16.018 -0.1087 -0.6506 -1.3796
   20DOPE   HN2 2454   2.594   0.702  15.990  0.0514 -0.1999  0.3555
   20DOPE   HN3 2455   2.716   0.575  16.012 -0.1237 -0.2578  1.1766
   20DOPE   C12 2456   2.714   0.678  15.821  0.0419 -0.4084  0.0877
   20DOPE  H12A 2457   2.706   0.783  15.784  1.9233 -1.3391 -3.3642
   20DOPE  H12B 2458   2.628   0.619  15.785 -0.9027  0.2826  1.1189
   20DOPE   C11 2459   2.853   0.628  15.774 -0.3505  0.0326 -0.2786
   20DOPE  H11A 2460   2.859   0.636  15.664  3.7498  1.3749 -0.1412
   20DOPE  H11B 2461   2.863   0.521  15.803  1.7358  0.4055  0.5866
   20DOPE     P 2462   3.115   0.727  15.799 -0.1828 -0.7252  0.0240
   20DOPE   O13 2463   3.185   0.596  15.828  0.3757 -0.1957 -0.2772
   20DOPE   O14 2464   3.174   0.843  15.869  0.1228 -0.5483 -0.1642
   20DOPE   O11 2465   3.100   0.756  15.642  0.4459  0.5336  0.0400
   20DOPE   O12 2466   2.960   0.719  15.828  0.3944  0.1270  0.3003
   20DOPE    C1 2467   3.048   0.881  15.602 -0.0785 -0.1414  0.4204
   20DOPE    HA 2468   3.087   0.964  15.666 -1.2328 -1.2697  2.7036
   20DOPE    HB 2469   2.939   0.885  15.622 -0.1731 -0.8788  0.0643
   20DOPE    C2 2470   3.082   0.909  15.452 -0.4786  0.1298 -0.1916
   20DOPE    HS 2471   3.191   0.912  15.429 -0.3818 -1.3702 -0.0427
   20DOPE   O21 2472   3.030   1.029  15.413  0.5956 -0.1898  0.0675
   20DOPE   C21 2473   3.108   1.134  15.439  0.0637  0.6164 -0.0273
   20DOPE   O22 2474   3.232   1.133  15.459 -0.0127  0.5018 -0.0847
   20DOPE   C22 2475   3.022   1.260  15.450 -0.6183 -0.5060 -0.8694
   20DOPE   H2R 2476   3.063   1.305  15.543  0.4000 -3.0456  0.0188
   20DOPE   H2S 2477   2.914   1.238  15.463 -0.3605 -0.4035  2.3656
   20DOPE    C3 2478   3.032   0.788  15.357  0.5391  0.3038  0.1174
   20DOPE    HX 2479   2.927   0.769  15.390  0.4614  1.3501  0.5044
   20DOPE    HY 2480   3.091   0.701  15.392  0.5111  0.9899  2.0043
   20DOPE   O31 2481   3.042   0.808  15.215 -0.0589  0.0626  0.5259
   20DOPE   C31 2482   2.932   0.792  15.143  0.0570 -0.9188 -0.6621
   20DOPE   O32 2483   2.820   0.763  15.182 -0.2620  0.1456 -0.2534
   20DOPE   C32 2484   2.961   0.813  14.991  0.2887 -0.0978 -0.7055
   20DOPE   H2X 2485   2.964   0.923  14.976  1.0426  0.1060  0.7427
   20DOPE   H2Y 2486   3.059   0.762  14.972  0.6748 -0.7590  2.5813
   20DOPE   C23 2487   3.060   1.343  15.328 -0.4354 -0.0528 -1.7131
   20DOPE   H3R 2488   3.168   1.368  15.316  0.3714 -3.3726 -2.3034
   20DOPE   H3S 2489   2.998   1.432  15.352  0.8776  0.1552  1.5066
   20DOPE   C24 2490   3.006   1.277  15.205 -0.4643  0.6491 -0.0014
   20DOPE   H4R 2491   2.903   1.243  15.228  0.6957 -3.6203 -0.3895
   20DOPE   H4S 2492   3.060   1.184  15.178 -0.5319  0.7571 -0.5302
   20DOPE   C25 2493   2.993   1.373  15.089  1.0063 -0.0301  0.4900
   20DOPE   H5R 2494   3.091   1.422  15.068  0.9830 -0.6021 -1.0270
   20DOPE   H5S 2495   2.927   1.454  15.125 -1.0795 -2.0741  1.4994
   20DOPE   C26 2496   2.936   1.313  14.955  0.2632  0.0303 -0.1423
   20DOPE   H6R 2497   2.825   1.312  14.956  0.2405  0.4273  2.1162
   20DOPE   H6S 2498   2.977   1.212  14.933 -0.4082 -0.6114  1.4196
   20DOPE   C27 2499   2.978   1.406  14.845  0.0138  0.8355  0.1326
   20DOPE   H7R 2500   3.089   1.404  14.845  0.0374  0.9514 -1.2491
   20DOPE   H7S 2501   2.953   1.509  14.879 -0.0014  0.6532  0.6776
   20DOPE   C28 2502   2.911   1.375  14.707 -0.0443  0.6370 -0.0409
   20DOPE   H8R 2503   2.802   1.398  14.718  0.0502  0.2852  2.1342
   20DOPE   H8S 2504   2.921   1.265  14.695  1.0173  0.8437 -1.1470
   20DOPE   C29 2505   2.976   1.444  14.601  0.2713 -0.4422 -0.3118
   20DOPE   H9R 2506   3.056   1.511  14.637 -0.1172 -1.3671  2.5484
   20DOPE  C210 2507   2.960   1.424  14.468  0.2573 -0.4185 -0.1890
   20DOPE  H10R 2508   3.038   1.461  14.401  0.5689 -1.5997 -0.5045
   20DOPE  C211 2509   2.860   1.329  14.411  0.4604  0.7918 -0.0192
   20DOPE  H11R 2510   2.789   1.282  14.482 -1.2023  2.0638 -0.7809
   20DOPE  H11S 2511   2.922   1.250  14.363  0.7774  0.8899  0.2226
   20DOPE  C212 2512   2.784   1.391  14.290  0.2865  0.5579 -0.2056
   20DOPE  H12R 2513   2.728   1.483  14.315 -3.0918 -0.7208 -2.3184
   20DOPE  H12S 2514   2.709   1.317  14.254  1.7078 -0.9323 -0.1950
   20DOPE  C213 2515   2.875   1.428  14.177 -0.3063  0.1129 -0.5409
   20DOPE  H13R 2516   2.955   1.351  14.183  0.2436  0.7912  1.9544
   20DOPE  H13S 2517   2.922   1.526  14.202  0.9745 -0.5750 -0.1766
   20DOPE  C214 2518   2.809   1.428  14.043 -0.2960  0.1767  0.1972
   20DOPE  H14R 2519   2.746   1.342  14.012  0.0306  0.6673 -2.0374
   20DOPE  H14S 2520   2.891   1.438  13.969  0.4849 -0.4904  0.9523
   20DOPE  C215 2521   2.716   1.547  14.018  0.4167  0.2653  0.5192
   20DOPE  H15R 2522   2.765   1.646  14.033 -0.3797  0.8909 -0.7611
   20DOPE  H15S 2523   2.633   1.551  14.091 -0.6929  0.7982 -0.7210
   20DOPE  C216 2524   2.667   1.547  13.872  0.5230  0.0432  0.0425
   20DOPE  H16R 2525   2.626   1.447  13.844  0.7245 -0.2837  0.8845
   20DOPE  H16S 2526   2.762   1.549  13.814 -0.0669 -0.4651 -0.9517
   20DOPE  C217 2527   2.574   1.666  13.853 -0.7972  0.2943  0.1686
   20DOPE  H17R 2528   2.619   1.764  13.881  2.2728 -0.5728 -1.3121
   20DOPE  H17S 2529   2.480   1.659  13.913 -0.6111  1.9852  0.7225
   20DOPE  C218 2530   2.526   1.684  13.711  0.1195 -0.3314 -0.0349
   20DOPE  H18R 2531   2.596   1.690  13.625 -1.7195 -1.0526 -1.6643
   20DOPE  H18S 2532   2.459   1.771  13.699 -1.2882 -1.5784 -1.7460
   20DOPE  H18T 2533   2.455   1.604  13.681  0.3971  0.4696 -3.1999
   20DOPE   C33 2534   2.849   0.755  14.905  0.5981 -0.1790  0.5563
   20DOPE   H3X 2535   2.751   0.804  14.926  1.0172  0.9105  0.0626
   20DOPE   H3Y 2536   2.831   0.648  14.927  0.4840 -1.1429 -3.4235
   20DOPE   C34 2537   2.895   0.758  14.759 -0.7104  0.1121 -0.1759
   20DOPE   H4X 2538   2.993   0.706  14.750  0.0663  1.3602  0.8014
   20DOPE   H4Y 2539   2.818   0.700  14.705 -0.6518  0.7717 -0.9834
   20DOPE   C35 2540   2.921   0.899  14.706  0.3826  0.4838 -0.5873
   20DOPE   H5X 2541   3.029   0.918  14.719  0.7307 -1.4229 -0.4726
   20DOPE   H5Y 2542   2.870   0.971  14.775  0.1425 -1.1195  0.9768
   20DOPE   C36 2543   2.872   0.923  14.561 -0.2077 -0.4524  0.4162
   20DOPE   H6X 2544   2.895   1.031  14.549 -0.7401 -0.2557  1.1138
   20DOPE   H6Y 2545   2.762   0.910  14.553 -0.1891 -0.0579 -0.5013
   20DOPE   C37 2546   2.935   0.837  14.446 -0.5468  0.9541 -0.0316
   20DOPE   H7X 2547   3.044   0.854  14.431 -0.5658 -0.5457 -2.4294
   20DOPE   H7Y 2548   2.913   0.735  14.486  0.0598  0.6561 -0.4429
   20DOPE   C38 2549   2.859   0.850  14.318  0.0498 -0.2263  0.1125
   20DOPE   H8X 2550   2.755   0.888  14.331 -0.0081  0.0534 -1.0681
   20DOPE   H8Y 2551   2.855   0.749  14.273  0.7605  0.9692 -2.8111
   20DOPE   C39 2552   2.929   0.943  14.216  0.6101  0.3059  0.3622
   20DOPE   H9X 2553   3.033   0.962  14.245  1.0525 -1.9514  0.3751
   20DOPE  C310 2554   2.880   1.003  14.106 -0.3298 -0.0434 -0.3235
   20DOPE  H10X 2555   2.958   1.056  14.049 -0.6303 -0.3342 -1.0144
   20DOPE  C311 2556   2.737   0.985  14.050 -0.4152 -0.2508  0.5052
   20DOPE  H11X 2557   2.697   0.887  14.084  0.3140 -0.8596 -0.3519
   20DOPE  H11Y 2558   2.680   1.074  14.083 -2.8765 -1.0874 -1.2307
   20DOPE  C312 2559   2.735   0.974  13.895 -0.2175  0.1515 -0.1966
   20DOPE  H12X 2560   2.745   1.073  13.847  0.0054  0.1054 -0.2450
   20DOPE  H12Y 2561   2.636   0.929  13.869 -0.7856 -0.9597  3.3419
   20DOPE  C313 2562   2.841   0.879  13.832 -0.1432 -0.4584 -0.5190
   20DOPE  H13X 2563   2.940   0.918  13.864  0.1311 -0.8069 -0.9293
   20DOPE  H13Y 2564   2.831   0.781  13.882 -0.2513  1.4527  3.6080
   20DOPE  C314 2565   2.830   0.883  13.680  0.3364  1.0744 -0.9253
   20DOPE  H14X 2566   2.839   0.987  13.641 -0.0392  1.0982 -0.9577
   20DOPE  H14Y 2567   2.736   0.834  13.643  0.3354  1.5489 -1.5747
   20DOPE  C315 2568   2.946   0.800  13.616 -0.3182  0.3433  0.2097
   20DOPE  H15X 2569   2.926   0.808  13.506  1.4345 -1.2387 -0.2733
   20DOPE  H15Y 2570   2.940   0.692  13.644 -3.3315  0.1930 -0.5803
   20DOPE  C316 2571   3.086   0.855  13.627 -0.1114 -0.1828 -0.9608
   20DOPE  H16X 2572   3.128   0.828  13.727  1.5951 -2.4853 -2.2083
   20DOPE  H16Y 2573   3.086   0.965  13.611  2.0837 -0.1469 -1.1231
   20DOPE  C317 2574   3.185   0.788  13.534 -0.3024 -0.0931  0.1755
   20DOPE  H17X 2575   3.286   0.823  13.562 -0.2723  1.0547 -1.2489
   20DOPE  H17Y 2576   3.187   0.681  13.566  0.4313  0.2715  1.4003
   20DOPE  C318 2577   3.173   0.804  13.384 -0.1897 -0.3382 -0.0738
   20DOPE  H18X 2578   3.177   0.911  13.354 -1.2790 -0.2861 -0.0682
   20DOPE  H18Y 2579   3.256   0.752  13.332  0.6517  0.7950  0.1049
   20DOPE  H18Z 2580   3.077   0.762  13.346 -0.4020  0.1760 -0.1171
   21DOPE     N 2581   1.236   1.407  16.402 -0.2270  0.3211  0.2635
   21DOPE   HN1 2582   1.133   1.400  16.415 -0.8118 -0.9414 -3.7220
   21DOPE   HN2 2583   1.279   1.314  16.386  1.3753  1.5581 -3.8089
   21DOPE   HN3 2584   1.273   1.451  16.489 -1.2042 -0.2134  0.9667
   21DOPE   C12 2585   1.267   1.473  16.273 -0.2120  0.2020  0.3739
   21DOPE  H12A 2586   1.375   1.494  16.261 -0.4438  1.6629  0.5704
   21DOPE  H12B 2587   1.202   1.563  16.260 -1.7025 -0.9834 -0.7827
   21DOPE   C11 2588   1.233   1.393  16.153  0.2338 -0.2801 -0.0145
   21DOPE  H11A 2589   1.272   1.449  16.064  1.3393 -1.0372 -0.0321
   21DOPE  H11B 2590   1.127   1.391  16.121 -0.1630 -1.0244  1.2837
   21DOPE     P 2591   1.433   1.227  16.127  0.5599 -0.0959 -0.0100
   21DOPE   O13 2592   1.446   1.081  16.104  0.2155  0.5406  0.2607
   21DOPE   O14 2593   1.517   1.280  16.235  0.4678  0.3068 -0.2890
   21DOPE   O11 2594   1.467   1.303  16.001  0.3841  0.5514 -0.0020
   21DOPE   O12 2595   1.281   1.260  16.153 -0.0386  0.4019  0.0639
   21DOPE    C1 2596   1.554   1.262  15.900  0.0934  0.2221 -0.4538
   21DOPE    HA 2597   1.585   1.155  15.907 -0.2078 -0.0111 -2.1772
   21DOPE    HB 2598   1.641   1.330  15.910 -2.3862  3.8669 -1.9401
   21DOPE    C2 2599   1.490   1.284  15.754  0.0046 -0.0679  0.1719
   21DOPE    HS 2600   1.571   1.277  15.679 -0.6739 -2.6643 -0.4268
   21DOPE   O21 2601   1.411   1.406  15.749 -0.4448  0.0180  0.3077
   21DOPE   C21 2602   1.478   1.517  15.737  0.1681 -0.3659 -0.1190
   21DOPE   O22 2603   1.594   1.536  15.760 -0.1955 -0.1326  0.0708
   21DOPE   C22 2604   1.383   1.628  15.684 -0.2442  0.1555 -0.1834
   21DOPE   H2R 2605   1.297   1.641  15.753 -0.4906 -1.3186 -0.1818
   21DOPE   H2S 2606   1.340   1.587  15.590  1.2503  0.5069 -1.0526
   21DOPE    C3 2607   1.390   1.165  15.733 -0.2708  0.0425  0.3089
   21DOPE    HX 2608   1.298   1.199  15.787  1.0957  2.0702  1.4931
   21DOPE    HY 2609   1.431   1.071  15.775  1.8696  1.3202  1.2107
   21DOPE   O31 2610   1.358   1.146  15.594  0.1460  0.1187  0.2985
   21DOPE   C31 2611   1.445   1.075  15.530 -0.0196  0.3596  0.6766
   21DOPE   O32 2612   1.525   1.006  15.586  0.1162 -0.0726  0.2668
   21DOPE   C32 2613   1.412   1.078  15.374  0.3375 -0.6235 -0.1787
   21DOPE   H2X 2614   1.318   1.019  15.363 -0.5918  0.7347  0.1928
   21DOPE   H2Y 2615   1.412   1.184  15.343  2.4429  0.6623  3.5448
   21DOPE   C23 2616   1.455   1.758  15.641  0.3255 -0.0382  0.4444
   21DOPE   H3R 2617   1.558   1.732  15.610  0.4733  1.1321 -0.1105
   21DOPE   H3S 2618   1.444   1.844  15.711 -4.1827  1.1643 -1.3620
   21DOPE   C24 2619   1.391   1.808  15.509 -0.2079 -0.5156  0.2621
   21DOPE   H4R 2620   1.284   1.833  15.530  0.6223  0.7194  3.7811
   21DOPE   H4S 2621   1.394   1.729  15.432  0.5234  1.2604 -1.6087
   21DOPE   C25 2622   1.455   1.933  15.443 -0.7883  0.3765  0.7748
   21DOPE   H5R 2623   1.564   1.933  15.465 -0.7566  0.1320  0.6227
   21DOPE   H5S 2624   1.432   2.020  15.509 -0.5015  1.2383 -0.2464
   21DOPE   C26 2625   1.416   1.956  15.295  0.3879 -0.6523 -0.0101
   21DOPE   H6R 2626   1.442   1.861  15.242  1.9771  0.3843 -1.1996
   21DOPE   H6S 2627   1.486   2.031  15.253 -1.1276  0.6485 -0.3172
   21DOPE   C27 2628   1.270   1.986  15.270 -0.1730  0.5127 -0.8910
   21DOPE   H7R 2629   1.247   2.087  15.310  1.2512  0.8814 -0.9374
   21DOPE   H7S 2630   1.198   1.915  15.315  0.2262  0.6155 -0.0673
   21DOPE   C28 2631   1.237   1.988  15.118  0.1553  0.2415  0.0219
   21DOPE   H8R 2632   1.311   2.053  15.066 -0.3771  1.2979  0.5558
   21DOPE   H8S 2633   1.143   2.046  15.105 -0.5200 -0.5705  1.1147
   21DOPE   C29 2634   1.219   1.850  15.056 -0.7565 -0.3009  0.0116
   21DOPE   H9R 2635   1.140   1.792  15.106 -1.5470  1.4835  0.9420
   21DOPE  C210 2636   1.289   1.791  14.959 -0.9657  0.0305 -0.1460
   21DOPE  H10R 2637   1.280   1.684  14.932 -0.7833  0.3271 -1.4731
   21DOPE  C211 2638   1.408   1.860  14.897  0.3239  0.2785  0.8844
   21DOPE  H11R 2639   1.497   1.794  14.905  0.2462 -0.1714 -1.3257
   21DOPE  H11S 2640   1.441   1.955  14.946  1.4325  1.1206 -1.3455
   21DOPE  C212 2641   1.389   1.882  14.748  0.2175 -0.2211  0.0630
   21DOPE  H12R 2642   1.321   1.804  14.705 -0.1606  1.2785 -2.2443
   21DOPE  H12S 2643   1.485   1.883  14.691  1.4947  1.4935  2.1384
   21DOPE  C213 2644   1.322   2.014  14.722 -0.2359 -0.1840 -0.1793
   21DOPE  H13R 2645   1.398   2.087  14.758  0.0552 -0.9769  0.8747
   21DOPE  H13S 2646   1.238   2.024  14.794 -0.5139  0.8488 -0.6272
   21DOPE  C214 2647   1.294   2.043  14.575  0.3326  0.7558 -0.0459
   21DOPE  H14R 2648   1.219   1.972  14.533  0.3693 -0.3311  1.6411
   21DOPE  H14S 2649   1.389   2.043  14.518 -0.0071 -1.3245 -0.6824
   21DOPE  C215 2650   1.223   2.182  14.554 -0.0329  0.2583 -0.3271
   21DOPE  H15R 2651   1.290   2.249  14.613 -2.8202  2.3300  0.6814
   21DOPE  H15S 2652   1.121   2.177  14.598 -0.3237 -1.5504 -1.1324
   21DOPE  C216 2653   1.219   2.237  14.409  0.2245 -0.0501 -0.0899
   21DOPE  H16R 2654   1.323   2.252  14.373  0.8083 -0.6811  1.2548
   21DOPE  H16S 2655   1.170   2.337  14.403  3.1844  1.6935  2.0762
   21DOPE  C217 2656   1.161   2.133  14.316 -0.3006  0.1032  0.0030
   21DOPE  H17R 2657   1.059   2.115  14.356 -0.7763  0.2927 -1.0920
   21DOPE  H17S 2658   1.224   2.042  14.311  0.8108  0.8392  0.0882
   21DOPE  C218 2659   1.141   2.194  14.172 -0.5797 -0.2009 -0.4641
   21DOPE  H18R 2660   1.239   2.208  14.121  0.0959 -0.7551  0.6557
   21DOPE  H18S 2661   1.091   2.293  14.171  1.0627  0.6525 -0.4156
   21DOPE  H18T 2662   1.083   2.126  14.106 -2.2402  1.8108 -1.2093
   21DOPE   C33 2663   1.532   1.006  15.305 -0.1551 -0.4661  1.0037
   21DOPE   H3X 2664   1.551   0.905  15.347  1.0845 -0.9133 -0.5327
   21DOPE   H3Y 2665   1.626   1.065  15.315 -2.0839  2.6996  2.0448
   21DOPE   C34 2666   1.504   0.987  15.150 -0.3267 -0.3628  0.4619
   21DOPE   H4X 2667   1.463   0.885  15.133 -1.3309  0.4873 -3.0453
   21DOPE   H4Y 2668   1.425   1.063  15.130  1.4008  1.8691  1.6463
   21DOPE   C35 2669   1.626   1.006  15.059 -0.2580 -0.5359 -0.2770
   21DOPE   H5X 2670   1.693   0.920  15.078 -0.0166 -0.7490 -1.9333
   21DOPE   H5Y 2671   1.681   1.100  15.084 -1.5511  0.0914  0.3014
   21DOPE   C36 2672   1.606   0.990  14.910  0.3819 -0.4116  0.1908
   21DOPE   H6X 2673   1.602   0.881  14.889 -1.8739 -0.0901 -1.2848
   21DOPE   H6Y 2674   1.698   1.019  14.855  1.9024 -0.6333  2.4777
   21DOPE   C37 2675   1.484   1.056  14.842  0.1075 -0.0158  0.8202
   21DOPE   H7X 2676   1.390   1.013  14.883 -1.1011  1.8130  0.1251
   21DOPE   H7Y 2677   1.475   1.165  14.861 -3.1919  0.1221 -0.7591
   21DOPE   C38 2678   1.477   1.038  14.687 -0.0426  0.1146 -0.2813
   21DOPE   H8X 2679   1.385   1.084  14.643  1.0203  0.0288 -2.7919
   21DOPE   H8Y 2680   1.464   0.928  14.674  2.6273 -0.2545 -0.2753
   21DOPE   C39 2681   1.594   1.092  14.602 -0.1570  0.4153 -0.4995
   21DOPE   H9X 2682   1.665   1.151  14.663 -0.5698  0.2517  0.1500
   21DOPE  C310 2683   1.609   1.067  14.473  0.1145 -0.2951 -0.5104
   21DOPE  H10X 2684   1.695   1.109  14.420  1.1506  1.7363  2.5116
   21DOPE  C311 2685   1.521   0.988  14.375 -0.0769  0.6880 -0.5415
   21DOPE  H11X 2686   1.587   0.922  14.315 -1.2719  1.3133 -2.6155
   21DOPE  H11Y 2687   1.453   0.916  14.426  0.5992  0.0005 -0.5861
   21DOPE  C312 2688   1.444   1.075  14.283 -0.3221  0.3520  0.2302
   21DOPE  H12X 2689   1.398   1.161  14.336 -0.3212  1.3211 -1.2926
   21DOPE  H12Y 2690   1.361   1.012  14.243  0.2825 -0.6505  0.5197
   21DOPE  C313 2691   1.520   1.139  14.162  0.9097  0.2953 -0.2145
   21DOPE  H13X 2692   1.577   1.225  14.203 -1.6590  2.2623 -0.5292
   21DOPE  H13Y 2693   1.597   1.065  14.131 -0.2062 -1.1590  0.3690
   21DOPE  C314 2694   1.429   1.186  14.044 -0.2142 -0.5463  0.1605
   21DOPE  H14X 2695   1.386   1.094  13.998 -0.2398 -0.6998  0.4858
   21DOPE  H14Y 2696   1.493   1.240  13.971 -2.5530  2.4561  0.1293
   21DOPE  C315 2697   1.311   1.276  14.083  0.0205  0.2641 -0.9103
   21DOPE  H15X 2698   1.337   1.372  14.133 -2.7154  0.8687 -0.4977
   21DOPE  H15Y 2699   1.254   1.213  14.155  0.0682 -0.7287 -1.7075
   21DOPE  C316 2700   1.223   1.301  13.960  0.0493 -0.5368  0.0174
   21DOPE  H16X 2701   1.187   1.207  13.913 -0.6011 -0.7778  0.9797
   21DOPE  H16Y 2702   1.280   1.371  13.896 -1.7561  0.2086 -0.8668
   21DOPE  C317 2703   1.088   1.374  13.988 -0.1484  1.0378 -0.2495
   21DOPE  H17X 2704   1.004   1.302  13.990  2.0173 -1.7350 -1.5708
   21DOPE  H17Y 2705   1.101   1.414  14.091 -1.5456  0.9366 -0.0179
   21DOPE  C318 2706   1.066   1.476  13.882  0.1146 -0.5233  0.3543
   21DOPE  H18X 2707   1.159   1.529  13.854  0.7467 -0.8290  1.7626
   21DOPE  H18Y 2708   1.020   1.423  13.796 -0.7880 -0.9711  1.0891
   21DOPE  H18Z 2709   1.004   1.555  13.931 -1.1401 -0.9137 -0.5498
   22DOPE     N 2710   6.365   5.151  15.745 -0.2227 -0.2493  0.5671
   22DOPE   HN1 2711   6.415   5.061  15.750  1.4383  0.6109  0.1569
   22DOPE   HN2 2712   6.262   5.141  15.754 -0.5486  1.3408 -0.7335
   22DOPE   HN3 2713   6.382   5.196  15.652  1.3316  0.1096  0.9907
   22DOPE   C12 2714   6.419   5.247  15.847 -0.1085  0.6961 -0.0025
   22DOPE  H12A 2715   6.530   5.255  15.843  0.0982 -1.8586 -1.7204
   22DOPE  H12B 2716   6.388   5.195  15.941 -3.2683 -2.2943 -2.4311
   22DOPE   C11 2717   6.356   5.378  15.823 -0.4732 -0.2727  0.7292
   22DOPE  H11A 2718   6.410   5.412  15.733  0.0392 -0.1695  1.0677
   22DOPE  H11B 2719   6.391   5.444  15.906  1.6523 -1.0551  0.5188
   22DOPE     P 2720   6.138   5.432  15.699  0.2724 -0.3769  0.1023
   22DOPE   O13 2721   6.171   5.574  15.690  0.3291 -0.4414  0.2740
   22DOPE   O14 2722   5.992   5.400  15.718  0.0445  0.7111  0.5087
   22DOPE   O11 2723   6.202   5.333  15.587  0.9641 -0.4618 -0.1151
   22DOPE   O12 2724   6.210   5.376  15.821  0.5316  0.8047  0.8922
   22DOPE    C1 2725   6.293   5.376  15.482  0.3793  0.2450 -0.9827
   22DOPE    HA 2726   6.359   5.289  15.460 -1.5728 -1.4489 -0.4554
   22DOPE    HB 2727   6.360   5.455  15.522  0.9578 -1.7377  2.3203
   22DOPE    C2 2728   6.237   5.417  15.343  0.0977 -0.7035  0.3277
   22DOPE    HS 2729   6.163   5.498  15.358  0.6869 -0.4804  2.2468
   22DOPE   O21 2730   6.192   5.296  15.264  0.4541 -0.0878 -0.9722
   22DOPE   C21 2731   6.064   5.296  15.232  0.2661  0.3484  0.1659
   22DOPE   O22 2732   5.981   5.378  15.259  0.2081  0.6819 -0.1819
   22DOPE   C22 2733   6.037   5.173  15.137 -0.0677 -0.1448  0.1731
   22DOPE   H2R 2734   5.929   5.179  15.113  0.1127  3.2249 -0.3092
   22DOPE   H2S 2735   6.066   5.083  15.196  3.3507  0.0621 -0.9725
   22DOPE    C3 2736   6.349   5.473  15.259  0.7667 -0.0537  0.0919
   22DOPE    HX 2737   6.424   5.396  15.229  0.3767 -0.6976  0.7555
   22DOPE    HY 2738   6.416   5.535  15.323  1.1066 -0.6391  0.3068
   22DOPE   O31 2739   6.308   5.537  15.137  0.5696 -0.2825 -0.6153
   22DOPE   C31 2740   6.246   5.655  15.147 -0.2333  0.0257 -0.0615
   22DOPE   O32 2741   6.222   5.719  15.247  0.4492  0.3031  0.0359
   22DOPE   C32 2742   6.218   5.714  15.007 -0.1078  0.5893 -0.0558
   22DOPE   H2X 2743   6.188   5.820  15.012 -2.7759 -0.0429 -0.9939
   22DOPE   H2Y 2744   6.311   5.715  14.948 -0.6687 -0.6499 -1.0195
   22DOPE   C23 2745   6.140   5.180  15.022  0.0953 -0.4622  0.0910
   22DOPE   H3R 2746   6.148   5.076  14.983  0.7372 -0.8764  1.2822
   22DOPE   H3S 2747   6.238   5.216  15.058 -1.6386  1.9106  2.8887
   22DOPE   C24 2748   6.104   5.261  14.896 -0.3486  0.0129 -0.1211
   22DOPE   H4R 2749   6.191   5.325  14.867  0.7959 -1.7894 -0.8360
   22DOPE   H4S 2750   6.019   5.326  14.926 -0.1595 -0.1796  0.8897
   22DOPE   C25 2751   6.055   5.174  14.775 -1.2995 -0.0988  0.4208
   22DOPE   H5R 2752   5.947   5.151  14.784 -1.6125  1.4181  0.7360
   22DOPE   H5S 2753   6.105   5.075  14.776 -2.9478 -0.9641  2.1143
   22DOPE   C26 2754   6.083   5.249  14.638  0.7746  0.5030 -0.1883
   22DOPE   H6R 2755   6.189   5.244  14.607  0.8903 -2.4557  0.2994
   22DOPE   H6S 2756   6.070   5.358  14.651  2.9413  0.6357  1.3563
   22DOPE   C27 2757   6.000   5.181  14.524 -0.2230 -0.0674 -0.4812
   22DOPE   H7R 2758   5.891   5.195  14.537 -0.5062  0.7314 -3.0248
   22DOPE   H7S 2759   6.017   5.072  14.539 -1.5417  0.0760  2.8054
   22DOPE   C28 2760   6.046   5.231  14.386  0.5845  0.3665 -0.1491
   22DOPE   H8R 2761   5.981   5.169  14.320 -1.4005  1.6013  0.5542
   22DOPE   H8S 2762   6.152   5.212  14.359  0.0830 -1.1576 -1.1768
   22DOPE   C29 2763   6.024   5.375  14.364  0.0513 -0.0402 -0.1813
   22DOPE   H9R 2764   6.042   5.441  14.450 -1.0303 -1.9064  1.5879
   22DOPE  C210 2765   5.984   5.426  14.251  0.6268  0.2649 -0.5811
   22DOPE  H10R 2766   5.990   5.535  14.235 -1.3261  0.5198  0.0647
   22DOPE  C211 2767   5.942   5.350  14.128  0.2028 -0.2909  0.9834
   22DOPE  H11R 2768   5.911   5.423  14.050 -1.3853 -1.2436  0.6770
   22DOPE  H11S 2769   5.846   5.295  14.137  0.6416 -1.0930  0.7569
   22DOPE  C212 2770   6.038   5.260  14.056 -0.0593  0.3589  0.1126
   22DOPE  H12R 2771   6.046   5.162  14.108 -0.0801  0.0631 -0.4327
   22DOPE  H12S 2772   6.142   5.293  14.037  1.1714 -2.7661  0.7107
   22DOPE  C213 2773   5.977   5.222  13.914 -0.8497  0.4312  0.1325
   22DOPE  H13R 2774   5.867   5.218  13.930 -1.3117 -3.3529 -2.5571
   22DOPE  H13S 2775   6.004   5.121  13.876  0.8654  1.0811 -0.4599
   22DOPE  C214 2776   5.995   5.323  13.796  0.6451 -0.5207 -0.7091
   22DOPE  H14R 2777   6.090   5.293  13.748  0.0628 -0.7542 -1.7470
   22DOPE  H14S 2778   5.995   5.428  13.832  0.6133 -0.8662  0.3335
   22DOPE  C215 2779   5.880   5.305  13.694 -0.8783 -0.3181 -0.4035
   22DOPE  H15R 2780   5.790   5.361  13.730 -0.0288  0.5757  0.4171
   22DOPE  H15S 2781   5.861   5.200  13.666  1.9031 -0.4842 -2.0629
   22DOPE  C216 2782   5.918   5.377  13.560 -0.1736  0.2033  0.2957
   22DOPE  H16R 2783   5.987   5.459  13.589 -2.1900  1.2691  2.4239
   22DOPE  H16S 2784   5.833   5.434  13.517 -0.4525  1.3471  2.2702
   22DOPE  C217 2785   5.968   5.274  13.451  0.5517  0.4327  0.4319
   22DOPE  H17R 2786   5.887   5.206  13.416  0.9986  1.3229 -2.6469
   22DOPE  H17S 2787   6.063   5.228  13.484  0.3332 -1.3133 -1.2137
   22DOPE  C218 2788   5.998   5.362  13.329  0.4492  0.4237  0.0491
   22DOPE  H18R 2789   6.016   5.298  13.240 -1.4369  1.1458 -0.9150
   22DOPE  H18S 2790   6.079   5.435  13.348 -1.1149  1.8166  1.7707
   22DOPE  H18T 2791   5.907   5.415  13.292  0.9779 -0.6917 -3.2387
   22DOPE   C33 2792   6.102   5.649  14.927  0.3250 -0.3335 -0.3661
   22DOPE   H3X 2793   6.131   5.544  14.902 -0.9142 -0.5797 -0.8264
   22DOPE   H3Y 2794   6.099   5.707  14.833 -1.7279  2.9896  1.5595
   22DOPE   C34 2795   5.966   5.658  14.993  0.1385 -0.2222  0.2046
   22DOPE   H4X 2796   5.966   5.579  15.071 -1.6732 -2.2036 -1.6612
   22DOPE   H4Y 2797   5.952   5.760  15.036 -0.8711 -0.1577 -0.2362
   22DOPE   C35 2798   5.855   5.611  14.897  0.8245 -0.0427  0.1504
   22DOPE   H5X 2799   5.764   5.592  14.959  0.3315 -1.6271 -0.9816
   22DOPE   H5Y 2800   5.862   5.506  14.862  0.7122 -0.2140  0.6341
   22DOPE   C36 2801   5.835   5.713  14.785  0.1029 -1.2729 -0.7416
   22DOPE   H6X 2802   5.927   5.708  14.722  0.0135 -1.2097 -0.8789
   22DOPE   H6Y 2803   5.835   5.816  14.825  0.4156 -0.9683 -1.4942
   22DOPE   C37 2804   5.720   5.682  14.697 -0.2609  0.0217  0.2315
   22DOPE   H7X 2805   5.727   5.580  14.654 -2.7310 -0.8249  1.6348
   22DOPE   H7Y 2806   5.628   5.690  14.760  0.1043 -0.4765  0.8467
   22DOPE   C38 2807   5.696   5.791  14.589 -0.8061  0.3336  0.6149
   22DOPE   H8X 2808   5.778   5.815  14.518 -0.6088  0.2262  0.8064
   22DOPE   H8Y 2809   5.679   5.889  14.639 -0.2941  1.1044 -0.6762
   22DOPE   C39 2810   5.567   5.750  14.511 -0.2478  0.0322  0.1545
   22DOPE   H9X 2811   5.469   5.753  14.561 -1.0624 -3.9023 -0.8897
   22DOPE  C310 2812   5.560   5.696  14.388 -0.7630  0.0342 -0.8350
   22DOPE  H10X 2813   5.459   5.656  14.368 -0.1984 -3.3390  2.0064
   22DOPE  C311 2814   5.677   5.671  14.297 -0.8403 -1.0895 -0.7103
   22DOPE  H11X 2815   5.771   5.708  14.343 -2.1712 -0.3985  1.6387
   22DOPE  H11Y 2816   5.702   5.564  14.287  1.1885 -0.6645 -0.5669
   22DOPE  C312 2817   5.669   5.740  14.161  0.2767  0.6362  0.2316
   22DOPE  H12X 2818   5.687   5.850  14.160  0.7481  0.6328 -2.9456
   22DOPE  H12Y 2819   5.573   5.703  14.118  0.9483 -1.1247  0.1456
   22DOPE  C313 2820   5.787   5.695  14.072  0.2646 -0.5337 -0.1898
   22DOPE  H13X 2821   5.888   5.714  14.116  1.8387  1.3400 -4.1485
   22DOPE  H13Y 2822   5.785   5.588  14.043 -1.7208 -0.8556  1.0071
   22DOPE  C314 2823   5.773   5.766  13.932  0.6049 -0.3908  0.5557
   22DOPE  H14X 2824   5.671   5.768  13.888  0.6497  0.8131  0.4870
   22DOPE  H14Y 2825   5.838   5.706  13.865  0.6985  1.3094 -0.9372
   22DOPE  C315 2826   5.830   5.908  13.924 -0.5764  0.7844 -0.1532
   22DOPE  H15X 2827   5.934   5.909  13.962 -0.9953  1.3589  1.0711
   22DOPE  H15Y 2828   5.776   5.974  13.996  1.3463 -1.2441  3.4232
   22DOPE  C316 2829   5.833   5.956  13.775  0.2516 -0.0012 -0.1094
   22DOPE  H16X 2830   5.737   5.931  13.725 -0.5337 -3.1730  2.6200
   22DOPE  H16Y 2831   5.917   5.906  13.723  0.6556  0.8622 -0.3147
   22DOPE  C317 2832   5.873   6.104  13.764  0.6218  0.2685 -0.0860
   22DOPE  H17X 2833   5.799   6.166  13.820  0.4765  1.1284 -1.1826
   22DOPE  H17Y 2834   5.973   6.106  13.811  0.1395  1.1569  0.9303
   22DOPE  C318 2835   5.868   6.150  13.615  0.5832  1.0826 -1.0345
   22DOPE  H18X 2836   5.775   6.129  13.558  1.4472 -1.3532 -1.6497
   22DOPE  H18Y 2837   5.889   6.259  13.616 -1.7745  1.6595 -3.4318
   22DOPE  H18Z 2838   5.943   6.097  13.553  0.7456 -0.0109  0.0388
   23DOPE     N 2839   2.056   1.680  15.974  0.0104 -0.4890 -0.2317
   23DOPE   HN1 2840   1.995   1.640  15.900  0.8176 -1.5327 -0.3641
   23DOPE   HN2 2841   2.062   1.784  15.969 -0.5661 -0.4020  0.7052
   23DOPE   HN3 2842   2.145   1.626  15.964  0.9135  0.4998  1.8811
   23DOPE   C12 2843   2.018   1.650  16.118  0.2119  0.4869 -0.1428
   23DOPE  H12A 2844   1.923   1.592  16.120  0.7203 -0.3438  0.7314
   23DOPE  H12B 2845   1.977   1.745  16.159 -2.2260 -0.3314 -0.4937
   23DOPE   C11 2846   2.124   1.588  16.206 -0.3255 -0.8885 -0.4025
   23DOPE  H11A 2847   2.080   1.577  16.307  1.3942 -0.6099  0.4154
   23DOPE  H11B 2848   2.210   1.658  16.208 -0.0894 -0.9554 -3.4282
   23DOPE     P 2849   2.282   1.426  16.082  0.0230 -0.1575  0.1674
   23DOPE   O13 2850   2.292   1.283  16.055  0.3558  0.1557  0.2311
   23DOPE   O14 2851   2.398   1.493  16.141  0.1687  0.4474  0.2427
   23DOPE   O11 2852   2.260   1.504  15.944 -0.1182 -0.3184  0.0377
   23DOPE   O12 2853   2.156   1.456  16.159 -0.1412 -0.2316 -0.2028
   23DOPE    C1 2854   2.364   1.536  15.857  0.1440  0.0321  0.0186
   23DOPE    HA 2855   2.407   1.440  15.824  0.0822 -1.0063  2.6736
   23DOPE    HB 2856   2.445   1.586  15.915 -2.1163  2.5183  1.2760
   23DOPE    C2 2857   2.318   1.616  15.735  0.3090 -0.1591 -0.4178
   23DOPE    HS 2858   2.406   1.611  15.666  1.2466 -0.5306  0.7621
   23DOPE   O21 2859   2.295   1.749  15.774  0.6161  0.8764 -0.1462
   23DOPE   C21 2860   2.398   1.830  15.765  0.4110 -0.1573  0.0052
   23DOPE   O22 2861   2.510   1.797  15.729  0.4370 -0.1962 -0.2345
   23DOPE   C22 2862   2.359   1.974  15.783 -0.0072  0.0214  0.7079
   23DOPE   H2R 2863   2.439   2.037  15.828 -0.5717  1.5659 -0.3686
   23DOPE   H2S 2864   2.266   1.982  15.844 -1.7627  0.7400 -1.9293
   23DOPE    C3 2865   2.188   1.561  15.678  0.2279 -0.0236  0.0593
   23DOPE    HX 2866   2.103   1.625  15.710 -0.7128 -0.2188 -1.8742
   23DOPE    HY 2867   2.181   1.453  15.705  1.8311 -0.2003 -0.1400
   23DOPE   O31 2868   2.185   1.575  15.536  0.3435  0.3951  0.1021
   23DOPE   C31 2869   2.267   1.493  15.462  0.1452  0.0513  0.3024
   23DOPE   O32 2870   2.333   1.406  15.514  0.1120  0.3679 -0.2163
   23DOPE   C32 2871   2.275   1.537  15.314  0.2089 -0.3796  0.0193
   23DOPE   H2X 2872   2.277   1.648  15.305 -0.9451 -0.4008 -0.6038
   23DOPE   H2Y 2873   2.367   1.490  15.275  0.1121 -0.0434 -0.6284
   23DOPE   C23 2874   2.322   2.039  15.650  0.2463  0.1576 -0.3226
   23DOPE   H3R 2875   2.295   2.144  15.676 -0.4054  0.0381 -0.4919
   23DOPE   H3S 2876   2.234   1.985  15.609  0.8425 -0.2855 -1.0417
   23DOPE   C24 2877   2.442   2.037  15.555  0.2508 -1.0237 -0.4058
   23DOPE   H4R 2878   2.466   1.931  15.530  0.8932 -0.3496 -2.9192
   23DOPE   H4S 2879   2.530   2.087  15.601 -1.3347  0.2832  1.3581
   23DOPE   C25 2880   2.414   2.125  15.434 -0.3113  0.5236  0.1822
   23DOPE   H5R 2881   2.495   2.123  15.358 -0.8948  0.0038 -0.4410
   23DOPE   H5S 2882   2.410   2.232  15.461  0.9883  0.9522 -1.2150
   23DOPE   C26 2883   2.290   2.083  15.347  0.6485 -0.6721  1.2147
   23DOPE   H6R 2884   2.195   2.094  15.402 -1.0209  0.6462 -1.7048
   23DOPE   H6S 2885   2.294   1.975  15.319 -1.4534 -0.9737  1.9646
   23DOPE   C27 2886   2.289   2.179  15.228 -0.4249 -0.7065 -0.8083
   23DOPE   H7R 2887   2.386   2.184  15.172  1.1062 -0.1368  1.7428
   23DOPE   H7S 2888   2.262   2.279  15.268  0.6697 -1.8368  3.2119
   23DOPE   C28 2889   2.176   2.160  15.122 -0.1666  0.3945 -0.8110
   23DOPE   H8R 2890   2.184   2.245  15.051 -1.6825 -0.1174 -1.6444
   23DOPE   H8S 2891   2.085   2.169  15.185  1.3605 -2.0944  1.9990
   23DOPE   C29 2892   2.199   2.032  15.048  0.1792 -0.0873 -0.6096
   23DOPE   H9R 2893   2.143   1.952  15.099 -0.7139  0.6414 -0.4134
   23DOPE  C210 2894   2.249   2.023  14.929  0.6038 -0.7007  0.5687
   23DOPE  H10R 2895   2.276   1.928  14.881 -1.9627  0.0347 -2.6636
   23DOPE  C211 2896   2.311   2.134  14.845  0.6257 -0.2912 -0.0149
   23DOPE  H11R 2897   2.419   2.115  14.826  0.8470 -0.1787  1.0295
   23DOPE  H11S 2898   2.304   2.234  14.893 -0.1328 -0.0644 -0.5799
   23DOPE  C212 2899   2.240   2.137  14.708  1.0707 -0.2165 -0.0542
   23DOPE  H12R 2900   2.144   2.191  14.724  0.8936 -0.6884  0.5016
   23DOPE  H12S 2901   2.224   2.040  14.656 -1.5608 -0.2036  0.5896
   23DOPE  C213 2902   2.315   2.226  14.603  0.4198  0.3265  0.1149
   23DOPE  H13R 2903   2.407   2.176  14.566 -1.9714 -2.7337 -2.2490
   23DOPE  H13S 2904   2.339   2.320  14.657 -1.4447  0.5104  0.7069
   23DOPE  C214 2905   2.228   2.263  14.481 -0.2616 -0.3317  0.3140
   23DOPE  H14R 2906   2.129   2.298  14.517 -0.6659 -2.0124  0.9072
   23DOPE  H14S 2907   2.202   2.166  14.435 -2.6518  0.4451 -0.0996
   23DOPE  C215 2908   2.289   2.374  14.392  0.2765  0.1293  0.0891
   23DOPE  H15R 2909   2.387   2.350  14.347 -0.5769 -0.9559 -1.2760
   23DOPE  H15S 2910   2.309   2.468  14.448  1.3105  0.5783 -1.0013
   23DOPE  C216 2911   2.193   2.400  14.279 -0.5323 -0.0459  0.1084
   23DOPE  H16R 2912   2.097   2.432  14.326 -0.0508  1.5405  0.0732
   23DOPE  H16S 2913   2.165   2.308  14.223 -1.5074  0.0679  0.3942
   23DOPE  C217 2914   2.249   2.510  14.186  0.5790  0.1397  0.4949
   23DOPE  H17R 2915   2.357   2.493  14.168  1.3880  3.8386  1.1178
   23DOPE  H17S 2916   2.246   2.613  14.226  2.3377  0.9263 -1.2257
   23DOPE  C218 2917   2.182   2.528  14.047 -0.0488 -0.5056  0.0853
   23DOPE  H18R 2918   2.178   2.436  13.984 -1.0918  0.0365 -0.6696
   23DOPE  H18S 2919   2.233   2.604  13.984 -1.6658 -0.5256 -1.3371
   23DOPE  H18T 2920   2.073   2.546  14.062 -0.2077 -1.3181 -0.0388
   23DOPE   C33 2921   2.165   1.498  15.216 -0.2783  0.4218 -0.1904
   23DOPE   H3X 2922   2.063   1.509  15.260  0.2194  1.9165  0.6461
   23DOPE   H3Y 2923   2.168   1.389  15.195  0.7758  0.1939  1.0603
   23DOPE   C34 2924   2.182   1.567  15.077  0.7321  0.2638 -0.0682
   23DOPE   H4X 2925   2.182   1.676  15.097  1.3698  0.6262 -1.9002
   23DOPE   H4Y 2926   2.279   1.538  15.033  1.5428  2.6599  0.0350
   23DOPE   C35 2927   2.073   1.529  14.977 -0.6122 -0.3594 -0.4073
   23DOPE   H5X 2928   1.982   1.531  15.040  0.6983  0.4854  1.5726
   23DOPE   H5Y 2929   2.095   1.433  14.925  0.6077 -1.7985  2.5288
   23DOPE   C36 2930   2.061   1.632  14.865  0.1138  0.0115  0.1993
   23DOPE   H6X 2931   2.046   1.736  14.902  1.1310  0.5159 -0.7401
   23DOPE   H6Y 2932   1.970   1.608  14.805 -0.2483  2.3658 -0.3155
   23DOPE   C37 2933   2.181   1.640  14.771  0.0149 -0.3677  0.1795
   23DOPE   H7X 2934   2.265   1.687  14.826 -0.8023 -0.0739  1.2131
   23DOPE   H7Y 2935   2.207   1.534  14.747  1.4235 -0.1808  0.7971
   23DOPE   C38 2936   2.144   1.721  14.642 -0.3371 -0.6785 -0.4913
   23DOPE   H8X 2937   2.244   1.736  14.595 -0.2679  0.5711  0.0118
   23DOPE   H8Y 2938   2.110   1.823  14.667 -0.5051 -0.3730 -1.8942
   23DOPE   C39 2939   2.047   1.647  14.559  0.4448 -0.5922 -0.0299
   23DOPE   H9X 2940   2.071   1.542  14.540 -0.6812 -1.6241  3.4106
   23DOPE  C310 2941   1.947   1.704  14.493 -0.2663 -0.1994 -0.3823
   23DOPE  H10X 2942   1.878   1.646  14.429 -0.9647  1.1640 -0.9195
   23DOPE  C311 2943   1.921   1.847  14.491  0.5466  1.1239 -0.0900
   23DOPE  H11X 2944   1.814   1.862  14.464  0.3266 -2.0349 -1.5075
   23DOPE  H11Y 2945   1.926   1.892  14.592 -0.7009  2.9831 -0.8033
   23DOPE  C312 2946   2.011   1.926  14.404 -0.4233 -0.0783  0.6120
   23DOPE  H12X 2947   2.117   1.903  14.429  1.0623  4.3744 -0.5972
   23DOPE  H12Y 2948   2.007   2.035  14.422  2.2926  0.0272  0.9685
   23DOPE  C313 2949   1.972   1.909  14.256  0.1170 -0.0773  0.3459
   23DOPE  H13X 2950   1.975   1.802  14.227  1.6755  0.4388 -1.5869
   23DOPE  H13Y 2951   1.874   1.953  14.226 -0.1217 -1.9999 -2.0238
   23DOPE  C314 2952   2.077   1.978  14.168  0.2822 -0.3082 -0.7457
   23DOPE  H14X 2953   2.180   1.953  14.201  0.0858 -0.5605 -0.3153
   23DOPE  H14Y 2954   2.059   2.087  14.177  0.7277 -0.2642 -0.3593
   23DOPE  C315 2955   2.043   1.928  14.030 -0.4524  0.3610  0.3470
   23DOPE  H15X 2956   1.945   1.977  14.007 -0.7234 -0.2110  0.2602
   23DOPE  H15Y 2957   2.029   1.820  14.012 -2.7056  0.4784  1.0609
   23DOPE  C316 2958   2.149   1.970  13.924 -0.1883  0.1688  0.1699
   23DOPE  H16X 2959   2.113   1.938  13.824 -0.0311  3.0114 -0.8905
   23DOPE  H16Y 2960   2.238   1.911  13.954 -0.4604 -0.4939 -0.3066
   23DOPE  C317 2961   2.165   2.120  13.912  0.4376 -0.6099 -0.4493
   23DOPE  H17X 2962   2.073   2.180  13.891  1.6458  0.4373 -3.2149
   23DOPE  H17Y 2963   2.201   2.166  14.007  0.8628 -0.4162 -0.7023
   23DOPE  C318 2964   2.257   2.165  13.797 -0.1457 -0.1228  0.0566
   23DOPE  H18X 2965   2.361   2.167  13.836  0.1078 -1.7349 -0.4520
   23DOPE  H18Y 2966   2.253   2.086  13.719  0.1458  1.0784 -1.2100
   23DOPE  H18Z 2967   2.235   2.265  13.754  3.6889  0.9908  0.3519
   24DOPE     N 2968   5.237   5.804  15.955  0.9991  0.3228 -0.0921
   24DOPE   HN1 2969   5.227   5.701  15.967 -0.1584  0.5812  1.3598
   24DOPE   HN2 2970   5.322   5.827  15.900  0.8442  1.2536  0.0382
   24DOPE   HN3 2971   5.242   5.851  16.048  2.5852 -1.0157  0.5533
   24DOPE   C12 2972   5.113   5.831  15.870 -0.2715 -0.3965 -0.5732
   24DOPE  H12A 2973   5.029   5.788  15.929 -1.0666  0.4266 -1.0739
   24DOPE  H12B 2974   5.125   5.775  15.775  0.5121 -1.2042 -0.0146
   24DOPE   C11 2975   5.094   5.988  15.851 -0.1719  0.4057  0.2313
   24DOPE  H11A 2976   5.018   6.004  15.772  0.4715  2.0247 -0.0941
   24DOPE  H11B 2977   5.189   6.037  15.819  0.3186 -0.0019  1.0114
   24DOPE     P 2978   4.989   6.170  15.982 -0.0218  0.0544 -0.2329
   24DOPE   O13 2979   5.053   6.242  16.088  0.5412 -0.6777 -0.1798
   24DOPE   O14 2980   4.847   6.134  15.991  0.1663 -0.8291 -0.0273
   24DOPE   O11 2981   5.026   6.235  15.840  0.4948 -0.3033 -0.4219
   24DOPE   O12 2982   5.065   6.029  15.980  0.4584 -0.0573  0.7011
   24DOPE    C1 2983   4.926   6.307  15.769  0.1615  0.1031  0.4823
   24DOPE    HA 2984   4.974   6.373  15.694 -0.9185  1.5515  1.0080
   24DOPE    HB 2985   4.867   6.376  15.833 -0.8712  0.2578 -0.6029
   24DOPE    C2 2986   4.834   6.211  15.690  0.9421 -0.3977 -0.2116
   24DOPE    HS 2987   4.786   6.149  15.768  0.9596 -0.5496 -0.3225
   24DOPE   O21 2988   4.908   6.125  15.597 -0.2892  0.0648  0.2147
   24DOPE   C21 2989   4.845   6.010  15.561 -0.3595 -0.9090  0.2481
   24DOPE   O22 2990   4.751   5.962  15.614  0.0849  0.5314 -0.2541
   24DOPE   C22 2991   4.918   5.941  15.448 -0.2152 -0.2635  0.6049
   24DOPE   H2R 2992   4.869   5.846  15.418  0.6625 -0.3350 -0.7196
   24DOPE   H2S 2993   5.024   5.923  15.475  0.2941  0.1980 -0.9493
   24DOPE    C3 2994   4.736   6.302  15.614  0.3852 -0.1884 -0.0772
   24DOPE    HX 2995   4.793   6.347  15.530  0.2727 -0.5728 -0.3622
   24DOPE    HY 2996   4.706   6.394  15.670  1.3422  0.0318  0.0935
   24DOPE   O31 2997   4.620   6.235  15.560  0.3323 -0.1619 -1.0851
   24DOPE   C31 2998   4.514   6.229  15.636  0.9125  0.5746  0.7212
   24DOPE   O32 2999   4.487   6.298  15.730  0.3350  0.6135  0.4976
   24DOPE   C32 3000   4.440   6.108  15.600  0.2453 -0.0825 -0.0406
   24DOPE   H2X 3001   4.490   6.061  15.513 -0.4154  0.1451 -0.5588
   24DOPE   H2Y 3002   4.454   6.041  15.687  3.6600  3.7840  2.7541
   24DOPE   C23 3003   4.932   6.032  15.325  0.2641 -0.2548  0.0713
   24DOPE   H3R 3004   5.026   6.089  15.344  0.8122 -1.5587  1.4567
   24DOPE   H3S 3005   4.846   6.101  15.315 -0.0376 -0.8049 -1.4309
   24DOPE   C24 3006   4.933   5.946  15.195 -0.4436 -0.0761 -0.0994
   24DOPE   H4R 3007   4.840   5.888  15.182  0.7360 -1.9579 -0.5791
   24DOPE   H4S 3008   5.017   5.872  15.196  0.6401  1.0659  2.1082
   24DOPE   C25 3009   4.919   6.030  15.060  0.3220 -0.0008  0.3926
   24DOPE   H5R 3010   5.012   6.085  15.034 -0.3052  0.1748 -1.5989
   24DOPE   H5S 3011   4.837   6.100  15.085  0.1001 -1.1336  3.2012
   24DOPE   C26 3012   4.892   5.947  14.934  0.2605  0.0284 -0.4289
   24DOPE   H6R 3013   4.812   5.870  14.939  0.8700 -0.6641 -1.1143
   24DOPE   H6S 3014   4.985   5.887  14.929 -1.0567 -2.4217  1.9155
   24DOPE   C27 3015   4.877   6.030  14.809 -0.3815  0.6450  0.5087
   24DOPE   H7R 3016   4.964   6.097  14.794  0.2115 -0.2290 -0.0189
   24DOPE   H7S 3017   4.787   6.095  14.812 -0.1654  1.1747 -1.9429
   24DOPE   C28 3018   4.863   5.946  14.681 -0.3097  0.4720 -0.3830
   24DOPE   H8R 3019   4.804   5.853  14.693  0.8803 -0.2266  0.2282
   24DOPE   H8S 3020   4.957   5.902  14.641 -0.9127  0.2209 -1.5765
   24DOPE   C29 3021   4.788   6.031  14.570  0.0309  0.1191  0.2762
   24DOPE   H9R 3022   4.681   6.038  14.591 -0.1257 -0.6479 -0.2097
   24DOPE  C210 3023   4.845   6.075  14.454  0.0210  0.0875  0.2663
   24DOPE  H10R 3024   4.789   6.147  14.391 -0.3888  0.9770  1.6158
   24DOPE  C211 3025   4.992   6.056  14.415 -0.3879 -0.0724 -1.0407
   24DOPE  H11R 3026   5.055   6.036  14.505 -1.7110  2.1515  0.4812
   24DOPE  H11S 3027   5.040   6.148  14.374  1.8170 -1.1262 -0.9722
   24DOPE  C212 3028   5.029   5.935  14.328 -0.8607 -0.7278  0.1358
   24DOPE  H12R 3029   4.988   5.938  14.224 -0.3064  1.5368 -0.0616
   24DOPE  H12S 3030   4.971   5.845  14.360 -3.9778  1.0425 -0.1405
   24DOPE  C213 3031   5.176   5.904  14.319 -0.2483 -0.2986  0.9834
   24DOPE  H13R 3032   5.201   5.873  14.423 -0.6456  2.8870  2.1479
   24DOPE  H13S 3033   5.238   5.995  14.305  0.4634 -1.0936 -1.4659
   24DOPE  C214 3034   5.230   5.808  14.216  0.7635  0.3460  0.1692
   24DOPE  H14R 3035   5.170   5.715  14.226 -2.5189  2.2489 -0.2941
   24DOPE  H14S 3036   5.334   5.779  14.242  0.4427 -0.1229  0.9275
   24DOPE  C215 3037   5.223   5.864  14.070 -0.1319 -0.7358  0.3274
   24DOPE  H15R 3038   5.269   5.965  14.078  1.2069 -1.1682 -1.2714
   24DOPE  H15S 3039   5.118   5.878  14.036  0.2004  0.4913 -0.2776
   24DOPE  C216 3040   5.303   5.778  13.974 -0.0594 -0.2817  0.9448
   24DOPE  H16R 3041   5.411   5.780  13.998  0.2027 -2.4040  0.0905
   24DOPE  H16S 3042   5.290   5.815  13.870  0.9530  2.0334  1.5797
   24DOPE  C217 3043   5.267   5.627  13.969 -0.1001  0.3076 -0.0321
   24DOPE  H17R 3044   5.243   5.585  14.068  1.6501 -0.7578 -0.0255
   24DOPE  H17S 3045   5.343   5.556  13.929 -1.6207  0.3044 -3.2282
   24DOPE  C218 3046   5.140   5.601  13.888 -0.5703 -0.0963 -0.5567
   24DOPE  H18R 3047   5.154   5.606  13.778 -2.8824  0.7057 -0.8624
   24DOPE  H18S 3048   5.060   5.671  13.919 -0.2573  0.4984 -1.0704
   24DOPE  H18T 3049   5.091   5.504  13.911 -0.6175 -0.1906 -1.0543
   24DOPE   C33 3050   4.286   6.137  15.591 -0.7745  0.3378  0.0058
   24DOPE   H3X 3051   4.252   6.181  15.688  2.0763  1.1213  0.7356
   24DOPE   H3Y 3052   4.224   6.045  15.580 -1.4695  0.2395  3.3681
   24DOPE   C34 3053   4.261   6.226  15.475  0.4299  0.4336 -0.3710
   24DOPE   H4X 3054   4.324   6.315  15.497  2.2699 -0.8200 -0.2690
   24DOPE   H4Y 3055   4.291   6.183  15.376 -0.5670  1.1708 -1.0047
   24DOPE   C35 3056   4.116   6.276  15.464  0.2151  0.0433 -0.4885
   24DOPE   H5X 3057   4.075   6.296  15.565  2.1443 -1.1476  0.5848
   24DOPE   H5Y 3058   4.057   6.190  15.424 -1.0280 -0.2061  1.7474
   24DOPE   C36 3059   4.101   6.409  15.394 -0.5392 -0.0108  0.5855
   24DOPE   H6X 3060   4.151   6.474  15.469  2.0822 -2.9158  1.5717
   24DOPE   H6Y 3061   3.993   6.431  15.402 -0.3839  0.4339  1.5461
   24DOPE   C37 3062   4.156   6.421  15.259 -0.3511 -0.0669 -0.3331
   24DOPE   H7X 3063   4.264   6.394  15.264 -0.2999  0.1983 -0.0074
   24DOPE   H7Y 3064   4.108   6.352  15.186 -2.5945  0.7516  0.2885
   24DOPE   C38 3065   4.155   6.563  15.210 -0.5904 -0.2775 -0.0422
   24DOPE   H8X 3066   4.227   6.577  15.126 -1.6238  1.1937 -0.7261
   24DOPE   H8Y 3067   4.202   6.625  15.290 -1.5497  1.0986 -0.5048
   24DOPE   C39 3068   4.013   6.611  15.171 -0.5301  0.4823  0.3900
   24DOPE   H9X 3069   3.942   6.651  15.245 -0.4630 -0.2292  0.8476
   24DOPE  C310 3070   3.976   6.612  15.041  0.3027 -0.5324  0.0409
   24DOPE  H10X 3071   3.878   6.648  15.008  0.6221 -1.5868 -2.2086
   24DOPE  C311 3072   4.076   6.578  14.929  0.1332 -0.7868  0.0521
   24DOPE  H11X 3073   4.146   6.664  14.935 -0.5001 -0.3391  1.5528
   24DOPE  H11Y 3074   4.134   6.483  14.932 -0.8227 -1.4723 -1.8250
   24DOPE  C312 3075   3.992   6.584  14.800 -0.6933  0.1592  0.7815
   24DOPE  H12X 3076   3.932   6.678  14.796 -0.3241  0.4069  0.9580
   24DOPE  H12Y 3077   3.930   6.492  14.803  1.6857 -1.6823 -1.5943
   24DOPE  C313 3078   4.078   6.559  14.671  0.8509  0.1384 -0.3885
   24DOPE  H13X 3079   4.156   6.637  14.655  1.3960 -0.1212  0.8198
   24DOPE  H13Y 3080   4.141   6.468  14.682  0.7559 -0.0913 -1.5992
   24DOPE  C314 3081   3.994   6.542  14.550 -0.3044  0.1197 -0.5649
   24DOPE  H14X 3082   3.944   6.639  14.529  0.2469 -0.0049 -2.7426
   24DOPE  H14Y 3083   3.911   6.469  14.554  1.1928 -1.8200 -2.5262
   24DOPE  C315 3084   4.067   6.511  14.421 -0.5890 -0.4205 -0.3078
   24DOPE  H15X 3085   4.101   6.406  14.412 -0.8158 -0.3931 -1.8106
   24DOPE  H15Y 3086   4.159   6.571  14.439 -0.9950 -0.5488  2.4723
   24DOPE  C316 3087   3.980   6.562  14.305 -0.0660  0.4675  0.6152
   24DOPE  H16X 3088   3.971   6.672  14.306 -0.9190  0.4350 -0.7637
   24DOPE  H16Y 3089   3.878   6.522  14.322 -0.8854  2.0548 -0.4032
   24DOPE  C317 3090   4.042   6.524  14.166  0.3726  0.4917  0.0511
   24DOPE  H17X 3091   4.142   6.571  14.169  1.1767 -0.9986 -1.8022
   24DOPE  H17Y 3092   4.050   6.414  14.158  0.6027  0.4316  1.0835
   24DOPE  C318 3093   3.966   6.590  14.043  0.0293  0.3486 -0.4776
   24DOPE  H18X 3094   3.864   6.548  14.030  0.2494 -1.8434  3.3142
   24DOPE  H18Y 3095   3.971   6.701  14.046  0.3951  0.3144  0.3460
   24DOPE  H18Z 3096   4.020   6.553  13.954  1.7948 -0.3501  0.8370
   25DOPE     N 3097   5.404   6.433  15.793 -0.5741 -0.0528 -0.3991
   25DOPE   HN1 3098   5.334   6.507  15.774 -0.3200 -0.2092 -2.1001
   25DOPE   HN2 3099   5.480   6.475  15.851 -0.8119 -0.3754  0.1521
   25DOPE   HN3 3100   5.444   6.406  15.701  1.7287 -1.6015  0.9502
   25DOPE   C12 3101   5.328   6.328  15.874 -0.1715 -0.0376  0.0030
   25DOPE  H12A 3102   5.253   6.283  15.805 -1.8678 -0.8612  2.2808
   25DOPE  H12B 3103   5.264   6.370  15.953 -0.0842  1.1317 -0.5251
   25DOPE   C11 3104   5.418   6.224  15.936  0.1590  0.1059 -0.1737
   25DOPE  H11A 3105   5.360   6.170  16.014  1.4712 -1.8729 -0.4810
   25DOPE  H11B 3106   5.509   6.266  15.985  0.4422  0.4511 -0.9731
   25DOPE     P 3107   5.557   6.006  15.878 -0.0066 -0.0249 -0.4935
   25DOPE   O13 3108   5.487   5.871  15.873  0.0210 -0.3033 -0.0670
   25DOPE   O14 3109   5.633   6.026  16.005  0.1635  0.0180  0.1860
   25DOPE   O11 3110   5.665   5.998  15.765  0.5853  0.3025  0.0700
   25DOPE   O12 3111   5.457   6.124  15.837 -0.1428 -0.5285  0.1602
   25DOPE    C1 3112   5.732   6.113  15.715 -0.1647 -0.3184 -0.7991
   25DOPE    HA 3113   5.842   6.102  15.724  0.0847  1.7173 -0.9856
   25DOPE    HB 3114   5.714   6.208  15.771 -1.2452 -1.4308  0.8328
   25DOPE    C2 3115   5.710   6.132  15.561 -0.6479 -0.3532 -0.2448
   25DOPE    HS 3116   5.750   6.227  15.521  1.2231 -1.9571 -2.4393
   25DOPE   O21 3117   5.577   6.099  15.518 -0.0771 -0.0789  0.0055
   25DOPE   C21 3118   5.495   6.196  15.539  0.5298  0.3005  0.5728
   25DOPE   O22 3119   5.518   6.304  15.584 -0.2555 -0.7987 -0.2178
   25DOPE   C22 3120   5.351   6.150  15.495  0.5594  0.1366  0.1848
   25DOPE   H2R 3121   5.317   6.094  15.584  3.5363  0.5465  1.7015
   25DOPE   H2S 3122   5.363   6.080  15.409  1.3239  1.0276 -0.4525
   25DOPE    C3 3123   5.804   6.033  15.486  0.2868 -0.6514 -0.2694
   25DOPE    HX 3124   5.758   5.932  15.486 -1.1008 -0.0462 -0.6193
   25DOPE    HY 3125   5.894   6.026  15.552  0.4434  2.3648 -0.0245
   25DOPE   O31 3126   5.828   6.092  15.356 -0.2727  0.4541  0.7462
   25DOPE   C31 3127   5.941   6.067  15.295 -0.2300 -0.0961 -0.2851
   25DOPE   O32 3128   6.025   5.981  15.321 -0.4985 -0.0261 -0.6850
   25DOPE   C32 3129   5.968   6.197  15.215  0.0833 -0.0481  0.4810
   25DOPE   H2X 3130   5.869   6.245  15.196  0.9166  2.3258  1.7688
   25DOPE   H2Y 3131   6.014   6.271  15.284 -2.3366  1.7500  0.3403
   25DOPE   C23 3132   5.259   6.266  15.477  0.1077 -0.1132  0.1561
   25DOPE   H3R 3133   5.256   6.341  15.559  1.3675  1.4786 -1.1895
   25DOPE   H3S 3134   5.156   6.226  15.462  0.3126 -0.1306 -1.2839
   25DOPE   C24 3135   5.286   6.350  15.348  0.0141  0.1239  0.7580
   25DOPE   H4R 3136   5.281   6.281  15.261 -0.2021  0.4249  0.5257
   25DOPE   H4S 3137   5.389   6.392  15.347  0.0494  0.3219 -3.3373
   25DOPE   C25 3138   5.184   6.456  15.327  0.0544 -0.8065  0.2516
   25DOPE   H5R 3139   5.224   6.532  15.257 -1.9034 -0.8700 -1.0154
   25DOPE   H5S 3140   5.178   6.512  15.423  3.0183  0.1468 -0.0448
   25DOPE   C26 3141   5.056   6.400  15.252 -0.3110  0.1580  0.1025
   25DOPE   H6R 3142   5.001   6.323  15.310  0.9122 -0.7647  0.0979
   25DOPE   H6S 3143   5.096   6.347  15.163 -0.2301 -2.9978  1.8719
   25DOPE   C27 3144   4.958   6.519  15.212 -0.2903  0.7607 -0.0827
   25DOPE   H7R 3145   4.982   6.602  15.282 -0.3620  1.8054 -1.2513
   25DOPE   H7S 3146   4.852   6.493  15.230  0.5062 -3.4838 -0.3975
   25DOPE   C28 3147   4.981   6.562  15.070 -0.6000 -0.0964  0.3002
   25DOPE   H8R 3148   5.090   6.577  15.060 -0.8310  0.7274 -1.3168
   25DOPE   H8S 3149   4.926   6.658  15.061 -1.3563 -0.4288  1.1964
   25DOPE   C29 3150   4.942   6.456  14.977 -0.0331 -0.0172  0.6895
   25DOPE   H9R 3151   4.974   6.354  15.000  1.6062  0.4773  0.7388
   25DOPE  C210 3152   4.878   6.473  14.860  0.0576  0.2627 -0.1872
   25DOPE  H10R 3153   4.867   6.382  14.800  3.4470  0.4850 -1.3522
   25DOPE  C211 3154   4.827   6.605  14.805  0.3135 -0.2401 -0.1887
   25DOPE  H11R 3155   4.853   6.684  14.878  1.6132 -0.5477 -0.2889
   25DOPE  H11S 3156   4.716   6.597  14.806  0.2450  0.5922 -0.3199
   25DOPE  C212 3157   4.883   6.648  14.668 -0.1245  0.1109  0.0971
   25DOPE  H12R 3158   4.994   6.642  14.675  0.0894  0.9624 -1.9711
   25DOPE  H12S 3159   4.860   6.756  14.665 -0.8373  0.0046  1.1403
   25DOPE  C213 3160   4.835   6.562  14.552  0.3197 -0.8006  0.1465
   25DOPE  H13R 3161   4.728   6.575  14.527  0.1160  0.2921  1.4982
   25DOPE  H13S 3162   4.844   6.453  14.571 -1.8140 -1.0117  0.1332
   25DOPE  C214 3163   4.898   6.607  14.419  0.3598  0.2546  0.0975
   25DOPE  H14R 3164   5.005   6.576  14.421 -0.0606 -1.2678  0.6483
   25DOPE  H14S 3165   4.884   6.714  14.392  1.1596  0.2324 -0.4697
   25DOPE  C215 3166   4.837   6.533  14.300 -0.4526 -0.3555 -0.8489
   25DOPE  H15R 3167   4.733   6.571  14.307 -0.1852  0.1448  0.8297
   25DOPE  H15S 3168   4.834   6.423  14.310  1.2775 -0.5839 -2.4045
   25DOPE  C216 3169   4.926   6.552  14.179  0.1321 -0.2186 -0.1898
   25DOPE  H16R 3170   5.021   6.494  14.184  0.7894  0.8237 -0.3523
   25DOPE  H16S 3171   4.946   6.660  14.169 -0.6166 -0.0882 -0.2990
   25DOPE  C217 3172   4.863   6.511  14.052 -0.1474  0.2538 -0.6138
   25DOPE  H17R 3173   4.917   6.552  13.964  0.1696 -0.2986 -0.6829
   25DOPE  H17S 3174   4.758   6.546  14.049 -0.4283 -0.4430  0.5107
   25DOPE  C218 3175   4.861   6.355  14.038 -0.4717 -0.1247 -0.1817
   25DOPE  H18R 3176   4.952   6.312  14.084 -0.8854 -0.2211  0.5658
   25DOPE  H18S 3177   4.869   6.321  13.932  3.4120 -0.1678  0.0092
   25DOPE  H18T 3178   4.769   6.313  14.084 -0.4433 -0.7839 -0.7223
   25DOPE   C33 3179   6.045   6.155  15.091 -0.0098 -0.4054  0.4894
   25DOPE   H3X 3180   6.154   6.136  15.104  0.4543  2.5749  1.8310
   25DOPE   H3Y 3181   6.047   6.249  15.031  1.5620 -2.0030 -2.1751
   25DOPE   C34 3182   5.976   6.060  15.000  0.3674  0.2914  0.5823
   25DOPE   H4X 3183   6.038   6.018  14.918  1.6326  0.4226  1.4514
   25DOPE   H4Y 3184   5.944   5.972  15.059  2.7444 -0.1433  1.2948
   25DOPE   C35 3185   5.854   6.133  14.930 -0.0876 -1.1200  0.3682
   25DOPE   H5X 3186   5.808   6.216  14.989 -0.1155  0.0549 -1.2594
   25DOPE   H5Y 3187   5.775   6.055  14.934 -0.7325 -0.4531  1.1499
   25DOPE   C36 3188   5.886   6.182  14.787  0.0666  0.1388 -0.5419
   25DOPE   H6X 3189   5.923   6.099  14.723 -0.0971 -0.0002 -0.4560
   25DOPE   H6Y 3190   5.976   6.247  14.798  0.9188 -0.2800 -4.0128
   25DOPE   C37 3191   5.780   6.271  14.714  0.2285 -0.4195 -0.9047
   25DOPE   H7X 3192   5.705   6.201  14.673  1.2796 -2.1502 -0.0199
   25DOPE   H7Y 3193   5.743   6.349  14.784  1.3542 -0.0978 -0.6424
   25DOPE   C38 3194   5.864   6.339  14.601 -0.4097  0.6078  0.4473
   25DOPE   H8X 3195   5.926   6.260  14.554 -2.8400 -2.1448  1.5980
   25DOPE   H8Y 3196   5.947   6.401  14.640  0.2882  0.7928 -1.2458
   25DOPE   C39 3197   5.795   6.418  14.492  0.0444 -0.2449  0.5001
   25DOPE   H9X 3198   5.755   6.516  14.520 -1.5045 -0.4366 -0.8612
   25DOPE  C310 3199   5.769   6.373  14.363 -0.5194  0.5792 -0.2536
   25DOPE  H10X 3200   5.708   6.424  14.288 -0.6075  0.0327 -0.5593
   25DOPE  C311 3201   5.801   6.230  14.311 -0.3128 -0.0862  0.3272
   25DOPE  H11X 3202   5.838   6.238  14.207  0.5878  1.5718  0.7377
   25DOPE  H11Y 3203   5.880   6.184  14.375  0.4349 -1.5389 -1.5376
   25DOPE  C312 3204   5.684   6.131  14.311 -0.7076 -0.2003  0.1489
   25DOPE  H12X 3205   5.653   6.119  14.417  1.0553 -2.7128  0.4701
   25DOPE  H12Y 3206   5.707   6.027  14.279 -1.7276 -0.1598 -0.7576
   25DOPE  C313 3207   5.554   6.161  14.228  0.1966 -0.1406  0.1662
   25DOPE  H13X 3208   5.480   6.079  14.246  0.7033 -0.5797  0.2870
   25DOPE  H13Y 3209   5.512   6.258  14.263 -0.5387 -0.5376  0.4117
   25DOPE  C314 3210   5.576   6.182  14.076 -0.1698  0.0828  0.1969
   25DOPE  H14X 3211   5.601   6.081  14.038  0.9809  0.7388 -0.8784
   25DOPE  H14Y 3212   5.661   6.253  14.061 -0.7109  0.5686 -0.6014
   25DOPE  C315 3213   5.442   6.231  14.007 -0.0596 -0.7127 -0.0342
   25DOPE  H15X 3214   5.415   6.337  14.029 -0.1431 -0.2016 -2.3226
   25DOPE  H15Y 3215   5.361   6.164  14.041 -0.7191 -0.0574 -0.2814
   25DOPE  C316 3216   5.455   6.236  13.856 -0.6375 -0.7900  0.3403
   25DOPE  H16X 3217   5.519   6.317  13.812 -2.0760 -0.9826 -2.3355
   25DOPE  H16Y 3218   5.356   6.262  13.811 -1.2939  0.5117  2.4118
   25DOPE  C317 3219   5.495   6.103  13.793 -0.0714 -0.4853  0.0886
   25DOPE  H17X 3220   5.597   6.074  13.823  1.1049  2.9174 -0.1998
   25DOPE  H17Y 3221   5.424   6.033  13.842  1.5255 -1.9927  0.3468
   25DOPE  C318 3222   5.487   6.113  13.638 -0.9600 -0.8457 -0.6058
   25DOPE  H18X 3223   5.509   6.015  13.591  0.9484 -0.3044 -0.9001
   25DOPE  H18Y 3224   5.386   6.146  13.606 -1.7182 -0.3574  2.0442
   25DOPE  H18Z 3225   5.565   6.180  13.596 -1.7145  0.1960 -0.3811
   26DOPE     N 3226   6.701   6.707  16.135  0.0815  0.5042 -0.3532
   26DOPE   HN1 3227   6.753   6.723  16.223 -0.5603  0.4549  0.0366
   26DOPE   HN2 3228   6.602   6.730  16.158 -0.5441 -1.6167 -0.6526
   26DOPE   HN3 3229   6.708   6.604  16.121  0.8191  0.6871 -1.4443
   26DOPE   C12 3230   6.740   6.793  16.020 -0.1667  0.2370  0.0741
   26DOPE  H12A 3231   6.828   6.748  15.970  1.2498  0.0833  2.5225
   26DOPE  H12B 3232   6.785   6.889  16.053  4.0094 -0.7342 -2.2031
   26DOPE   C11 3233   6.630   6.805  15.914  0.6852  0.3905  0.8734
   26DOPE  H11A 3234   6.606   6.712  15.860  0.1143  0.3148  1.2603
   26DOPE  H11B 3235   6.673   6.876  15.840  3.0781 -1.6911  0.1335
   26DOPE     P 3236   6.378   6.804  15.978 -0.1527  0.2563 -0.4157
   26DOPE   O13 3237   6.280   6.899  16.041 -0.6599 -0.6328 -0.1489
   26DOPE   O14 3238   6.390   6.671  16.039 -0.2449  0.2736 -0.7136
   26DOPE   O11 3239   6.345   6.789  15.830  0.1783 -0.6945  0.3781
   26DOPE   O12 3240   6.520   6.871  15.977 -0.2331 -0.5568  0.0763
   26DOPE    C1 3241   6.354   6.904  15.746  0.8115  0.0577 -0.3896
   26DOPE    HA 3242   6.458   6.932  15.720  1.0257 -1.1828 -0.9664
   26DOPE    HB 3243   6.311   6.996  15.791  0.2017 -0.0652 -0.7106
   26DOPE    C2 3244   6.284   6.873  15.612  0.5424  0.4649  0.9878
   26DOPE    HS 3245   6.249   6.769  15.630  0.1154  0.7097  1.5894
   26DOPE   O21 3246   6.361   6.880  15.486 -0.1002 -0.5794  0.1951
   26DOPE   C21 3247   6.468   6.799  15.474 -0.2153 -0.1304 -0.0132
   26DOPE   O22 3248   6.519   6.733  15.559 -0.1651  0.6607 -0.4769
   26DOPE   C22 3249   6.508   6.786  15.324  0.3732  0.5351  0.1610
   26DOPE   H2R 3250   6.460   6.871  15.271 -1.0037  1.1189  2.2065
   26DOPE   H2S 3251   6.460   6.690  15.295 -0.5654  1.0446 -0.0164
   26DOPE    C3 3252   6.149   6.955  15.589  0.3356 -0.3773 -0.3032
   26DOPE    HX 3253   6.154   7.051  15.645 -1.2540 -1.2842  1.5200
   26DOPE    HY 3254   6.072   6.896  15.644 -0.8862  0.2736 -1.2771
   26DOPE   O31 3255   6.119   6.993  15.458 -0.1255  0.0660  0.2167
   26DOPE   C31 3256   6.117   6.894  15.371 -0.6887  0.3085 -0.2484
   26DOPE   O32 3257   6.107   6.775  15.392 -0.8207 -0.5662  0.3533
   26DOPE   C32 3258   6.141   6.957  15.229  0.1199  0.2099 -0.6018
   26DOPE   H2X 3259   6.059   7.030  15.212 -0.4452 -0.9975 -3.8489
   26DOPE   H2Y 3260   6.236   7.015  15.221  0.1041  0.1961 -0.8874
   26DOPE   C23 3261   6.661   6.776  15.306  0.3265 -0.5568  0.2947
   26DOPE   H3R 3262   6.706   6.708  15.381  1.8778  0.0591 -0.0370
   26DOPE   H3S 3263   6.705   6.877  15.323  0.6556 -0.7988  0.8847
   26DOPE   C24 3264   6.695   6.727  15.165  0.0395  0.3928 -0.2719
   26DOPE   H4R 3265   6.631   6.639  15.144  0.0920  0.2493  0.1663
   26DOPE   H4S 3266   6.803   6.703  15.171  0.3826  1.8718 -0.2065
   26DOPE   C25 3267   6.681   6.831  15.052  0.0273 -0.3795 -0.6777
   26DOPE   H5R 3268   6.735   6.926  15.072  1.3606 -1.6802  2.4523
   26DOPE   H5S 3269   6.573   6.854  15.048 -0.4137 -2.2417 -0.5103
   26DOPE   C26 3270   6.701   6.773  14.915  0.2488  0.1605 -0.3013
   26DOPE   H6R 3271   6.633   6.688  14.896  0.2683  0.5661 -2.4062
   26DOPE   H6S 3272   6.802   6.729  14.931 -1.3545 -2.8067  3.0808
   26DOPE   C27 3273   6.696   6.877  14.804  0.0116 -0.1127 -0.1867
   26DOPE   H7R 3274   6.767   6.959  14.830  0.7010 -0.8877  0.4408
   26DOPE   H7S 3275   6.601   6.934  14.807  0.1043  0.0082  1.1097
   26DOPE   C28 3276   6.728   6.815  14.666 -0.1976  0.5836 -0.2670
   26DOPE   H8R 3277   6.807   6.737  14.668 -0.1694  0.5398 -1.8118
   26DOPE   H8S 3278   6.783   6.896  14.614 -1.1343  0.8066 -0.9503
   26DOPE   C29 3279   6.611   6.763  14.588  0.1213  0.2295  0.6307
   26DOPE   H9R 3280   6.552   6.692  14.649  2.1545 -1.3636  0.8440
   26DOPE  C210 3281   6.555   6.813  14.475 -0.4235 -0.1774  0.0514
   26DOPE  H10R 3282   6.465   6.769  14.431  0.5520 -0.7959 -1.4053
   26DOPE  C211 3283   6.606   6.927  14.396 -0.2339  0.9316  0.0406
   26DOPE  H11R 3284   6.699   6.974  14.433 -0.9115  2.1730  0.2418
   26DOPE  H11S 3285   6.530   7.008  14.388 -1.6408 -0.3637 -0.2023
   26DOPE  C212 3286   6.637   6.893  14.249 -0.1080  0.5928 -0.3150
   26DOPE  H12R 3287   6.554   6.834  14.204 -1.5399 -0.0017  2.8045
   26DOPE  H12S 3288   6.708   6.808  14.258 -0.1731  0.6836  1.7430
   26DOPE  C213 3289   6.683   7.008  14.175  0.3953 -0.4435 -0.0255
   26DOPE  H13R 3290   6.764   7.070  14.220 -0.5233  0.5106  0.3461
   26DOPE  H13S 3291   6.596   7.077  14.169  1.7843  1.7495  2.7545
   26DOPE  C214 3292   6.723   6.983  14.032 -0.1479 -0.4535  0.6915
   26DOPE  H14R 3293   6.657   6.907  13.983 -0.3207 -0.4787  0.9576
   26DOPE  H14S 3294   6.828   6.950  14.024 -0.1440 -0.7378  1.7470
   26DOPE  C215 3295   6.677   7.109  13.955 -0.0792 -0.7476  0.7140
   26DOPE  H15R 3296   6.725   7.200  13.996 -1.0095  0.8555 -1.5314
   26DOPE  H15S 3297   6.569   7.115  13.979  0.1070  2.7050  1.1734
   26DOPE  C216 3298   6.686   7.102  13.806 -0.2130  0.4117 -0.4142
   26DOPE  H16R 3299   6.652   7.000  13.777  1.3806 -0.3951  0.4666
   26DOPE  H16S 3300   6.787   7.123  13.765  1.7595 -1.9547  2.7053
   26DOPE  C217 3301   6.586   7.197  13.737  0.4037  0.2728  0.1978
   26DOPE  H17R 3302   6.620   7.299  13.762  2.3184 -0.3691  0.3495
   26DOPE  H17S 3303   6.486   7.198  13.787  0.8469  0.6288  1.0921
   26DOPE  C218 3304   6.570   7.188  13.589 -0.1410  0.2125  0.1527
   26DOPE  H18R 3305   6.524   7.285  13.561  2.4332  1.3192 -0.5425
   26DOPE  H18S 3306   6.509   7.104  13.549 -1.4785  1.7745 -1.2635
   26DOPE  H18T 3307   6.663   7.175  13.531 -0.5621  3.0971 -1.3220
   26DOPE   C33 3308   6.138   6.853  15.113  0.5641 -0.5518 -0.2853
   26DOPE   H3X 3309   6.074   6.765  15.133 -0.1202 -0.5362 -2.2817
   26DOPE   H3Y 3310   6.236   6.802  15.101  0.1971 -1.5345  0.6771
   26DOPE   C34 3311   6.114   6.918  14.977  0.2989 -0.0600 -0.1685
   26DOPE   H4X 3312   6.006   6.935  14.956 -0.1494 -0.6564  1.4974
   26DOPE   H4Y 3313   6.178   7.008  14.967 -1.7406  1.4202 -0.5198
   26DOPE   C35 3314   6.165   6.823  14.862  0.5298 -0.9074 -0.0300
   26DOPE   H5X 3315   6.088   6.744  14.848  0.2510 -0.6912  0.2623
   26DOPE   H5Y 3316   6.267   6.788  14.890  1.0229  1.2147  1.1061
   26DOPE   C36 3317   6.179   6.917  14.734  0.4814  0.3709 -0.7015
   26DOPE   H6X 3318   6.245   7.004  14.755 -0.6854  1.2217 -0.4685
   26DOPE   H6Y 3319   6.084   6.974  14.734  1.0102  1.3178  0.7765
   26DOPE   C37 3320   6.216   6.833  14.610 -0.2986 -0.8010 -0.0086
   26DOPE   H7X 3321   6.315   6.788  14.631  0.0908  0.4951  1.0586
   26DOPE   H7Y 3322   6.131   6.761  14.603  0.3002 -1.7916  2.0531
   26DOPE   C38 3323   6.230   6.923  14.479  0.2204  0.2561  0.1678
   26DOPE   H8X 3324   6.242   6.861  14.388  1.4254 -0.8348  1.0405
   26DOPE   H8Y 3325   6.326   6.978  14.491 -0.1521  0.4865  2.4118
   26DOPE   C39 3326   6.114   7.014  14.441 -0.1314  0.3264  0.1846
   26DOPE   H9X 3327   6.039   7.028  14.521  0.2845 -0.7046  0.7792
   26DOPE  C310 3328   6.094   7.077  14.323  0.3521 -0.1277  0.0531
   26DOPE  H10X 3329   6.009   7.145  14.308  0.7796  0.4316  0.1533
   26DOPE  C311 3330   6.192   7.068  14.207  0.2812 -0.2314 -0.2246
   26DOPE  H11X 3331   6.207   7.165  14.154 -0.4301  0.1010  0.1619
   26DOPE  H11Y 3332   6.292   7.035  14.243  0.2979  1.1906  1.1471
   26DOPE  C312 3333   6.133   6.975  14.097 -0.0944 -0.1282  0.0736
   26DOPE  H12X 3334   6.033   7.018  14.074  0.2331  1.2507  1.1356
   26DOPE  H12Y 3335   6.123   6.876  14.148  0.2133  0.5893  1.5631
   26DOPE  C313 3336   6.219   6.952  13.972 -0.4911 -0.0072 -0.3510
   26DOPE  H13X 3337   6.327   6.953  13.996 -0.4708  2.9996 -0.2694
   26DOPE  H13Y 3338   6.194   6.852  13.930  0.5986  0.8254 -3.2436
   26DOPE  C314 3339   6.199   7.065  13.865  0.2399  0.2119 -0.0970
   26DOPE  H14X 3340   6.280   7.059  13.789  0.3498  2.2581 -0.1969
   26DOPE  H14Y 3341   6.221   7.163  13.914 -0.2391  0.3906 -0.2424
   26DOPE  C315 3342   6.068   7.085  13.796  0.7568 -0.2072  0.2735
   26DOPE  H15X 3343   6.003   7.107  13.883  1.6501 -0.9648  1.1454
   26DOPE  H15Y 3344   6.029   6.997  13.740 -3.1454  1.0155  0.7752
   26DOPE  C316 3345   6.058   7.205  13.703 -0.4854 -0.9092 -0.6729
   26DOPE  H16X 3346   6.091   7.295  13.759  1.3082 -0.1177 -2.8493
   26DOPE  H16Y 3347   5.952   7.213  13.670 -0.2612  2.0621 -0.9718
   26DOPE  C317 3348   6.143   7.182  13.579 -0.4453 -0.0051  0.3672
   26DOPE  H17X 3349   6.245   7.146  13.600 -1.3402 -2.9832  0.0461
   26DOPE  H17Y 3350   6.087   7.102  13.526 -0.0763 -0.9060  1.3205
   26DOPE  C318 3351   6.155   7.310  13.492  0.1781  0.1178  0.6314
   26DOPE  H18X 3352   6.217   7.392  13.534 -2.2295  2.4438 -0.1284
   26DOPE  H18Y 3353   6.201   7.273  13.397 -1.3855 -1.4182  0.4273
   26DOPE  H18Z 3354   6.054   7.339  13.456  0.5063 -0.7051 -1.0438
   27DOPE     N 3355   3.229   0.077  15.623  0.2286  0.0013 -0.3706
   27DOPE   HN1 3356   3.233  -0.025  15.644  2.7071 -0.4485 -2.4650
   27DOPE   HN2 3357   3.145   0.113  15.672  0.8885  0.4937  0.4520
   27DOPE   HN3 3358   3.224   0.065  15.520 -0.7178 -1.5300 -0.1718
   27DOPE   C12 3359   3.362   0.136  15.671 -0.0401  0.4320 -0.0155
   27DOPE  H12A 3360   3.358   0.145  15.782 -0.9481  0.8975 -0.0771
   27DOPE  H12B 3361   3.373   0.243  15.646  0.2749  1.1487  2.8039
   27DOPE   C11 3362   3.476   0.041  15.641 -0.0648 -0.1349 -0.3197
   27DOPE  H11A 3363   3.571   0.085  15.678  0.2881 -1.7747  0.8107
   27DOPE  H11B 3364   3.494   0.035  15.531  1.0743  0.5184 -0.1826
   27DOPE     P 3365   3.520  -0.142  15.821  0.1683 -0.1361  0.2969
   27DOPE   O13 3366   3.447  -0.261  15.874  0.4097  0.3721  0.0161
   27DOPE   O14 3367   3.540  -0.029  15.903  0.0788 -0.4150  0.0359
   27DOPE   O11 3368   3.650  -0.176  15.751  0.3105 -0.0199  0.3235
   27DOPE   O12 3369   3.452  -0.092  15.689 -0.9325 -0.2631 -0.2402
   27DOPE    C1 3370   3.685  -0.305  15.703 -0.2859  0.1233 -0.3381
   27DOPE    HA 3371   3.607  -0.380  15.726 -0.7613  1.0043  1.0492
   27DOPE    HB 3372   3.774  -0.340  15.759  1.0044  2.5931 -0.6534
   27DOPE    C2 3373   3.698  -0.311  15.548  0.0224 -0.3021  0.5282
   27DOPE    HS 3374   3.782  -0.246  15.516 -2.8424  3.7848  0.3982
   27DOPE   O21 3375   3.577  -0.273  15.487  0.3787  0.0699  0.6561
   27DOPE   C21 3376   3.596  -0.178  15.393  0.2228  0.6354  0.6565
   27DOPE   O22 3377   3.701  -0.125  15.358  0.2026  1.0773  0.4011
   27DOPE   C22 3378   3.460  -0.148  15.330 -0.8133 -0.2920  0.1496
   27DOPE   H2R 3379   3.392  -0.107  15.408  0.3194  2.7439 -0.3417
   27DOPE   H2S 3380   3.414  -0.238  15.284 -0.0204  0.0034 -1.2826
   27DOPE    C3 3381   3.740  -0.452  15.500 -0.0734  0.1218  0.2920
   27DOPE    HX 3382   3.666  -0.527  15.534  1.0334 -1.1913 -0.1407
   27DOPE    HY 3383   3.841  -0.464  15.545  1.2321  0.5645 -2.3239
   27DOPE   O31 3384   3.765  -0.454  15.355 -0.5358 -0.0568  0.1083
   27DOPE   C31 3385   3.660  -0.489  15.275  0.2093 -0.3570 -0.1478
   27DOPE   O32 3386   3.553  -0.519  15.315 -0.0566  0.2592  0.4789
   27DOPE   C32 3387   3.699  -0.467  15.131  0.6635 -0.4767  0.0104
   27DOPE   H2X 3388   3.739  -0.363  15.138  0.8109 -0.5135 -0.3137
   27DOPE   H2Y 3389   3.783  -0.531  15.097 -1.1089 -1.4507 -2.7865
   27DOPE   C23 3390   3.472  -0.030  15.222  0.6920  0.6866 -0.2801
   27DOPE   H3R 3391   3.518   0.058  15.272 -1.6495  0.0897  3.2937
   27DOPE   H3S 3392   3.372   0.002  15.188  0.2842  0.5496  0.7626
   27DOPE   C24 3393   3.544  -0.079  15.096  0.0582 -0.4160 -0.8665
   27DOPE   H4R 3394   3.497  -0.166  15.046 -0.4629 -0.3401 -0.5193
   27DOPE   H4S 3395   3.648  -0.110  15.119  0.2707 -0.1238 -1.4150
   27DOPE   C25 3396   3.554   0.034  15.001 -0.0434 -0.3875 -0.2959
   27DOPE   H5R 3397   3.598   0.127  15.044  0.1409 -0.7947  0.4011
   27DOPE   H5S 3398   3.451   0.062  14.971  0.7784 -1.9988 -5.8355
   27DOPE   C26 3399   3.634  -0.004  14.879 -0.6442  0.0857  0.3939
   27DOPE   H6R 3400   3.615  -0.110  14.851 -0.0380 -0.0526  0.4955
   27DOPE   H6S 3401   3.744   0.004  14.897 -0.2438 -0.8950 -1.3645
   27DOPE   C27 3402   3.611   0.074  14.747  0.4478 -0.5928  0.7228
   27DOPE   H7R 3403   3.634   0.180  14.766  2.0513 -0.7310 -0.2320
   27DOPE   H7S 3404   3.506   0.070  14.711  1.1367 -2.0129 -1.3174
   27DOPE   C28 3405   3.702   0.022  14.631  0.0195  0.4316 -0.2248
   27DOPE   H8R 3406   3.679  -0.085  14.614  3.3871 -0.4383 -0.1804
   27DOPE   H8S 3407   3.811   0.017  14.656  0.0315 -2.8473 -0.5099
   27DOPE   C29 3408   3.665   0.084  14.501 -0.2130  0.4783  0.3380
   27DOPE   H9R 3409   3.563   0.067  14.462  0.1473  1.2472 -1.0108
   27DOPE  C210 3410   3.743   0.159  14.414  0.1086 -0.1158  0.6079
   27DOPE  H10R 3411   3.696   0.207  14.326  1.9660  0.9963  0.1532
   27DOPE  C211 3412   3.887   0.206  14.432 -0.2011 -0.2260 -0.6941
   27DOPE  H11R 3413   3.938   0.138  14.503  0.9466 -0.3566 -1.6084
   27DOPE  H11S 3414   3.882   0.307  14.477  1.1983  0.0096 -1.0212
   27DOPE  C212 3415   3.976   0.212  14.304 -0.3481  0.5291 -0.0870
   27DOPE  H12R 3416   3.947   0.120  14.250  0.7035 -0.5266  1.0822
   27DOPE  H12S 3417   4.086   0.206  14.321  0.0210  2.0362 -1.5722
   27DOPE  C213 3418   3.960   0.333  14.209  0.0492 -0.1892 -0.6564
   27DOPE  H13R 3419   3.995   0.433  14.245  0.6508 -1.0658  1.3176
   27DOPE  H13S 3420   3.850   0.349  14.200  0.0516  1.1799  0.9867
   27DOPE  C214 3421   4.018   0.302  14.072 -0.3840 -0.2563  0.1718
   27DOPE  H14R 3422   3.987   0.197  14.055  0.3204 -0.8779  2.4149
   27DOPE  H14S 3423   4.128   0.319  14.069 -0.5254  0.6372 -1.0767
   27DOPE  C215 3424   3.954   0.384  13.954 -1.0348 -0.0142  0.1693
   27DOPE  H15R 3425   3.982   0.488  13.981  0.0078  0.3684 -2.1040
   27DOPE  H15S 3426   3.843   0.378  13.945 -1.0668  0.4070  0.2525
   27DOPE  C216 3427   4.014   0.343  13.814  0.0465 -0.2606 -1.0973
   27DOPE  H16R 3428   4.125   0.350  13.806 -0.0558  0.6587 -1.8855
   27DOPE  H16S 3429   3.987   0.427  13.747 -0.8498 -0.1291 -0.5858
   27DOPE  C217 3430   3.972   0.210  13.766  0.8098  0.4534 -0.5905
   27DOPE  H17R 3431   3.863   0.217  13.746 -0.5036 -1.6883  4.2511
   27DOPE  H17S 3432   3.977   0.138  13.850 -1.0312  2.4018  1.3317
   27DOPE  C218 3433   4.059   0.149  13.653 -0.1559 -0.7621  0.3101
   27DOPE  H18R 3434   3.999   0.074  13.598 -2.0477  1.3750 -0.7139
   27DOPE  H18S 3435   4.152   0.103  13.692 -0.4121  0.1209  2.0984
   27DOPE  H18T 3436   4.080   0.227  13.577 -2.3316  0.1292  0.5422
   27DOPE   C33 3437   3.575  -0.475  15.040 -0.3091 -0.1507  0.2390
   27DOPE   H3X 3438   3.502  -0.391  15.042  0.1677  0.4159 -2.0698
   27DOPE   H3Y 3439   3.525  -0.573  15.056  0.4299 -0.4848  0.5330
   27DOPE   C34 3440   3.642  -0.467  14.906  0.3941 -0.0976  0.3386
   27DOPE   H4X 3441   3.719  -0.388  14.896  0.4542 -0.2180 -0.1766
   27DOPE   H4Y 3442   3.693  -0.564  14.886 -1.8563 -1.6972  1.8751
   27DOPE   C35 3443   3.538  -0.441  14.790  0.3789  0.2875  0.2549
   27DOPE   H5X 3444   3.477  -0.355  14.824 -0.1086 -0.1052  0.3840
   27DOPE   H5Y 3445   3.487  -0.538  14.771  0.7784  0.1630 -0.2040
   27DOPE   C36 3446   3.601  -0.402  14.657  0.6474 -0.3199 -0.0258
   27DOPE   H6X 3447   3.649  -0.497  14.627 -2.6586 -1.9381 -0.6700
   27DOPE   H6Y 3448   3.676  -0.320  14.661  0.4353 -0.1219 -0.0591
   27DOPE   C37 3449   3.493  -0.382  14.553 -0.7136 -0.2152  0.4760
   27DOPE   H7X 3450   3.403  -0.446  14.559 -0.1555 -0.9522  1.2480
   27DOPE   H7Y 3451   3.462  -0.276  14.570 -1.5562 -0.4625  0.4922
   27DOPE   C38 3452   3.558  -0.400  14.407  0.2930 -0.1272 -1.5909
   27DOPE   H8X 3453   3.590  -0.506  14.403  3.1085  0.6611 -1.7029
   27DOPE   H8Y 3454   3.642  -0.327  14.408  0.3943 -0.2202  0.4337
   27DOPE   C39 3455   3.452  -0.354  14.310 -0.0424 -0.3131 -0.3529
   27DOPE   H9X 3456   3.420  -0.253  14.340  0.8369 -0.5017  1.3315
   27DOPE  C310 3457   3.398  -0.409  14.207  0.5073 -0.7440 -0.1069
   27DOPE  H10X 3458   3.323  -0.351  14.151 -0.9921 -2.7862 -0.3829
   27DOPE  C311 3459   3.444  -0.533  14.139  0.3057  0.8291  0.4463
   27DOPE  H11X 3460   3.543  -0.565  14.177 -0.6452 -1.9642  0.8089
   27DOPE  H11Y 3461   3.370  -0.615  14.152  1.2826  0.0723  1.4021
   27DOPE  C312 3462   3.455  -0.503  13.988  0.0174 -1.4711  0.1914
   27DOPE  H12X 3463   3.357  -0.465  13.954  0.9852  0.8243 -0.2243
   27DOPE  H12Y 3464   3.469  -0.602  13.940 -2.4587 -1.1238 -1.3857
   27DOPE  C313 3465   3.560  -0.394  13.951 -0.5880 -0.4934 -0.0381
   27DOPE  H13X 3466   3.547  -0.304  14.014 -0.7913 -1.0343  0.7104
   27DOPE  H13Y 3467   3.667  -0.419  13.969  0.2305  1.4314 -1.7764
   27DOPE  C314 3468   3.552  -0.335  13.808  0.4470 -0.3029 -0.4545
   27DOPE  H14X 3469   3.634  -0.262  13.790 -0.1019  0.5725  0.5038
   27DOPE  H14Y 3470   3.454  -0.287  13.787  0.6736 -0.8848 -3.2295
   27DOPE  C315 3471   3.564  -0.440  13.695  0.4585  0.0552  0.4633
   27DOPE  H15X 3472   3.476  -0.507  13.688  0.8976 -0.7178  1.9006
   27DOPE  H15Y 3473   3.649  -0.506  13.721  1.6068 -0.0691 -3.1223
   27DOPE  C316 3474   3.592  -0.372  13.562  0.0088 -0.2315  0.1839
   27DOPE  H16X 3475   3.700  -0.348  13.552  0.9124 -4.1070 -1.2864
   27DOPE  H16Y 3476   3.531  -0.279  13.556 -1.2062 -0.8334  2.3193
   27DOPE  C317 3477   3.556  -0.461  13.436  0.2676 -0.3155 -0.6325
   27DOPE  H17X 3478   3.633  -0.540  13.418  1.0206 -0.5098  2.7468
   27DOPE  H17Y 3479   3.459  -0.509  13.461  0.0423  1.0950  1.3840
   27DOPE  C318 3480   3.544  -0.381  13.309  0.1772 -0.1291  0.4625
   27DOPE  H18X 3481   3.476  -0.297  13.335  0.3687 -0.0438  0.6931
   27DOPE  H18Y 3482   3.633  -0.328  13.268 -1.8420  2.3514 -1.0206
   27DOPE  H18Z 3483   3.496  -0.449  13.236  1.9190 -0.2473 -0.6481
   28DOPE     N 3484   4.088   0.706  15.747 -0.6050 -0.3630 -0.7033
   28DOPE   HN1 3485   4.088   0.805  15.780 -0.4304 -0.7966  0.6588
   28DOPE   HN2 3486   3.999   0.688  15.696 -0.4655 -2.5276 -0.2650
   28DOPE   HN3 3487   4.089   0.641  15.828 -1.3676  1.3574  0.7339
   28DOPE   C12 3488   4.204   0.680  15.648  0.4498 -0.4242 -0.1197
   28DOPE  H12A 3489   4.294   0.653  15.706 -0.0965 -3.2869 -0.4708
   28DOPE  H12B 3490   4.217   0.774  15.590 -2.3719  0.8750  1.1629
   28DOPE   C11 3491   4.169   0.560  15.562  0.8514 -0.0467  0.0707
   28DOPE  H11A 3492   4.237   0.557  15.474  1.2931 -0.5935  0.4270
   28DOPE  H11B 3493   4.067   0.588  15.528  1.6666  0.8649 -1.8021
   28DOPE     P 3494   4.289   0.343  15.635 -0.1488 -0.1208 -0.2783
   28DOPE   O13 3495   4.244   0.206  15.653 -0.2764  0.0977  0.1750
   28DOPE   O14 3496   4.395   0.384  15.730 -0.3803 -0.3901  0.5577
   28DOPE   O11 3497   4.342   0.354  15.488  0.1707  0.1429 -0.1405
   28DOPE   O12 3498   4.164   0.440  15.635  0.3148  0.0639  0.1494
   28DOPE    C1 3499   4.280   0.285  15.377  0.4948 -0.4018 -0.6458
   28DOPE    HA 3500   4.174   0.318  15.371  1.6491  3.8846 -1.5916
   28DOPE    HB 3501   4.287   0.175  15.381  1.5338 -0.3972 -1.7578
   28DOPE    C2 3502   4.345   0.323  15.247 -0.5187  0.4919 -0.0892
   28DOPE    HS 3503   4.454   0.330  15.265 -0.4045  1.8100 -1.1490
   28DOPE   O21 3504   4.300   0.449  15.195  0.7704  0.1450 -0.0650
   28DOPE   C21 3505   4.393   0.522  15.127 -0.5250  0.2883 -0.3829
   28DOPE   O22 3506   4.503   0.486  15.106  0.0787 -0.2246 -0.6231
   28DOPE   C22 3507   4.327   0.639  15.072  0.7714 -0.3873  0.2534
   28DOPE   H2R 3508   4.402   0.718  15.047 -0.9382  1.2070 -0.0909
   28DOPE   H2S 3509   4.265   0.687  15.150  0.9601  1.5113 -0.7049
   28DOPE    C3 3510   4.309   0.211  15.151  0.0512  0.1745 -0.2694
   28DOPE    HX 3511   4.198   0.215  15.141 -0.2102 -3.7143 -0.4993
   28DOPE    HY 3512   4.327   0.113  15.200  1.6460  0.5583 -0.0395
   28DOPE   O31 3513   4.359   0.216  15.024  0.1658  0.7171  0.6847
   28DOPE   C31 3514   4.482   0.180  15.006  0.1130 -0.2334 -0.4532
   28DOPE   O32 3515   4.550   0.129  15.097  0.0266 -0.3303 -0.3037
   28DOPE   C32 3516   4.542   0.218  14.870  0.2245  1.1420  0.2045
   28DOPE   H2X 3517   4.523   0.326  14.854 -1.6113  0.7405 -0.5830
   28DOPE   H2Y 3518   4.645   0.180  14.855  0.9484  3.0909 -0.0423
   28DOPE   C23 3519   4.227   0.620  14.951  0.0017  0.0930  0.2643
   28DOPE   H3R 3520   4.198   0.722  14.918 -1.4730 -1.1551 -2.7098
   28DOPE   H3S 3521   4.132   0.574  14.986  0.2682 -0.2039  0.6165
   28DOPE   C24 3522   4.278   0.553  14.829  0.1616 -0.1353 -0.9674
   28DOPE   H4R 3523   4.198   0.539  14.753  1.4163  2.0298 -2.8115
   28DOPE   H4S 3524   4.309   0.449  14.850  0.0881  0.0007 -0.1563
   28DOPE   C25 3525   4.385   0.637  14.765  0.1086 -0.1582  0.7060
   28DOPE   H5R 3526   4.466   0.668  14.835 -0.2496  0.9006  0.6730
   28DOPE   H5S 3527   4.339   0.724  14.715  3.3638  0.5567 -1.3499
   28DOPE   C26 3528   4.452   0.560  14.647 -0.6258  0.1927  0.7042
   28DOPE   H6R 3529   4.524   0.482  14.680  0.1311  0.5482 -0.0517
   28DOPE   H6S 3530   4.521   0.637  14.604  1.2788 -2.5239 -1.5008
   28DOPE   C27 3531   4.359   0.518  14.533 -0.2332 -0.4358 -0.1124
   28DOPE   H7R 3532   4.278   0.592  14.516  0.6895  0.4521 -0.7061
   28DOPE   H7S 3533   4.308   0.422  14.558 -1.7452 -0.0126 -1.3712
   28DOPE   C28 3534   4.445   0.517  14.403  0.1315 -0.7624 -0.0409
   28DOPE   H8R 3535   4.541   0.467  14.428 -0.6546 -1.0634  2.7140
   28DOPE   H8S 3536   4.472   0.621  14.373 -2.2889 -0.1084 -0.1274
   28DOPE   C29 3537   4.364   0.459  14.289 -0.3859  0.7200 -0.4838
   28DOPE   H9R 3538   4.312   0.366  14.315  2.8937 -1.4140 -0.9661
   28DOPE  C210 3539   4.347   0.508  14.167  0.0262  0.0764  0.1871
   28DOPE  H10R 3540   4.280   0.459  14.096 -1.5171  0.5182  1.2704
   28DOPE  C211 3541   4.411   0.634  14.115  0.6185 -0.0964 -0.0489
   28DOPE  H11R 3542   4.487   0.605  14.040 -1.0366  0.7054 -2.1527
   28DOPE  H11S 3543   4.463   0.698  14.189  2.2952  1.2070 -2.2241
   28DOPE  C212 3544   4.314   0.732  14.038 -0.4386 -0.7888 -0.5927
   28DOPE  H12R 3545   4.372   0.822  14.007 -1.8316  0.5409  0.5043
   28DOPE  H12S 3546   4.241   0.755  14.119  1.3471 -1.3362  1.2918
   28DOPE  C213 3547   4.235   0.685  13.916 -0.6808  0.0415  0.2732
   28DOPE  H13R 3548   4.193   0.584  13.935 -1.0838  0.0008 -0.7738
   28DOPE  H13S 3549   4.315   0.676  13.839 -2.0142  0.3768 -1.2015
   28DOPE  C214 3550   4.115   0.768  13.867  0.3626  0.2741 -1.0616
   28DOPE  H14R 3551   4.045   0.791  13.950 -0.3182  0.5126 -1.6877
   28DOPE  H14S 3552   4.048   0.711  13.799 -0.8328  0.9875 -0.5274
   28DOPE  C215 3553   4.166   0.893  13.810 -0.1123  0.9956  0.3964
   28DOPE  H15R 3554   4.216   0.874  13.713 -0.5517  1.0508  0.1559
   28DOPE  H15S 3555   4.246   0.933  13.875  1.6639 -2.7144  0.7363
   28DOPE  C216 3556   4.045   0.980  13.789  0.4878  0.4188  0.0212
   28DOPE  H16R 3557   3.984   0.967  13.881 -2.7837 -0.6357 -2.1232
   28DOPE  H16S 3558   3.982   0.935  13.710  1.1420  0.5234 -0.5697
   28DOPE  C217 3559   4.056   1.126  13.741  0.0627 -0.2326  0.1041
   28DOPE  H17R 3560   4.117   1.123  13.648 -1.4696 -0.6782 -0.9214
   28DOPE  H17S 3561   4.098   1.184  13.827  3.9801 -2.0663 -0.3390
   28DOPE  C218 3562   3.909   1.175  13.708 -0.0311  0.3648 -0.5342
   28DOPE  H18R 3563   3.876   1.124  13.615  1.7923  0.0913 -1.0834
   28DOPE  H18S 3564   3.912   1.284  13.690  1.2299  0.3698 -0.4443
   28DOPE  H18T 3565   3.839   1.156  13.792  2.1168  0.4104  1.3626
   28DOPE   C33 3566   4.457   0.151  14.759  0.3119 -0.0783 -0.4425
   28DOPE   H3X 3567   4.354   0.193  14.757  0.3937  0.3305  1.8471
   28DOPE   H3Y 3568   4.433   0.047  14.786 -2.0737 -0.4200 -3.2975
   28DOPE   C34 3569   4.540   0.160  14.629 -0.0327 -0.5997 -0.9753
   28DOPE   H4X 3570   4.526   0.268  14.606  0.4163  1.1656  5.2827
   28DOPE   H4Y 3571   4.650   0.154  14.647 -0.1747 -1.8665 -0.4401
   28DOPE   C35 3572   4.499   0.066  14.523  0.1837 -0.2591 -0.9348
   28DOPE   H5X 3573   4.388   0.055  14.524  0.1920 -0.3072 -0.5609
   28DOPE   H5Y 3574   4.533  -0.038  14.540 -0.7213 -0.6099 -1.1923
   28DOPE   C36 3575   4.545   0.102  14.382  0.0538 -0.0799 -0.5024
   28DOPE   H6X 3576   4.646   0.056  14.370  0.4790  0.4480  0.8402
   28DOPE   H6Y 3577   4.552   0.213  14.379  0.0389  0.2868  4.5908
   28DOPE   C37 3578   4.441   0.056  14.268  0.0358 -0.1809  0.6619
   28DOPE   H7X 3579   4.383  -0.029  14.309 -0.9429  0.3723  0.4591
   28DOPE   H7Y 3580   4.371   0.142  14.258  1.0192  0.4307 -1.5584
   28DOPE   C38 3581   4.505   0.012  14.133  0.5432  0.6724  0.3910
   28DOPE   H8X 3582   4.537  -0.094  14.144  0.8290  0.8651  1.6059
   28DOPE   H8Y 3583   4.594   0.078  14.132 -0.8592  2.7577  2.3988
   28DOPE   C39 3584   4.421   0.025  14.013 -0.7233 -0.1177  0.4148
   28DOPE   H9X 3585   4.323  -0.023  14.023 -0.4916 -1.0139 -1.2649
   28DOPE  C310 3586   4.422   0.110  13.910  0.4609  0.6248  0.3043
   28DOPE  H10X 3587   4.341   0.099  13.837  2.6507 -0.5182 -2.1191
   28DOPE  C311 3588   4.532   0.216  13.890 -0.2702  0.4162  0.6857
   28DOPE  H11X 3589   4.481   0.315  13.898 -0.7251  0.4894 -2.1051
   28DOPE  H11Y 3590   4.618   0.213  13.960 -0.4447  0.8185  0.9219
   28DOPE  C312 3591   4.598   0.207  13.745 -0.5416 -0.1540 -0.4127
   28DOPE  H12X 3592   4.651   0.110  13.742  1.9017  0.6455  5.0686
   28DOPE  H12Y 3593   4.670   0.291  13.736 -0.2646 -0.2452  0.7830
   28DOPE  C313 3594   4.507   0.220  13.628 -0.1634 -1.1489  0.7408
   28DOPE  H13X 3595   4.571   0.225  13.537 -0.5249  2.6040  0.5233
   28DOPE  H13Y 3596   4.450   0.126  13.613  2.5562 -2.7776 -0.2041
   28DOPE  C314 3597   4.414   0.340  13.625  0.1421 -0.4560 -0.6267
   28DOPE  H14X 3598   4.470   0.436  13.623 -1.0995  0.2908 -0.3222
   28DOPE  H14Y 3599   4.347   0.344  13.714 -0.0795 -1.0820 -0.7592
   28DOPE  C315 3600   4.331   0.340  13.495 -0.1814  0.0684 -0.2282
   28DOPE  H15X 3601   4.269   0.251  13.474  0.3939 -0.2236 -0.7135
   28DOPE  H15Y 3602   4.399   0.353  13.408  0.6731 -1.1142  0.2344
   28DOPE  C316 3603   4.237   0.460  13.500  0.7323 -0.1444  0.2619
   28DOPE  H16X 3604   4.303   0.546  13.526  0.6528 -0.3388  1.1649
   28DOPE  H16Y 3605   4.159   0.456  13.579 -0.1861 -0.5633 -0.6388
   28DOPE  C317 3606   4.170   0.496  13.362 -0.1987  0.8279 -0.7626
   28DOPE  H17X 3607   4.243   0.486  13.279  0.0174  1.1477 -0.6128
   28DOPE  H17Y 3608   4.093   0.417  13.355  1.3179 -0.7015 -0.7462
   28DOPE  C318 3609   4.101   0.633  13.358 -0.3167  0.4648  0.3346
   28DOPE  H18X 3610   4.039   0.649  13.267  0.5946  1.1163 -0.1934
   28DOPE  H18Y 3611   4.038   0.649  13.448 -0.6403  2.2171 -0.1603
   28DOPE  H18Z 3612   4.181   0.710  13.351  1.0656 -0.8579  1.0079
   29DOPE     N 3613   6.079   2.073  16.149  0.0366  0.0582  0.5732
   29DOPE   HN1 3614   6.151   2.137  16.110 -0.4048 -0.1357 -0.6162
   29DOPE   HN2 3615   6.036   2.120  16.232  0.8384 -1.2253  1.7596
   29DOPE   HN3 3616   6.135   1.991  16.178  0.0775  0.1868  0.8667
   29DOPE   C12 3617   5.987   2.026  16.039  0.1616 -0.4555 -0.2288
   29DOPE  H12A 3618   6.038   2.040  15.942  0.8771 -0.8805  0.0831
   29DOPE  H12B 3619   5.894   2.087  16.045  2.7044  3.8539 -0.2251
   29DOPE   C11 3620   5.951   1.868  16.054  0.3516 -0.7313 -0.9886
   29DOPE  H11A 3621   6.044   1.807  16.064 -0.6898 -2.2389 -0.0645
   29DOPE  H11B 3622   5.900   1.853  15.957  1.6008  0.2750 -1.8330
   29DOPE     P 3623   5.730   1.850  16.203 -0.1162 -0.4534 -0.2439
   29DOPE   O13 3624   5.692   1.996  16.230 -0.0537  0.3009  0.4926
   29DOPE   O14 3625   5.698   1.748  16.308 -0.6277 -0.2735 -0.1921
   29DOPE   O11 3626   5.670   1.817  16.063 -0.4527 -0.1458 -0.2000
   29DOPE   O12 3627   5.879   1.841  16.176  0.4569 -0.5590  0.2034
   29DOPE    C1 3628   5.565   1.718  16.054  0.0964 -0.3202  0.3823
   29DOPE    HA 3629   5.494   1.753  15.976 -0.9946  1.6447  2.1511
   29DOPE    HB 3630   5.495   1.713  16.140  0.1447 -2.1380  0.3539
   29DOPE    C2 3631   5.636   1.585  16.022 -0.6987  0.6381 -0.0645
   29DOPE    HS 3632   5.659   1.540  16.120 -3.0724 -0.0135  0.2470
   29DOPE   O21 3633   5.735   1.611  15.926 -0.3603 -0.6113 -0.1428
   29DOPE   C21 3634   5.843   1.539  15.933  0.3430 -0.5809 -0.2864
   29DOPE   O22 3635   5.856   1.440  16.003  0.1441  0.2890 -0.7588
   29DOPE   C22 3636   5.945   1.582  15.828 -0.3399 -0.2264  0.1234
   29DOPE   H2R 3637   5.917   1.684  15.796 -0.7514  0.0272  1.2600
   29DOPE   H2S 3638   5.930   1.504  15.750  0.4176  0.3900 -0.6570
   29DOPE    C3 3639   5.529   1.477  15.972 -0.0954  0.3305 -0.5207
   29DOPE    HX 3640   5.449   1.477  16.049  0.5455 -2.4314  0.2762
   29DOPE    HY 3641   5.578   1.377  15.974  1.5288  1.1007  0.1522
   29DOPE   O31 3642   5.471   1.504  15.837 -0.5484  0.1603  0.2645
   29DOPE   C31 3643   5.561   1.456  15.743  0.0493  0.6719 -0.4902
   29DOPE   O32 3644   5.633   1.361  15.764  0.1049 -0.2614  0.2309
   29DOPE   C32 3645   5.567   1.534  15.617 -0.1820 -0.2688 -0.3306
   29DOPE   H2X 3646   5.468   1.534  15.565  0.7662 -2.5464 -2.3128
   29DOPE   H2Y 3647   5.587   1.639  15.650  1.7607 -1.1465  1.5057
   29DOPE   C23 3648   6.094   1.583  15.864 -1.1947  0.1926 -0.2927
   29DOPE   H3R 3649   6.123   1.476  15.876 -1.1471  0.2160 -0.1991
   29DOPE   H3S 3650   6.116   1.628  15.963 -0.7506 -0.8268  0.0860
   29DOPE   C24 3651   6.166   1.658  15.751  0.5017 -0.6986  0.1784
   29DOPE   H4R 3652   6.274   1.657  15.775  1.0648 -3.0734 -1.9794
   29DOPE   H4S 3653   6.135   1.764  15.759 -0.5432 -0.9506 -0.4258
   29DOPE   C25 3654   6.125   1.598  15.612 -0.7353 -0.2222  0.9042
   29DOPE   H5R 3655   6.021   1.626  15.584 -0.9109  0.3399  2.0631
   29DOPE   H5S 3656   6.139   1.489  15.599 -1.4276 -0.2036 -0.1453
   29DOPE   C26 3657   6.212   1.665  15.498 -0.1783  1.0670  0.4529
   29DOPE   H6R 3658   6.323   1.657  15.505 -0.2728  0.2466  1.1211
   29DOPE   H6S 3659   6.190   1.774  15.491 -0.8759  0.9431  0.6029
   29DOPE   C27 3660   6.165   1.609  15.365  0.1365 -0.8428 -0.1866
   29DOPE   H7R 3661   6.065   1.639  15.327  0.1613 -0.2212  0.2330
   29DOPE   H7S 3662   6.164   1.499  15.384  0.2120 -0.5155  1.8750
   29DOPE   C28 3663   6.255   1.646  15.253 -0.0218  0.0191  0.9001
   29DOPE   H8R 3664   6.244   1.570  15.173 -1.2220  0.8531  0.2318
   29DOPE   H8S 3665   6.356   1.633  15.297 -0.1090  1.6407  1.6686
   29DOPE   C29 3666   6.226   1.783  15.216  0.3785 -0.1105 -0.1462
   29DOPE   H9R 3667   6.253   1.858  15.293 -1.5744  0.5248 -0.0473
   29DOPE  C210 3668   6.175   1.823  15.093 -0.5247  0.8905 -1.1358
   29DOPE  H10R 3669   6.170   1.931  15.074 -0.3532  1.5204  1.8493
   29DOPE  C211 3670   6.123   1.733  14.979 -0.4942 -0.3618 -0.0662
   29DOPE  H11R 3671   6.013   1.734  14.988 -0.3822 -1.8269  2.9597
   29DOPE  H11S 3672   6.134   1.624  14.994  1.4081 -0.1279  0.5392
   29DOPE  C212 3673   6.174   1.774  14.838  0.6287  0.4045 -0.0402
   29DOPE  H12R 3674   6.281   1.746  14.832  0.6638  0.6925 -0.9958
   29DOPE  H12S 3675   6.173   1.884  14.824  1.2328  0.5645  1.0594
   29DOPE  C213 3676   6.112   1.687  14.729  0.5702  0.2860 -0.6398
   29DOPE  H13R 3677   6.003   1.710  14.721  0.3558 -0.1729  0.8162
   29DOPE  H13S 3678   6.122   1.585  14.770 -1.5874  0.6651  0.9816
   29DOPE  C214 3679   6.175   1.694  14.593  0.4135 -0.1577  0.3810
   29DOPE  H14R 3680   6.161   1.593  14.549  1.8529  0.2848 -1.2042
   29DOPE  H14S 3681   6.284   1.716  14.598 -0.0309  1.9939  2.1186
   29DOPE  C215 3682   6.124   1.803  14.503 -0.5386 -0.1799  0.2527
   29DOPE  H15R 3683   6.134   1.901  14.553  0.7120  0.6185 -1.4910
   29DOPE  H15S 3684   6.019   1.800  14.467 -0.1692  1.6062 -1.0970
   29DOPE  C216 3685   6.214   1.804  14.374 -0.3533 -0.3964  0.4219
   29DOPE  H16R 3686   6.212   1.709  14.316  0.3431 -0.8516  1.1347
   29DOPE  H16S 3687   6.318   1.830  14.402 -1.1447  2.0375  1.3326
   29DOPE  C217 3688   6.183   1.930  14.285 -0.0837  0.3693  0.3270
   29DOPE  H17R 3689   6.200   2.021  14.346 -0.8742  0.7872 -0.0565
   29DOPE  H17S 3690   6.077   1.932  14.250  0.2768 -2.4899 -1.2460
   29DOPE  C218 3691   6.266   1.933  14.156 -0.5106  0.5228  0.0397
   29DOPE  H18R 3692   6.370   1.970  14.174 -0.2543  0.3114 -0.9405
   29DOPE  H18S 3693   6.236   2.005  14.077  0.4347  0.6586 -0.2125
   29DOPE  H18T 3694   6.264   1.830  14.113  0.3484  1.3235 -2.0359
   29DOPE   C33 3695   5.670   1.489  15.512 -0.4681  0.1098  0.3701
   29DOPE   H3X 3696   5.654   1.379  15.500 -0.3628 -0.0432  1.5277
   29DOPE   H3Y 3697   5.774   1.511  15.546 -0.2321 -2.5894  1.7077
   29DOPE   C34 3698   5.638   1.555  15.378  0.1405 -0.4509 -0.0381
   29DOPE   H4X 3699   5.529   1.544  15.360  0.1361  0.3205 -0.5077
   29DOPE   H4Y 3700   5.664   1.662  15.393 -1.7407 -0.2021  1.8101
   29DOPE   C35 3701   5.729   1.508  15.262  0.3494  0.7679  0.2639
   29DOPE   H5X 3702   5.719   1.398  15.262 -1.4755  0.7899 -3.4697
   29DOPE   H5Y 3703   5.840   1.514  15.269  0.5022 -0.6106 -0.6513
   29DOPE   C36 3704   5.674   1.550  15.122  0.1576 -0.4482  0.5924
   29DOPE   H6X 3705   5.682   1.658  15.100 -0.1824 -0.1403  1.8604
   29DOPE   H6Y 3706   5.565   1.529  15.124 -0.3704  2.0032  2.3289
   29DOPE   C37 3707   5.738   1.485  15.000 -0.8638 -0.2027 -1.2014
   29DOPE   H7X 3708   5.849   1.481  15.013 -0.8313  0.1443 -1.3627
   29DOPE   H7Y 3709   5.702   1.380  14.993 -0.2822 -0.4710 -0.3187
   29DOPE   C38 3710   5.717   1.545  14.863  0.0535  0.6589 -0.5229
   29DOPE   H8X 3711   5.726   1.655  14.865  0.4550  0.6171  0.7397
   29DOPE   H8Y 3712   5.612   1.536  14.830 -0.2965  1.5463  0.3337
   29DOPE   C39 3713   5.799   1.497  14.744  0.0799  0.1228 -0.4827
   29DOPE   H9X 3714   5.907   1.480  14.755  0.1123 -0.2869 -1.3294
   29DOPE  C310 3715   5.745   1.478  14.623  0.0395  0.5751 -0.1527
   29DOPE  H10X 3716   5.809   1.442  14.541 -2.2018 -1.2153 -1.2225
   29DOPE  C311 3717   5.609   1.504  14.565 -0.4594 -0.3229  0.0321
   29DOPE  H11X 3718   5.550   1.412  14.547 -2.5561  1.0594 -0.4650
   29DOPE  H11Y 3719   5.545   1.552  14.642  1.4113 -1.1350  2.2372
   29DOPE  C312 3720   5.615   1.599  14.440 -0.0265  0.2055  0.0177
   29DOPE  H12X 3721   5.658   1.698  14.465  0.9864 -0.3817  0.6397
   29DOPE  H12Y 3722   5.511   1.607  14.402  0.1292  0.0459 -0.4465
   29DOPE  C313 3723   5.693   1.543  14.323 -0.3245 -0.2916 -0.0205
   29DOPE  H13X 3724   5.677   1.617  14.241 -1.9772 -1.2573 -0.6111
   29DOPE  H13Y 3725   5.801   1.547  14.347 -0.5027 -0.2659  0.8201
   29DOPE  C314 3726   5.658   1.401  14.275 -0.1861 -0.1071 -0.2959
   29DOPE  H14X 3727   5.549   1.391  14.257 -0.3556  1.2937 -0.1753
   29DOPE  H14Y 3728   5.676   1.333  14.361  1.0180  0.4012 -0.1178
   29DOPE  C315 3729   5.740   1.344  14.149 -0.2342  0.0935 -0.5568
   29DOPE  H15X 3730   5.707   1.246  14.108  1.4280 -0.6921 -0.0948
   29DOPE  H15Y 3731   5.844   1.321  14.180  0.2025  0.1034 -1.9465
   29DOPE  C316 3732   5.755   1.434  14.027  0.3233 -0.4077 -0.0681
   29DOPE  H16X 3733   5.813   1.519  14.068 -0.1099 -0.5560  0.8839
   29DOPE  H16Y 3734   5.661   1.489  14.007 -1.1811 -2.8035  0.0024
   29DOPE  C317 3735   5.813   1.367  13.901 -0.1920 -0.0434  0.4396
   29DOPE  H17X 3736   5.895   1.307  13.946  0.0614 -0.2129 -0.2384
   29DOPE  H17Y 3737   5.748   1.284  13.867  0.4716 -0.4213  0.0652
   29DOPE  C318 3738   5.858   1.457  13.784 -0.3060  0.5673  0.2155
   29DOPE  H18X 3739   5.925   1.539  13.818 -0.0872  0.7562 -0.6488
   29DOPE  H18Y 3740   5.910   1.396  13.707 -0.0970  0.0703  0.7433
   29DOPE  H18Z 3741   5.772   1.513  13.742 -0.8067  1.5232  2.3668
   30DOPE     N 3742   4.634   0.461  15.800 -0.0136 -0.0065 -0.2392
   30DOPE   HN1 3743   4.667   0.367  15.830 -0.2135 -0.3954 -1.2113
   30DOPE   HN2 3744   4.641   0.530  15.878 -0.6661  0.2245 -0.3784
   30DOPE   HN3 3745   4.534   0.438  15.784  0.3045 -1.9183  0.3078
   30DOPE   C12 3746   4.691   0.501  15.669 -0.1209 -0.0197  0.0650
   30DOPE  H12A 3747   4.689   0.409  15.607  1.2714 -0.4404  0.6065
   30DOPE  H12B 3748   4.792   0.540  15.693 -0.5557  1.4680 -0.3925
   30DOPE   C11 3749   4.611   0.608  15.590  0.1909 -0.1091 -0.1156
   30DOPE  H11A 3750   4.513   0.557  15.575 -1.1622  2.3586 -0.2256
   30DOPE  H11B 3751   4.651   0.635  15.490 -2.7202  2.6531 -0.6957
   30DOPE     P 3752   4.675   0.858  15.658 -0.3438  0.3812  0.0483
   30DOPE   O13 3753   4.819   0.832  15.700  0.3165  0.4351  0.3301
   30DOPE   O14 3754   4.613   0.966  15.730  0.0462 -0.2043  0.2719
   30DOPE   O11 3755   4.675   0.899  15.507 -0.4664 -0.2888 -1.1366
   30DOPE   O12 3756   4.589   0.723  15.667 -0.2046  0.4089 -0.1855
   30DOPE    C1 3757   4.745   1.015  15.456 -0.1786 -0.1558 -0.3787
   30DOPE    HA 3758   4.836   1.030  15.518 -0.3536 -0.7142  0.0183
   30DOPE    HB 3759   4.683   1.106  15.460 -1.9350 -1.3412  0.3570
   30DOPE    C2 3760   4.790   0.986  15.310 -0.2856 -0.2654  0.1563
   30DOPE    HS 3761   4.851   1.068  15.266 -0.2241 -0.3906  0.0061
   30DOPE   O21 3762   4.675   0.957  15.224 -0.1883  0.0421 -0.3254
   30DOPE   C21 3763   4.604   1.066  15.194  0.8124 -0.2896 -0.4322
   30DOPE   O22 3764   4.633   1.179  15.231  0.0165 -0.2618 -0.1680
   30DOPE   C22 3765   4.488   1.041  15.104 -0.2998 -0.8186 -0.1403
   30DOPE   H2R 3766   4.427   1.129  15.073 -4.1870 -3.3932 -0.4935
   30DOPE   H2S 3767   4.419   0.980  15.166  0.1168  0.7642  2.0048
   30DOPE    C3 3768   4.890   0.861  15.300  0.1469 -0.0934  0.0035
   30DOPE    HX 3769   4.849   0.786  15.371 -0.0897  0.0250 -0.0059
   30DOPE    HY 3770   4.989   0.887  15.344  0.3516 -1.3923  0.3580
   30DOPE   O31 3771   4.906   0.816  15.158  0.4631 -0.4295 -0.5066
   30DOPE   C31 3772   4.920   0.685  15.145 -0.0925  0.2467  0.1327
   30DOPE   O32 3773   4.939   0.600  15.229 -0.1582  0.0491  0.0161
   30DOPE   C32 3774   4.929   0.651  15.002  0.3832  0.1027  0.2051
   30DOPE   H2X 3775   4.906   0.745  14.948 -0.2847  0.1825  0.6227
   30DOPE   H2Y 3776   5.034   0.619  14.983  0.9326  1.0001  1.5767
   30DOPE   C23 3777   4.518   0.966  14.974  0.2208 -0.1744  0.3539
   30DOPE   H3R 3778   4.418   0.953  14.929  0.2899  2.4660 -0.7320
   30DOPE   H3S 3779   4.565   0.870  15.007 -1.2294 -0.2769  2.3150
   30DOPE   C24 3780   4.605   1.045  14.875  0.5770 -0.2004 -0.1942
   30DOPE   H4R 3781   4.651   0.973  14.805 -0.5423  1.1847 -2.4853
   30DOPE   H4S 3782   4.691   1.082  14.935 -0.9307 -0.7540  2.4693
   30DOPE   C25 3783   4.528   1.146  14.781 -0.2485  0.2132 -0.3308
   30DOPE   H5R 3784   4.596   1.194  14.708 -0.5243  1.3426  0.1420
   30DOPE   H5S 3785   4.498   1.220  14.858  0.1713  0.2405 -0.1910
   30DOPE   C26 3786   4.427   1.075  14.689  0.0822 -0.4118 -0.1656
   30DOPE   H6R 3787   4.339   1.035  14.742 -1.4216  1.6636 -0.9540
   30DOPE   H6S 3788   4.468   0.990  14.630  1.2576 -0.3150  0.4859
   30DOPE   C27 3789   4.376   1.184  14.588 -0.0495 -0.3252  0.3952
   30DOPE   H7R 3790   4.460   1.236  14.538  0.5338 -1.2580  0.3896
   30DOPE   H7S 3791   4.342   1.269  14.651  1.0124 -0.4898  1.2098
   30DOPE   C28 3792   4.267   1.131  14.492  0.7547  0.2536 -0.4517
   30DOPE   H8R 3793   4.227   1.211  14.427 -0.7252  1.4094  1.7409
   30DOPE   H8S 3794   4.178   1.103  14.553  2.0575 -1.6413  0.6910
   30DOPE   C29 3795   4.314   1.018  14.407 -0.0145 -0.7551 -0.6631
   30DOPE   H9R 3796   4.360   0.936  14.463  2.2315  0.2206 -0.9843
   30DOPE  C210 3797   4.311   1.015  14.269  0.6491  0.7546  0.2063
   30DOPE  H10R 3798   4.363   0.933  14.217 -1.2310  1.7098 -3.5568
   30DOPE  C211 3799   4.264   1.126  14.175 -0.1949 -0.3640  0.1307
   30DOPE  H11R 3800   4.230   1.219  14.225  0.2882 -0.4261  0.5858
   30DOPE  H11S 3801   4.176   1.083  14.124 -1.5613 -0.7200  2.6371
   30DOPE  C212 3802   4.378   1.157  14.081 -0.1761 -0.1691 -0.0134
   30DOPE  H12R 3803   4.395   1.062  14.025  0.7838 -1.8085  2.8379
   30DOPE  H12S 3804   4.474   1.169  14.135 -0.4389 -2.3812  1.0579
   30DOPE  C213 3805   4.359   1.272  13.994 -0.0277  0.4021 -0.7787
   30DOPE  H13R 3806   4.344   1.365  14.053 -0.8140 -0.1949 -0.0227
   30DOPE  H13S 3807   4.262   1.261  13.940 -1.0203 -0.3880  1.1100
   30DOPE  C214 3808   4.468   1.293  13.891  0.0907  0.5032  0.9358
   30DOPE  H14R 3809   4.565   1.287  13.945 -0.3050  2.7843  2.0170
   30DOPE  H14S 3810   4.449   1.396  13.854  1.2947  0.4477  0.1237
   30DOPE  C215 3811   4.455   1.214  13.761 -0.6447 -0.2744  0.1367
   30DOPE  H15R 3812   4.356   1.244  13.720  0.2465  1.9843 -0.4599
   30DOPE  H15S 3813   4.445   1.106  13.784 -0.3667 -0.2459  0.3974
   30DOPE  C216 3814   4.559   1.250  13.660 -0.0403  0.0014 -0.5178
   30DOPE  H16R 3815   4.660   1.219  13.696  1.0035 -0.8038 -3.8199
   30DOPE  H16S 3816   4.557   1.360  13.641 -2.3213 -0.2124 -1.8449
   30DOPE  C217 3817   4.542   1.170  13.532 -0.5222 -0.4556  0.0945
   30DOPE  H17R 3818   4.445   1.196  13.484 -0.3126 -1.7785 -1.1054
   30DOPE  H17S 3819   4.557   1.066  13.568  1.7604 -0.0330  0.4923
   30DOPE  C218 3820   4.646   1.210  13.433 -0.4014 -0.2353 -0.8539
   30DOPE  H18R 3821   4.741   1.234  13.484 -2.1233  1.0699  2.0381
   30DOPE  H18S 3822   4.614   1.296  13.370 -1.8775 -0.0504  0.0958
   30DOPE  H18T 3823   4.663   1.125  13.364  0.0365 -1.6460  0.9141
   30DOPE   C33 3824   4.844   0.530  14.951 -0.5957  0.0227 -0.6119
   30DOPE   H3X 3825   4.764   0.517  15.027  0.7468  0.5827  0.9591
   30DOPE   H3Y 3826   4.892   0.431  14.946 -1.1614 -0.2069 -2.0616
   30DOPE   C34 3827   4.782   0.560  14.820  0.3283 -0.1520  0.2645
   30DOPE   H4X 3828   4.720   0.473  14.790 -0.3649 -0.2573  1.8952
   30DOPE   H4Y 3829   4.716   0.648  14.837 -1.9393 -1.9322  1.1067
   30DOPE   C35 3830   4.894   0.581  14.713  1.0566 -0.0025  0.1129
   30DOPE   H5X 3831   4.933   0.483  14.680 -0.3278 -0.7732  0.6756
   30DOPE   H5Y 3832   4.978   0.645  14.746  0.9816  0.2723 -0.2225
   30DOPE   C36 3833   4.847   0.652  14.576 -0.5060 -0.3948 -0.1001
   30DOPE   H6X 3834   4.765   0.594  14.530 -0.5159  1.8402 -3.1786
   30DOPE   H6Y 3835   4.936   0.662  14.511 -0.1654  3.0081  0.6762
   30DOPE   C37 3836   4.792   0.790  14.609 -0.2808  0.2484  0.1571
   30DOPE   H7X 3837   4.697   0.780  14.666  1.0495  1.0331  2.6680
   30DOPE   H7Y 3838   4.869   0.834  14.677  0.6164  1.5084 -1.5909
   30DOPE   C38 3839   4.780   0.904  14.506 -0.0549  1.0934  0.0695
   30DOPE   H8X 3840   4.868   0.905  14.439 -0.8593  2.5673 -1.0439
   30DOPE   H8Y 3841   4.771   1.001  14.560 -0.2980  0.4416  1.2152
   30DOPE   C39 3842   4.664   0.883  14.403 -0.4307  0.1426 -0.6108
   30DOPE   H9X 3843   4.572   0.867  14.461  1.7937 -2.0956  2.6366
   30DOPE  C310 3844   4.665   0.895  14.269 -0.2944 -0.3384 -0.1815
   30DOPE  H10X 3845   4.573   0.897  14.208  0.5251  0.7747 -1.4337
   30DOPE  C311 3846   4.784   0.931  14.185  0.4491  0.3284 -0.5349
   30DOPE  H11X 3847   4.846   0.996  14.250 -2.0501  2.3288  0.0015
   30DOPE  H11Y 3848   4.847   0.844  14.155  2.2791 -0.0958  3.8110
   30DOPE  C312 3849   4.761   1.021  14.065  0.0016 -0.2181 -0.0623
   30DOPE  H12X 3850   4.728   1.119  14.106  0.6906 -0.1177  0.2616
   30DOPE  H12Y 3851   4.692   0.986  13.985  0.6693 -0.7780 -0.4040
   30DOPE  C313 3852   4.895   1.051  14.005 -0.4000  0.0265 -0.2576
   30DOPE  H13X 3853   4.967   1.092  14.080  1.1092 -3.8313  0.6057
   30DOPE  H13Y 3854   4.929   0.953  13.965  0.3567  0.4858 -0.7703
   30DOPE  C314 3855   4.873   1.142  13.883  0.1764  0.2131 -0.2593
   30DOPE  H14X 3856   4.849   1.240  13.929 -1.2391 -0.3527  0.2558
   30DOPE  H14Y 3857   4.788   1.101  13.824  0.1245  0.7420 -0.5643
   30DOPE  C315 3858   4.997   1.157  13.790  0.1309 -0.4964  0.3801
   30DOPE  H15X 3859   5.084   1.179  13.856  0.2664  0.3184 -0.0581
   30DOPE  H15Y 3860   4.987   1.244  13.722  0.6881 -1.5680 -1.1223
   30DOPE  C316 3861   5.025   1.036  13.708  0.5265  0.0840 -0.8054
   30DOPE  H16X 3862   4.950   1.034  13.627  0.1997  2.5493 -0.6474
   30DOPE  H16Y 3863   5.019   0.949  13.778  0.4776  1.9138  1.5977
   30DOPE  C317 3864   5.167   1.046  13.643 -0.3129  0.6859 -0.4375
   30DOPE  H17X 3865   5.179   1.142  13.588 -1.4118  1.3993  0.5005
   30DOPE  H17Y 3866   5.239   1.030  13.727 -0.5979 -2.7609 -0.7073
   30DOPE  C318 3867   5.184   0.917  13.551 -0.1155 -0.7050 -0.1988
   30DOPE  H18X 3868   5.089   0.901  13.495 -0.2323  0.8214 -0.4991
   30DOPE  H18Y 3869   5.269   0.921  13.479 -0.3058 -0.1237 -0.4043
   30DOPE  H18Z 3870   5.193   0.828  13.616  0.1663 -0.6126 -0.1073
   31DOPE     N 3871   3.418   4.366  11.602  0.5848 -0.2083  0.0620
   31DOPE   HN1 3872   3.382   4.449  11.550  1.3595  1.1627  1.5998
   31DOPE   HN2 3873   3.409   4.403  11.699  0.0484  2.3612 -0.8823
   31DOPE   HN3 3874   3.520   4.359  11.585  0.8847 -0.4203  1.7487
   31DOPE   C12 3875   3.341   4.236  11.570 -1.2173  0.1388 -0.2254
   31DOPE  H12A 3876   3.407   4.151  11.597  0.8131  1.1262 -1.7909
   31DOPE  H12B 3877   3.319   4.246  11.462  0.7319  4.4399 -0.4296
   31DOPE   C11 3878   3.219   4.210  11.665 -0.5043  0.2314  1.3726
   31DOPE  H11A 3879   3.253   4.199  11.770  1.9804 -1.3013  0.4967
   31DOPE  H11B 3880   3.176   4.113  11.632  1.7392  0.2609 -2.2069
   31DOPE     P 3881   2.999   4.304  11.558  0.4595  0.2857 -0.1658
   31DOPE   O13 3882   3.033   4.270  11.420  0.0884 -0.0143  0.0917
   31DOPE   O14 3883   2.916   4.424  11.574 -0.2778 -0.4692 -0.5437
   31DOPE   O11 3884   2.919   4.176  11.604 -0.2441  0.2654 -0.5306
   31DOPE   O12 3885   3.126   4.310  11.651  0.2782 -0.1164  0.4944
   31DOPE    C1 3886   2.782   4.177  11.642  0.6171 -0.5456  0.3785
   31DOPE    HA 3887   2.737   4.080  11.610 -0.5306 -0.3311  1.2585
   31DOPE    HB 3888   2.721   4.253  11.589  2.6280  1.9495  1.4140
   31DOPE    C2 3889   2.754   4.209  11.794 -0.1241  0.1586 -0.2089
   31DOPE    HS 3890   2.648   4.187  11.821 -0.3578 -1.3964 -2.1197
   31DOPE   O21 3891   2.794   4.335  11.832 -0.0765 -0.7023  0.2533
   31DOPE   C21 3892   2.699   4.425  11.822 -0.8661  0.8621  0.0291
   31DOPE   O22 3893   2.583   4.405  11.789  0.2716 -0.1323  0.2599
   31DOPE   C22 3894   2.749   4.564  11.870 -0.0838 -0.2497 -0.8801
   31DOPE   H2R 3895   2.753   4.622  11.776 -0.7635 -0.5049 -1.0723
   31DOPE   H2S 3896   2.844   4.549  11.925  0.3009  0.5868 -1.3142
   31DOPE    C3 3897   2.851   4.118  11.879 -0.1280 -0.3514  0.1607
   31DOPE    HX 3898   2.951   4.146  11.838 -0.5887  0.7737 -0.2332
   31DOPE    HY 3899   2.825   4.016  11.844 -2.4646  0.3892 -0.4552
   31DOPE   O31 3900   2.852   4.135  12.024  0.2838 -0.2402  1.0161
   31DOPE   C31 3901   2.749   4.091  12.096  0.1219 -0.1524  0.0455
   31DOPE   O32 3902   2.652   4.031  12.053 -0.0417  0.7178 -0.0222
   31DOPE   C32 3903   2.751   4.159  12.229 -0.2531  0.1562 -0.3947
   31DOPE   H2X 3904   2.856   4.178  12.261 -0.4773 -1.7906  1.8285
   31DOPE   H2Y 3905   2.717   4.263  12.207  0.1368  0.6858  1.3237
   31DOPE   C23 3906   2.636   4.639  11.945  0.0759  0.1953  0.3325
   31DOPE   H3R 3907   2.540   4.635  11.889 -0.2762 -1.3600  0.9815
   31DOPE   H3S 3908   2.665   4.745  11.957  1.3086 -0.0570 -0.3382
   31DOPE   C24 3909   2.600   4.579  12.083  0.2774  0.4446  0.4324
   31DOPE   H4R 3910   2.581   4.470  12.072  2.4909 -0.2138  2.3806
   31DOPE   H4S 3911   2.511   4.626  12.130 -0.4149 -1.2616  0.9409
   31DOPE   C25 3912   2.716   4.594  12.184 -0.0951 -0.2054  0.3777
   31DOPE   H5R 3913   2.739   4.702  12.177 -0.0593 -0.3038 -1.2870
   31DOPE   H5S 3914   2.799   4.533  12.143 -0.7841  0.7209 -2.6440
   31DOPE   C26 3915   2.682   4.562  12.330 -0.0469  0.1349  0.2140
   31DOPE   H6R 3916   2.658   4.453  12.340 -0.3415  0.2646  1.0319
   31DOPE   H6S 3917   2.587   4.618  12.346 -0.8648 -1.4741  1.3050
   31DOPE   C27 3918   2.793   4.606  12.431  0.1945 -0.3812  0.1552
   31DOPE   H7R 3919   2.812   4.715  12.416 -1.6341 -0.0611 -0.1527
   31DOPE   H7S 3920   2.881   4.546  12.402 -0.7080 -1.9163  0.5073
   31DOPE   C28 3921   2.754   4.555  12.573  0.7302  0.0971  0.6183
   31DOPE   H8R 3922   2.717   4.451  12.571 -2.0822  1.0027 -0.9250
   31DOPE   H8S 3923   2.661   4.605  12.609 -0.3329 -0.4456 -1.2254
   31DOPE   C29 3924   2.867   4.576  12.671 -0.0069 -0.2593  0.0783
   31DOPE   H9R 3925   2.957   4.513  12.669 -0.0520 -0.3203 -0.0380
   31DOPE  C210 3926   2.874   4.674  12.765  0.7758 -0.1107 -0.5780
   31DOPE  H10R 3927   2.953   4.662  12.840  0.6505  0.7521 -0.3024
   31DOPE  C211 3928   2.768   4.780  12.785  0.7370  0.2670  0.0678
   31DOPE  H11R 3929   2.704   4.792  12.695 -1.0673  3.5028  1.6091
   31DOPE  H11S 3930   2.823   4.876  12.793  1.5799 -0.2884  1.3303
   31DOPE  C212 3931   2.676   4.755  12.901 -0.4297 -0.1970 -0.5297
   31DOPE  H12R 3932   2.615   4.663  12.888  0.5942 -1.5300  2.8312
   31DOPE  H12S 3933   2.607   4.841  12.917  1.9429  1.7980 -0.5119
   31DOPE  C213 3934   2.758   4.720  13.026 -0.2740 -0.7129 -0.1255
   31DOPE  H13R 3935   2.844   4.790  13.017 -1.5708  1.2488  1.6439
   31DOPE  H13S 3936   2.803   4.619  13.022 -2.2637 -1.6130 -1.5228
   31DOPE  C214 3937   2.694   4.750  13.163 -0.0053  0.7611  0.1761
   31DOPE  H14R 3938   2.597   4.697  13.156  1.1137 -1.4579  0.6729
   31DOPE  H14S 3939   2.675   4.859  13.172 -4.6159  0.1130  0.6659
   31DOPE  C215 3940   2.770   4.718  13.301 -0.9304  0.1942  0.5321
   31DOPE  H15R 3941   2.877   4.745  13.289 -0.7405 -0.5666  0.4633
   31DOPE  H15S 3942   2.757   4.610  13.324  0.0209  0.3494  1.9041
   31DOPE  C216 3943   2.729   4.813  13.411  0.0231 -0.2278 -0.1383
   31DOPE  H16R 3944   2.622   4.841  13.400  0.0039 -1.0959 -2.7471
   31DOPE  H16S 3945   2.794   4.903  13.414  0.8137 -0.7596 -1.0536
   31DOPE  C217 3946   2.734   4.763  13.557  0.0886  0.0975 -0.1476
   31DOPE  H17R 3947   2.833   4.721  13.583 -0.1202 -0.7156 -0.6007
   31DOPE  H17S 3948   2.664   4.677  13.567  0.8860 -0.4614  0.7519
   31DOPE  C218 3949   2.699   4.879  13.655  0.4409  0.4380 -0.0452
   31DOPE  H18R 3950   2.762   4.967  13.630 -1.7447  1.9972 -0.3708
   31DOPE  H18S 3951   2.717   4.860  13.763 -0.1930 -1.0812 -0.1810
   31DOPE  H18T 3952   2.600   4.916  13.621  1.5955  2.4863 -1.4005
   31DOPE   C33 3953   2.681   4.094  12.347  0.2757  0.8150  0.3917
   31DOPE   H3X 3954   2.701   3.986  12.332 -0.8621  0.8566 -2.0177
   31DOPE   H3Y 3955   2.571   4.093  12.333  0.4010 -0.1183 -0.7221
   31DOPE   C34 3956   2.731   4.139  12.489 -0.1229 -0.2946 -0.0396
   31DOPE   H4X 3957   2.841   4.128  12.503 -0.1279  0.5715  0.7500
   31DOPE   H4Y 3958   2.692   4.242  12.504 -4.0021 -1.2333 -2.4845
   31DOPE   C35 3959   2.654   4.059  12.600  0.6660 -0.1942 -0.6694
   31DOPE   H5X 3960   2.691   3.956  12.582  1.0988  0.0187 -1.0109
   31DOPE   H5Y 3961   2.543   4.059  12.588  0.2258  0.4260  2.5736
   31DOPE   C36 3962   2.683   4.103  12.746  0.0785 -0.3407  0.3465
   31DOPE   H6X 3963   2.793   4.115  12.744 -0.1834  3.7208 -2.8430
   31DOPE   H6Y 3964   2.673   4.015  12.814  2.7982  0.0207  1.3530
   31DOPE   C37 3965   2.605   4.229  12.788  0.1755 -0.1472 -0.3026
   31DOPE   H7X 3966   2.629   4.308  12.714  0.2715 -0.7900 -0.9747
   31DOPE   H7Y 3967   2.497   4.205  12.778  0.4031 -0.9536 -1.1079
   31DOPE   C38 3968   2.644   4.273  12.929  0.6407 -0.4550  0.1852
   31DOPE   H8X 3969   2.750   4.306  12.923  0.6750 -0.7667 -1.1162
   31DOPE   H8Y 3970   2.647   4.189  13.002 -0.7987  0.8753  1.8756
   31DOPE   C39 3971   2.556   4.388  12.972  0.5674  0.3453  0.1926
   31DOPE   H9X 3972   2.539   4.464  12.895 -0.2793 -0.3792 -0.3534
   31DOPE  C310 3973   2.507   4.399  13.096 -0.1135 -0.8580 -0.5435
   31DOPE  H10X 3974   2.444   4.486  13.119  0.0190 -0.0862 -2.8651
   31DOPE  C311 3975   2.531   4.313  13.215  0.1775 -0.0116 -0.8620
   31DOPE  H11X 3976   2.456   4.231  13.218  0.0115  0.1468 -0.6349
   31DOPE  H11Y 3977   2.625   4.256  13.204  0.1889  0.0330 -1.0011
   31DOPE  C312 3978   2.540   4.377  13.355  0.4363 -0.7934 -0.0095
   31DOPE  H12X 3979   2.606   4.467  13.358  1.8061 -1.8010  1.4041
   31DOPE  H12Y 3980   2.593   4.315  13.430  1.3842  0.2009  0.1810
   31DOPE  C313 3981   2.406   4.419  13.418  0.1627 -0.0945 -0.1375
   31DOPE  H13X 3982   2.351   4.478  13.341  0.0649 -0.4358 -0.3303
   31DOPE  H13Y 3983   2.345   4.331  13.446 -0.9876  1.0704  1.1716
   31DOPE  C314 3984   2.418   4.507  13.549  0.5726 -0.1620  0.4643
   31DOPE  H14X 3985   2.311   4.516  13.577  0.1434 -2.8673 -0.0287
   31DOPE  H14Y 3986   2.456   4.608  13.523 -0.0304  1.0742  3.8411
   31DOPE  C315 3987   2.498   4.436  13.668  0.2746  0.3229 -0.7440
   31DOPE  H15X 3988   2.479   4.499  13.757 -0.2376  0.0576 -0.6623
   31DOPE  H15Y 3989   2.608   4.436  13.653  0.1724  1.3100 -1.5382
   31DOPE  C316 3990   2.437   4.297  13.711  0.0597 -0.2366  0.3627
   31DOPE  H16X 3991   2.466   4.221  13.636 -1.0148 -1.6310  1.3213
   31DOPE  H16Y 3992   2.329   4.319  13.702 -0.0400 -0.6661  0.5243
   31DOPE  C317 3993   2.476   4.239  13.845 -0.9477  0.0543 -0.8260
   31DOPE  H17X 3994   2.584   4.258  13.858 -0.5037 -0.7622 -3.0109
   31DOPE  H17Y 3995   2.439   4.304  13.928  1.6334  2.1285 -1.1926
   31DOPE  C318 3996   2.444   4.094  13.852 -0.3611  0.3098  0.3479
   31DOPE  H18X 3997   2.509   4.027  13.792 -1.1489 -1.6263  1.5868
   31DOPE  H18Y 3998   2.461   4.059  13.956 -2.0227  0.0972  0.5664
   31DOPE  H18Z 3999   2.339   4.075  13.821  0.0744 -0.4009 -0.7593
   32DOPE     N 4000   3.540   4.945  11.144  0.8837  0.1922 -0.6645
   32DOPE   HN1 4001   3.511   4.873  11.213 -0.6228 -0.3958 -1.8338
   32DOPE   HN2 4002   3.514   4.894  11.057 -2.5929 -2.7340  1.7819
   32DOPE   HN3 4003   3.643   4.950  11.155  0.6016  0.4929  2.7647
   32DOPE   C12 4004   3.472   5.067  11.183 -0.0288  0.1392  0.0914
   32DOPE  H12A 4005   3.503   5.145  11.110 -0.6135  0.4198  0.1297
   32DOPE  H12B 4006   3.508   5.097  11.283 -0.3657 -1.6336  0.7706
   32DOPE   C11 4007   3.318   5.050  11.175 -0.4762 -0.0344 -0.4087
   32DOPE  H11A 4008   3.285   4.988  11.261  0.5180  0.5133  0.3842
   32DOPE  H11B 4009   3.295   4.994  11.082  3.7719 -1.8758 -0.5741
   32DOPE     P 4010   3.194   5.254  11.291 -0.2820 -0.5999 -0.0624
   32DOPE   O13 4011   3.054   5.292  11.261  0.3295 -0.4454  0.0245
   32DOPE   O14 4012   3.285   5.369  11.324  0.2965  0.3838  0.5553
   32DOPE   O11 4013   3.200   5.154  11.412  0.0699  0.1739  0.0785
   32DOPE   O12 4014   3.250   5.177  11.167  0.2776  0.3963 -0.5743
   32DOPE    C1 4015   3.095   5.139  11.504  0.2069 -0.5159 -0.0324
   32DOPE    HA 4016   3.086   5.035  11.542 -1.9165  0.1898  1.5934
   32DOPE    HB 4017   3.001   5.182  11.463 -0.1999 -1.7398 -0.4189
   32DOPE    C2 4018   3.104   5.230  11.634 -0.1665 -0.0078 -0.1101
   32DOPE    HS 4019   3.128   5.334  11.603  1.1770  0.7063  2.9352
   32DOPE   O21 4020   3.201   5.173  11.717 -0.3594  0.2650 -0.0311
   32DOPE   C21 4021   3.255   5.265  11.799  0.4728  0.5604 -0.0697
   32DOPE   O22 4022   3.236   5.384  11.802  0.0572  0.1212  0.3893
   32DOPE   C22 4023   3.371   5.200  11.885  0.5735 -0.0818  0.3398
   32DOPE   H2R 4024   3.446   5.151  11.819  2.4501  0.9654  1.5968
   32DOPE   H2S 4025   3.319   5.117  11.937 -0.6304  0.7170  0.4457
   32DOPE    C3 4026   2.971   5.240  11.718 -0.4310  0.1634  1.0280
   32DOPE    HX 4027   2.890   5.282  11.655 -1.3619  0.4770  2.3821
   32DOPE    HY 4028   2.989   5.312  11.801  0.4316  0.4826  0.5753
   32DOPE   O31 4029   2.918   5.110  11.757  0.7577  0.3422  0.1588
   32DOPE   C31 4030   2.968   5.063  11.864 -0.5021 -0.1618 -0.1944
   32DOPE   O32 4031   3.030   5.136  11.943 -0.0116  0.2992 -0.4795
   32DOPE   C32 4032   2.949   4.908  11.878 -0.5217 -0.2497  0.4724
   32DOPE   H2X 4033   2.867   4.881  11.809 -0.0321 -0.1758 -0.1530
   32DOPE   H2Y 4034   3.039   4.853  11.842  1.6325  3.4128 -0.3009
   32DOPE   C23 4035   3.439   5.295  11.976  0.4434 -0.4158 -0.5465
   32DOPE   H3R 4036   3.376   5.381  12.010  3.1430  1.2266  0.6842
   32DOPE   H3S 4037   3.526   5.343  11.926  1.3713  1.0558  2.2609
   32DOPE   C24 4038   3.490   5.227  12.103 -0.5795 -0.4516  0.1912
   32DOPE   H4R 4039   3.559   5.146  12.070  1.6868  0.9294  1.2953
   32DOPE   H4S 4040   3.397   5.186  12.149  0.3946 -1.7441  1.0859
   32DOPE   C25 4041   3.551   5.312  12.214 -0.6543 -0.7424 -0.4862
   32DOPE   H5R 4042   3.521   5.419  12.206  0.7694 -0.3965 -1.6409
   32DOPE   H5S 4043   3.661   5.315  12.200 -0.1574 -1.1639  2.6862
   32DOPE   C26 4044   3.527   5.244  12.344  1.2710 -0.5552  0.3141
   32DOPE   H6R 4045   3.585   5.149  12.346  1.6513 -0.3206  0.6898
   32DOPE   H6S 4046   3.418   5.234  12.358  0.8890  0.5621 -1.5537
   32DOPE   C27 4047   3.596   5.314  12.463  0.5772 -0.0345 -0.1204
   32DOPE   H7R 4048   3.550   5.415  12.458 -1.0854 -0.7735 -0.3360
   32DOPE   H7S 4049   3.707   5.316  12.455  0.8088 -0.9987  2.0871
   32DOPE   C28 4050   3.573   5.246  12.601 -0.3428  0.7749  0.2616
   32DOPE   H8R 4051   3.626   5.149  12.596  0.4835  1.2675 -0.7843
   32DOPE   H8S 4052   3.464   5.226  12.612 -0.2379  0.4828  0.7987
   32DOPE   C29 4053   3.628   5.344  12.710 -0.3750  0.2893  0.5168
   32DOPE   H9R 4054   3.667   5.443  12.681  1.9882 -0.8829 -0.5663
   32DOPE  C210 4055   3.628   5.318  12.844  0.1826 -0.2927  0.1563
   32DOPE  H10R 4056   3.674   5.394  12.908 -0.8702  1.6288 -1.2633
   32DOPE  C211 4057   3.586   5.188  12.905  0.2057 -0.0660  0.4184
   32DOPE  H11R 4058   3.624   5.107  12.839  2.7525 -0.1185  1.8085
   32DOPE  H11S 4059   3.476   5.179  12.890  0.6170 -2.8972 -1.8704
   32DOPE  C212 4060   3.638   5.172  13.049  0.1358  0.2679 -0.8238
   32DOPE  H12R 4061   3.589   5.081  13.090 -0.7246  1.8260  1.9248
   32DOPE  H12S 4062   3.607   5.249  13.124 -1.2846 -2.8271  2.0609
   32DOPE  C213 4063   3.788   5.152  13.071 -1.2331  0.3557  0.8604
   32DOPE  H13R 4064   3.851   5.240  13.048  1.8538 -1.8272  0.3380
   32DOPE  H13S 4065   3.825   5.072  13.004  0.4991  1.1720  0.7934
   32DOPE  C214 4066   3.849   5.108  13.208 -0.6235 -0.3042  0.5697
   32DOPE  H14R 4067   3.803   5.172  13.287  0.7262  0.8533  0.4535
   32DOPE  H14S 4068   3.959   5.114  13.206 -0.5910 -0.9966 -0.9763
   32DOPE  C215 4069   3.804   4.964  13.240  0.4674 -0.8895  0.0841
   32DOPE  H15R 4070   3.841   4.901  13.156  2.9060 -0.6655  0.9181
   32DOPE  H15S 4071   3.694   4.972  13.227  0.4660 -0.9271  0.0730
   32DOPE  C216 4072   3.856   4.911  13.369  0.7627 -1.0027  0.1570
   32DOPE  H16R 4073   3.962   4.941  13.380  1.0441 -1.8293 -0.2930
   32DOPE  H16S 4074   3.841   4.801  13.370 -1.1364 -0.7946 -0.5482
   32DOPE  C217 4075   3.779   4.975  13.488 -0.0362 -0.3884 -0.0570
   32DOPE  H17R 4076   3.672   4.950  13.469 -0.1081 -0.3602  0.2964
   32DOPE  H17S 4077   3.791   5.085  13.482 -2.0209 -0.1628 -0.7542
   32DOPE  C218 4078   3.830   4.919  13.619 -0.1378 -0.6254 -0.4562
   32DOPE  H18R 4079   3.799   4.978  13.709  1.9879  1.0546 -0.7580
   32DOPE  H18S 4080   3.939   4.935  13.626 -0.5608  3.6820 -1.0790
   32DOPE  H18T 4081   3.786   4.818  13.637 -0.7580 -0.1845  0.6484
   32DOPE   C33 4082   2.930   4.860  12.019  0.7011 -0.2876  0.1467
   32DOPE   H3X 4083   2.893   4.755  12.019  0.3907 -0.1882 -0.9745
   32DOPE   H3Y 4084   2.853   4.922  12.070 -1.1062  0.3517 -3.0968
   32DOPE   C34 4085   3.054   4.863  12.115 -0.4747  0.0681  0.4877
   32DOPE   H4X 4086   3.123   4.790  12.069 -1.8889  0.7538 -3.0624
   32DOPE   H4Y 4087   3.094   4.967  12.121  1.3358 -0.4729 -1.1763
   32DOPE   C35 4088   3.033   4.809  12.258  0.4551  0.2557  0.1315
   32DOPE   H5X 4089   2.977   4.713  12.255 -0.0568  0.5155  0.9439
   32DOPE   H5Y 4090   2.962   4.874  12.314 -0.2407 -1.0811  0.8297
   32DOPE   C36 4091   3.158   4.806  12.340  0.1420  0.6083 -0.3606
   32DOPE   H6X 4092   3.201   4.908  12.337  2.3497 -0.2897 -1.7604
   32DOPE   H6Y 4093   3.231   4.737  12.293 -0.5456  0.0965 -0.7109
   32DOPE   C37 4094   3.139   4.761  12.485  0.5715  0.3328  0.0444
   32DOPE   H7X 4095   3.081   4.836  12.542  0.3226  0.7505 -0.7378
   32DOPE   H7Y 4096   3.086   4.663  12.488 -0.3889  0.8126 -0.5648
   32DOPE   C38 4097   3.276   4.738  12.541  0.2863 -0.1326 -0.6620
   32DOPE   H8X 4098   3.339   4.685  12.466  0.9169 -0.5858  0.1807
   32DOPE   H8Y 4099   3.261   4.679  12.633 -0.6005 -0.4561 -0.9991
   32DOPE   C39 4100   3.349   4.869  12.574  0.1442 -0.1940  0.2384
   32DOPE   H9X 4101   3.379   4.923  12.483 -1.6994 -0.3951 -0.5404
   32DOPE  C310 4102   3.403   4.893  12.694  0.2120 -0.4172  0.6558
   32DOPE  H10X 4103   3.467   4.982  12.701 -1.4442  0.8406  0.4246
   32DOPE  C311 4104   3.386   4.816  12.823 -0.3113  0.0317 -0.6686
   32DOPE  H11X 4105   3.292   4.757  12.830 -0.5811  0.3913 -1.2204
   32DOPE  H11Y 4106   3.463   4.736  12.834  1.5708  1.8705  0.1031
   32DOPE  C312 4107   3.405   4.902  12.947  0.5551  0.2760 -0.4116
   32DOPE  H12X 4108   3.345   4.995  12.935  2.5320  1.6610 -0.1073
   32DOPE  H12Y 4109   3.512   4.934  12.945 -0.0696  2.5273 -0.1580
   32DOPE  C313 4110   3.360   4.824  13.072 -0.6443  0.1415  0.1306
   32DOPE  H13X 4111   3.252   4.805  13.053 -0.5142  1.9260 -2.9846
   32DOPE  H13Y 4112   3.410   4.725  13.078  2.1672  1.4242 -0.7036
   32DOPE  C314 4113   3.373   4.897  13.206 -0.1314  0.3537 -0.0196
   32DOPE  H14X 4114   3.320   4.994  13.192 -1.3920 -0.3019  0.0098
   32DOPE  H14Y 4115   3.479   4.917  13.233 -0.5078  1.3653  0.7959
   32DOPE  C315 4116   3.306   4.822  13.317 -0.1444 -0.0626 -0.2131
   32DOPE  H15X 4117   3.239   4.747  13.270  1.8930 -2.0550 -0.0789
   32DOPE  H15Y 4118   3.240   4.893  13.373 -0.7453 -0.2967 -0.6131
   32DOPE  C316 4119   3.399   4.740  13.407 -0.2087 -0.4819 -0.5490
   32DOPE  H16X 4120   3.462   4.815  13.460 -0.5119 -0.6524  0.0624
   32DOPE  H16Y 4121   3.455   4.666  13.346  0.9728  0.0693 -0.1682
   32DOPE  C317 4122   3.315   4.658  13.501 -0.1503  0.4731 -0.3114
   32DOPE  H17X 4123   3.254   4.724  13.567  1.2388  1.7815 -0.2865
   32DOPE  H17Y 4124   3.245   4.597  13.440 -0.2052 -0.0062  0.2185
   32DOPE  C318 4125   3.391   4.554  13.583  0.1649  0.5498 -0.0118
   32DOPE  H18X 4126   3.320   4.477  13.621  2.3735 -1.5001  0.2125
   32DOPE  H18Y 4127   3.454   4.494  13.514  0.8010  0.4032  0.6933
   32DOPE  H18Z 4128   3.455   4.584  13.667  2.0836  0.7128 -1.4662
   33DOPE     N 4129   2.837   3.374  11.431 -0.4075  0.4392  0.0890
   33DOPE   HN1 4130   2.760   3.362  11.362 -0.9898  1.3819  0.5538
   33DOPE   HN2 4131   2.917   3.402  11.371 -0.0611  2.1924  1.3056
   33DOPE   HN3 4132   2.854   3.287  11.485 -1.2997  0.3473  0.2436
   33DOPE   C12 4133   2.797   3.477  11.530  0.1887  0.1581  0.3547
   33DOPE  H12A 4134   2.750   3.564  11.479 -0.2789 -0.2922  0.0070
   33DOPE  H12B 4135   2.888   3.502  11.589  0.3947 -0.3967  0.2788
   33DOPE   C11 4136   2.690   3.420  11.630  0.6088 -0.3662 -0.6755
   33DOPE  H11A 4137   2.664   3.506  11.695  1.2645  0.6907 -1.7793
   33DOPE  H11B 4138   2.734   3.333  11.682 -0.6402 -0.0612  0.9730
   33DOPE     P 4139   2.468   3.276  11.640 -0.4226  0.2868  0.2007
   33DOPE   O13 4140   2.546   3.155  11.658  0.0516 -0.2855  0.3728
   33DOPE   O14 4141   2.346   3.265  11.561 -0.2699 -0.2959  0.1599
   33DOPE   O11 4142   2.445   3.345  11.777  0.1662  0.2835 -0.7779
   33DOPE   O12 4143   2.571   3.375  11.561 -0.3224  0.2661  0.0800
   33DOPE    C1 4144   2.356   3.454  11.790  0.2831  0.3419 -0.3574
   33DOPE    HA 4145   2.260   3.433  11.739 -0.9770  0.3734  1.9050
   33DOPE    HB 4146   2.409   3.542  11.748 -0.1478  1.1741  0.8126
   33DOPE    C2 4147   2.306   3.472  11.929 -0.0358  0.3589 -0.6327
   33DOPE    HS 4148   2.231   3.555  11.928 -0.2645  0.1903  0.4534
   33DOPE   O21 4149   2.407   3.506  12.026 -0.1165 -0.2871  0.0922
   33DOPE   C21 4150   2.460   3.623  12.007 -0.1749 -0.0750 -0.1210
   33DOPE   O22 4151   2.421   3.706  11.928  0.1726 -0.4249 -0.1809
   33DOPE   C22 4152   2.579   3.638  12.101 -0.0270 -0.3885  0.1509
   33DOPE   H2R 4153   2.615   3.743  12.101 -2.4953  0.5668 -1.7355
   33DOPE   H2S 4154   2.660   3.569  12.071 -0.0258 -0.3914  0.1611
   33DOPE    C3 4155   2.231   3.338  11.969 -0.7507 -0.3830  0.1018
   33DOPE    HX 4156   2.320   3.271  11.967 -1.6997 -1.6802 -2.1237
   33DOPE    HY 4157   2.157   3.310  11.891 -2.7498  0.5234  1.5948
   33DOPE   O31 4158   2.169   3.350  12.103  0.0950  0.6009 -0.0922
   33DOPE   C31 4159   2.250   3.328  12.206  0.1052  0.2341 -0.9617
   33DOPE   O32 4160   2.365   3.295  12.191  0.6159 -0.2070  0.8468
   33DOPE   C32 4161   2.175   3.323  12.336  0.7337  0.7122  0.2671
   33DOPE   H2X 4162   2.190   3.420  12.388  2.5339  0.3847  0.4407
   33DOPE   H2Y 4163   2.068   3.301  12.318  1.1300 -0.2507 -1.0603
   33DOPE   C23 4164   2.538   3.599  12.241 -0.0941  0.5513 -0.0742
   33DOPE   H3R 4165   2.627   3.587  12.307  0.3754  3.3176 -0.0655
   33DOPE   H3S 4166   2.496   3.497  12.232  0.7186  0.2179 -0.2639
   33DOPE   C24 4167   2.437   3.693  12.314 -0.0834 -0.2679  0.7084
   33DOPE   H4R 4168   2.347   3.710  12.252  0.4307  1.5714  0.3972
   33DOPE   H4S 4169   2.488   3.790  12.332  1.2622 -0.2465 -2.5591
   33DOPE   C25 4170   2.405   3.646  12.462  0.3826  0.5984  0.2183
   33DOPE   H5R 4171   2.377   3.538  12.459 -1.5113  1.0816 -1.5205
   33DOPE   H5S 4172   2.314   3.701  12.492  0.5434 -0.3329  2.6142
   33DOPE   C26 4173   2.527   3.679  12.546  0.0395 -0.4765  0.2315
   33DOPE   H6R 4174   2.548   3.788  12.545 -0.0429 -0.4538  0.6872
   33DOPE   H6S 4175   2.611   3.614  12.515  0.2661  0.2923 -0.8191
   33DOPE   C27 4176   2.500   3.639  12.692 -0.3561  0.2914 -0.1825
   33DOPE   H7R 4177   2.482   3.530  12.699 -0.1074  0.3719  3.9506
   33DOPE   H7S 4178   2.407   3.689  12.728 -0.0457  1.4677 -0.9347
   33DOPE   C28 4179   2.609   3.656  12.801 -0.2239  0.0921  0.5831
   33DOPE   H8R 4180   2.634   3.764  12.817  0.4374  0.0408 -0.0290
   33DOPE   H8S 4181   2.701   3.609  12.760  0.0287  1.9975 -1.2297
   33DOPE   C29 4182   2.564   3.602  12.930  0.9291 -0.4664  0.0022
   33DOPE   H9R 4183   2.593   3.500  12.961  0.5816 -0.4806  0.2804
   33DOPE  C210 4184   2.487   3.671  13.014  0.4189 -0.2592 -0.7576
   33DOPE  H10R 4185   2.449   3.611  13.097  1.6380 -0.5534 -0.3902
   33DOPE  C211 4186   2.428   3.811  13.006  0.1333  0.8827 -0.2443
   33DOPE  H11R 4187   2.324   3.803  12.970  0.6328 -0.3256 -1.5130
   33DOPE  H11S 4188   2.504   3.863  12.944  2.1446  0.8049  1.9938
   33DOPE  C212 4189   2.428   3.869  13.149  0.7745 -0.3674  0.1498
   33DOPE  H12R 4190   2.375   3.801  13.219 -0.4466 -0.0455 -0.4454
   33DOPE  H12S 4191   2.382   3.968  13.129 -1.2747 -0.7110  2.6391
   33DOPE  C213 4192   2.566   3.897  13.197  0.2471 -0.8150 -0.8026
   33DOPE  H13R 4193   2.620   3.961  13.124 -0.0438  1.0221  0.5227
   33DOPE  H13S 4194   2.617   3.798  13.198  0.0370 -0.9945  2.1298
   33DOPE  C214 4195   2.570   3.956  13.334  0.8772  0.1100 -0.4943
   33DOPE  H14R 4196   2.518   4.054  13.332 -1.7485 -1.1512  0.3298
   33DOPE  H14S 4197   2.677   3.976  13.354  0.8726  0.4908 -0.8274
   33DOPE  C215 4198   2.502   3.874  13.441 -0.0248  1.0055 -0.2582
   33DOPE  H15R 4199   2.505   3.765  13.420 -0.2594  1.3824 -2.5166
   33DOPE  H15S 4200   2.396   3.908  13.435 -0.8183 -1.4127 -4.1283
   33DOPE  C216 4201   2.547   3.891  13.577  0.3662  0.1905 -0.3333
   33DOPE  H16R 4202   2.477   3.843  13.649 -0.9987  0.8641 -1.1919
   33DOPE  H16S 4203   2.543   4.001  13.596  0.9906  0.0246  0.9011
   33DOPE  C217 4204   2.697   3.856  13.601  0.1238 -0.2234 -0.3248
   33DOPE  H17R 4205   2.752   3.855  13.504  0.9218 -1.3808  0.1032
   33DOPE  H17S 4206   2.700   3.750  13.637  0.6140  0.1388  0.7441
   33DOPE  C218 4207   2.767   3.943  13.707  0.5275  0.5078  0.7782
   33DOPE  H18R 4208   2.773   4.050  13.681 -1.6357  0.7399  1.0357
   33DOPE  H18S 4209   2.866   3.910  13.744  0.7954 -1.1712 -1.2396
   33DOPE  H18T 4210   2.697   3.940  13.793 -1.2586 -1.9966 -0.6111
   33DOPE   C33 4211   2.229   3.204  12.416  0.3477 -0.5535  0.4274
   33DOPE   H3X 4212   2.339   3.198  12.408  0.4776  1.4885  0.2700
   33DOPE   H3Y 4213   2.179   3.111  12.381  0.5323 -0.0206 -1.3165
   33DOPE   C34 4214   2.197   3.209  12.568  1.0137 -0.0876  0.2273
   33DOPE   H4X 4215   2.087   3.225  12.575  1.0262  0.0482  0.1153
   33DOPE   H4Y 4216   2.205   3.108  12.614  1.1224  0.2279  0.9169
   33DOPE   C35 4217   2.286   3.307  12.634  1.1136  0.3659  0.2906
   33DOPE   H5X 4218   2.247   3.409  12.614  0.1850  0.2241  1.3290
   33DOPE   H5Y 4219   2.388   3.304  12.590 -0.2442 -0.1755 -3.1505
   33DOPE   C36 4220   2.293   3.291  12.788 -0.4371 -0.4663  0.2216
   33DOPE   H6X 4221   2.191   3.268  12.825 -0.3830 -1.4327 -0.2000
   33DOPE   H6Y 4222   2.318   3.396  12.817 -0.7416 -0.6755  1.2888
   33DOPE   C37 4223   2.396   3.188  12.832  0.3887  0.3351 -0.0333
   33DOPE   H7X 4224   2.384   3.096  12.771  2.9958 -0.7522  0.9584
   33DOPE   H7Y 4225   2.496   3.227  12.803  0.0640  0.4571 -1.0370
   33DOPE   C38 4226   2.388   3.159  12.983 -0.2027 -0.1387  0.7279
   33DOPE   H8X 4227   2.467   3.086  13.009  0.9858  1.0767  0.6612
   33DOPE   H8Y 4228   2.288   3.115  12.999  0.5991 -2.0711  0.6367
   33DOPE   C39 4229   2.411   3.274  13.077 -0.0278  0.3568  0.5859
   33DOPE   H9X 4230   2.490   3.344  13.046  1.4818 -1.9236 -1.1231
   33DOPE  C310 4231   2.336   3.295  13.187 -0.1723 -0.0012 -0.2728
   33DOPE  H10X 4232   2.360   3.379  13.254 -0.2044  0.2735 -0.6017
   33DOPE  C311 4233   2.238   3.199  13.245 -0.1172 -0.2817 -0.0824
   33DOPE  H11X 4234   2.145   3.253  13.271  0.4477  0.4914  0.3531
   33DOPE  H11Y 4235   2.214   3.116  13.174  2.2006  0.2841 -1.6582
   33DOPE  C312 4236   2.299   3.141  13.374  0.2198  0.2776  0.1535
   33DOPE  H12X 4237   2.361   3.217  13.425 -0.0165 -0.8933  2.3151
   33DOPE  H12Y 4238   2.374   3.070  13.333 -1.2060 -0.9748 -0.3733
   33DOPE  C313 4239   2.194   3.080  13.461 -0.0275  0.8119 -0.5750
   33DOPE  H13X 4240   2.134   3.149  13.524  1.6808  0.8077  1.1438
   33DOPE  H13Y 4241   2.131   3.019  13.391  2.2066 -0.5550 -1.5043
   33DOPE  C314 4242   2.253   2.979  13.557  0.4636 -0.0133  0.7258
   33DOPE  H14X 4243   2.289   3.034  13.646 -2.1337 -0.5784  2.2271
   33DOPE  H14Y 4244   2.327   2.919  13.500  0.7767  0.5519  0.5275
   33DOPE  C315 4245   2.149   2.884  13.624  0.7114  0.1454 -0.5327
   33DOPE  H15X 4246   2.188   2.789  13.668 -2.4176 -0.7394  0.5426
   33DOPE  H15Y 4247   2.066   2.855  13.557 -0.6477  1.8047  0.3602
   33DOPE  C316 4248   2.082   2.961  13.738  0.1253  0.5917  0.3597
   33DOPE  H16X 4249   2.034   3.048  13.690  1.8418  0.7643 -1.1236
   33DOPE  H16Y 4250   2.155   2.988  13.818 -0.8090 -2.2994  2.3950
   33DOPE  C317 4251   1.964   2.879  13.801  0.1202 -0.5032 -0.4691
   33DOPE  H17X 4252   1.902   2.942  13.868 -1.1763  1.7120 -3.5068
   33DOPE  H17Y 4253   1.896   2.849  13.719  0.0307 -1.7233  0.0323
   33DOPE  C318 4254   2.016   2.748  13.878 -0.5065 -0.5423 -0.2382
   33DOPE  H18X 4255   2.089   2.775  13.958 -0.6156 -1.9299  0.3574
   33DOPE  H18Y 4256   1.932   2.704  13.936 -0.2718 -0.6636  0.0163
   33DOPE  H18Z 4257   2.062   2.673  13.810  0.5585  0.2258 -0.3918
   34DOPE     N 4258   1.301   4.953  10.793 -0.4155 -0.3852 -0.3146
   34DOPE   HN1 4259   1.309   4.849  10.786 -0.6961 -0.6035  1.9113
   34DOPE   HN2 4260   1.211   4.980  10.836 -0.8868  1.8493 -2.4770
   34DOPE   HN3 4261   1.286   4.993  10.698  0.9629 -0.4716 -0.6003
   34DOPE   C12 4262   1.413   5.013  10.871 -0.6607  0.0785 -0.1371
   34DOPE  H12A 4263   1.410   5.122  10.847 -3.9373 -0.3139 -2.0471
   34DOPE  H12B 4264   1.507   4.971  10.829 -2.8000 -4.1246 -1.2516
   34DOPE   C11 4265   1.407   4.981  11.017 -0.0217 -0.0439  0.1841
   34DOPE  H11A 4266   1.490   5.036  11.068  0.6307  1.4904 -2.3177
   34DOPE  H11B 4267   1.426   4.873  11.032 -1.3062 -0.2750  0.1851
   34DOPE     P 4268   1.245   5.030  11.226  0.5430  0.0679  0.0042
   34DOPE   O13 4269   1.099   5.021  11.247  0.2352  0.3813  0.7140
   34DOPE   O14 4270   1.315   5.140  11.298  0.4439  0.4349  0.1881
   34DOPE   O11 4271   1.303   4.895  11.282 -0.1226 -0.4006  0.1044
   34DOPE   O12 4272   1.282   5.031  11.067  0.5982 -0.6006 -0.6884
   34DOPE    C1 4273   1.439   4.887  11.333  0.5825 -0.3222 -0.3304
   34DOPE    HA 4274   1.468   4.990  11.361 -0.5419  0.4183 -1.7338
   34DOPE    HB 4275   1.506   4.849  11.253  0.1514 -2.0716  0.0899
   34DOPE    C2 4276   1.446   4.795  11.456 -0.1416  0.2653 -0.9410
   34DOPE    HS 4277   1.424   4.690  11.425  2.6907 -0.9606  0.7915
   34DOPE   O21 4278   1.349   4.838  11.554 -0.5194  0.0399 -0.3388
   34DOPE   C21 4279   1.320   4.750  11.650  0.0046  0.0172  0.0876
   34DOPE   O22 4280   1.364   4.637  11.663 -0.1720 -0.7464 -0.4459
   34DOPE   C22 4281   1.228   4.826  11.753  0.4744  0.3730  0.1031
   34DOPE   H2R 4282   1.182   4.742  11.809  3.0498 -1.7970 -0.8306
   34DOPE   H2S 4283   1.140   4.866  11.698  0.3231  0.4822  0.4187
   34DOPE    C3 4284   1.595   4.782  11.500 -0.0826 -0.6626 -0.5718
   34DOPE    HX 4285   1.663   4.763  11.414  1.4347  1.7718 -0.0250
   34DOPE    HY 4286   1.613   4.688  11.557  0.2262  0.2374  0.8772
   34DOPE   O31 4287   1.645   4.909  11.559  0.2699  0.3182 -0.2426
   34DOPE   C31 4288   1.688   4.890  11.683  0.6425 -0.6199  0.7168
   34DOPE   O32 4289   1.693   4.783  11.734 -0.0593  0.1121  0.3557
   34DOPE   C32 4290   1.732   5.019  11.763 -0.5038  0.3481  0.0026
   34DOPE   H2X 4291   1.765   5.106  11.702  1.1300 -0.6959 -0.6665
   34DOPE   H2Y 4292   1.639   5.057  11.810 -0.3972  2.0436 -1.0819
   34DOPE   C23 4293   1.302   4.933  11.832  0.2182  0.7489 -0.3087
   34DOPE   H3R 4294   1.235   5.020  11.844 -2.0410 -0.7343 -1.3036
   34DOPE   H3S 4295   1.388   4.981  11.780  0.0769  0.9912 -0.3167
   34DOPE   C24 4296   1.347   4.881  11.972 -0.0941 -0.1251 -0.0062
   34DOPE   H4R 4297   1.267   4.819  12.020  0.5859  0.0427  1.4066
   34DOPE   H4S 4298   1.368   4.963  12.044  1.0435  0.6884 -1.2249
   34DOPE   C25 4299   1.479   4.805  11.967 -0.5571 -0.2361 -0.3442
   34DOPE   H5R 4300   1.555   4.880  11.936 -0.6642  0.3288  0.7173
   34DOPE   H5S 4301   1.491   4.724  11.893  2.2403 -0.2640  0.0352
   34DOPE   C26 4302   1.523   4.749  12.102 -0.1555  0.0013 -0.1924
   34DOPE   H6R 4303   1.446   4.680  12.143  0.7165 -0.9410 -0.1070
   34DOPE   H6S 4304   1.536   4.833  12.173 -1.0339  0.7198 -0.8551
   34DOPE   C27 4305   1.655   4.667  12.100 -0.5346  0.0018 -0.9999
   34DOPE   H7R 4306   1.731   4.747  12.088 -2.1993  1.5221 -1.6609
   34DOPE   H7S 4307   1.664   4.599  12.013  0.8810 -1.5132  0.2498
   34DOPE   C28 4308   1.683   4.593  12.231 -0.0916 -0.0441 -0.2004
   34DOPE   H8R 4309   1.764   4.519  12.212 -0.7583 -0.8535  0.0918
   34DOPE   H8S 4310   1.591   4.535  12.253 -1.7494  2.2109 -0.8174
   34DOPE   C29 4311   1.740   4.674  12.348 -0.0071 -0.2485 -0.2986
   34DOPE   H9R 4312   1.722   4.781  12.334  0.0275 -0.0270  1.2517
   34DOPE  C210 4313   1.773   4.632  12.476 -0.6415  0.4089  0.1956
   34DOPE  H10R 4314   1.827   4.700  12.545  0.8786  0.8113 -1.3119
   34DOPE  C211 4315   1.785   4.490  12.522  0.4544  0.1700 -0.0440
   34DOPE  H11R 4316   1.777   4.419  12.438  0.5383 -0.4563  0.4703
   34DOPE  H11S 4317   1.690   4.464  12.574  0.5362 -0.2116 -0.0839
   34DOPE  C212 4318   1.897   4.458  12.620  0.1035  0.4792 -0.6341
   34DOPE  H12R 4319   1.996   4.501  12.595  0.3939 -0.4618 -1.1292
   34DOPE  H12S 4320   1.920   4.350  12.618  2.4352  0.9346 -0.7248
   34DOPE  C213 4321   1.862   4.489  12.769 -0.2641 -0.2204 -0.2967
   34DOPE  H13R 4322   1.753   4.506  12.768 -0.2326 -0.0117 -1.4167
   34DOPE  H13S 4323   1.918   4.580  12.802 -1.8098  0.8524 -0.5505
   34DOPE  C214 4324   1.877   4.377  12.874  0.1414  0.4996 -0.6263
   34DOPE  H14R 4325   1.982   4.341  12.870  0.4549  1.2341  0.5354
   34DOPE  H14S 4326   1.807   4.291  12.867  0.4495 -0.0025  1.5824
   34DOPE  C215 4327   1.860   4.420  13.016 -0.5969  0.0009  0.4831
   34DOPE  H15R 4328   1.938   4.492  13.046 -0.5199  0.4126 -0.6676
   34DOPE  H15S 4329   1.879   4.326  13.073  0.7499 -1.8377 -2.7608
   34DOPE  C216 4330   1.725   4.481  13.043  0.1445 -0.1232 -0.2044
   34DOPE  H16R 4331   1.644   4.417  13.004  2.2486 -1.9213 -1.8998
   34DOPE  H16S 4332   1.724   4.584  12.999  0.8154 -0.6013 -1.3937
   34DOPE  C217 4333   1.703   4.496  13.195 -0.2924 -0.7401 -0.4165
   34DOPE  H17R 4334   1.694   4.391  13.229 -1.2561 -0.7356 -0.6203
   34DOPE  H17S 4335   1.609   4.551  13.216 -0.4945 -1.2057 -0.0834
   34DOPE  C218 4336   1.805   4.583  13.274  0.0966  0.5418 -0.1092
   34DOPE  H18R 4337   1.793   4.690  13.247  1.2310  1.5767  3.0647
   34DOPE  H18S 4338   1.912   4.553  13.261  0.2532  1.2608 -0.6043
   34DOPE  H18T 4339   1.780   4.576  13.382 -1.3256 -0.6325 -0.4996
   34DOPE   C33 4340   1.843   4.997  11.875 -0.3254 -0.2029  0.0050
   34DOPE   H3X 4341   1.946   5.022  11.841  0.4036  0.5708  2.5657
   34DOPE   H3Y 4342   1.853   4.888  11.896 -0.3604 -0.0056  1.0934
   34DOPE   C34 4343   1.817   5.066  12.005  0.3985  0.0989  0.1841
   34DOPE   H4X 4344   1.819   5.176  11.989  1.3914 -0.1547 -1.7018
   34DOPE   H4Y 4345   1.716   5.033  12.038  0.3431 -0.1225 -0.1992
   34DOPE   C35 4346   1.920   5.025  12.110 -0.4115 -0.0015  0.3242
   34DOPE   H5X 4347   2.004   5.093  12.087 -2.3217  2.0662 -0.9176
   34DOPE   H5Y 4348   1.950   4.918  12.100 -2.2287 -0.4431 -0.9892
   34DOPE   C36 4349   1.870   5.043  12.253  0.4473  0.5002 -0.3370
   34DOPE   H6X 4350   1.774   4.988  12.256 -0.5479  2.0748 -1.4575
   34DOPE   H6Y 4351   1.847   5.150  12.273  0.6776  0.1923  1.8742
   34DOPE   C37 4352   1.968   4.994  12.356 -0.0001 -0.3322 -0.5527
   34DOPE   H7X 4353   2.020   4.897  12.342  1.2512 -0.0446  1.6521
   34DOPE   H7Y 4354   2.056   5.061  12.349  0.4089 -0.6633  1.1060
   34DOPE   C38 4355   1.913   5.010  12.498 -0.0964 -0.1110 -0.0362
   34DOPE   H8X 4356   1.834   4.933  12.513  0.2419 -0.2683  1.0112
   34DOPE   H8Y 4357   1.859   5.107  12.500 -1.2379 -0.7381  1.0051
   34DOPE   C39 4358   2.013   4.993  12.618 -0.1158  0.3985  0.3742
   34DOPE   H9X 4359   2.117   4.979  12.586  0.7423  1.6657  2.4147
   34DOPE  C310 4360   1.984   5.007  12.749 -0.6171 -0.6238 -0.3570
   34DOPE  H10X 4361   2.061   4.980  12.824  0.9846  0.7774 -1.4139
   34DOPE  C311 4362   1.854   5.050  12.806 -0.2445 -0.0458  0.2151
   34DOPE  H11X 4363   1.872   5.142  12.866  0.8881 -0.0228 -0.1422
   34DOPE  H11Y 4364   1.782   5.076  12.725  1.7240 -1.2758 -2.0368
   34DOPE  C312 4365   1.769   4.958  12.898 -0.2821  0.0044 -0.2318
   34DOPE  H12X 4366   1.743   4.868  12.839  1.2928  0.2625 -1.3810
   34DOPE  H12Y 4367   1.674   5.011  12.921 -0.4722 -1.0873  1.7067
   34DOPE  C313 4368   1.829   4.921  13.037 -0.2874 -0.2108 -0.1104
   34DOPE  H13X 4369   1.768   4.847  13.093  0.4962 -0.4820  0.4024
   34DOPE  H13Y 4370   1.922   4.863  13.016  0.3514  0.3704  0.9878
   34DOPE  C314 4371   1.852   5.043  13.122 -0.9298 -0.2203 -0.4069
   34DOPE  H14X 4372   1.905   5.124  13.069 -0.2847  0.7950  1.6676
   34DOPE  H14Y 4373   1.912   5.008  13.209 -0.4335  0.1197 -0.6110
   34DOPE  C315 4374   1.722   5.095  13.179  0.7217 -0.1542  0.5584
   34DOPE  H15X 4375   1.654   5.010  13.199  1.8696 -1.1248  0.4486
   34DOPE  H15Y 4376   1.669   5.160  13.106 -0.7493 -0.3897  1.3639
   34DOPE  C316 4377   1.730   5.164  13.313  0.0365  0.3789 -0.3419
   34DOPE  H16X 4378   1.636   5.222  13.329 -0.5224 -0.4517 -0.5359
   34DOPE  H16Y 4379   1.818   5.232  13.309 -0.0955  0.4772 -2.1348
   34DOPE  C317 4380   1.740   5.074  13.441  0.1540  0.7146 -0.6339
   34DOPE  H17X 4381   1.811   4.989  13.445  0.1714  0.6216 -2.1933
   34DOPE  H17Y 4382   1.777   5.144  13.519 -1.7681  0.8055  0.2724
   34DOPE  C318 4383   1.610   5.007  13.484 -0.4733  0.1560  0.1918
   34DOPE  H18X 4384   1.634   4.925  13.556 -1.1610 -1.4005 -1.2747
   34DOPE  H18Y 4385   1.549   5.086  13.532  0.9293  2.0519 -0.9875
   34DOPE  H18Z 4386   1.553   4.958  13.402 -1.1353  1.2598 -0.0158
   35DOPE     N 4387   3.806   4.834  11.480 -0.1875 -0.1055 -0.4159
   35DOPE   HN1 4388   3.800   4.913  11.412  2.0318 -0.5897 -1.2544
   35DOPE   HN2 4389   3.853   4.868  11.566 -0.4454  0.6717 -0.5753
   35DOPE   HN3 4390   3.873   4.776  11.425 -2.6720 -1.3369 -2.3509
   35DOPE   C12 4391   3.685   4.748  11.524  0.3807 -0.3627 -0.2607
   35DOPE  H12A 4392   3.636   4.715  11.430  0.9250 -1.0560 -0.3096
   35DOPE  H12B 4393   3.605   4.808  11.572  0.0852 -2.4853  2.1279
   35DOPE   C11 4394   3.719   4.635  11.621  0.6512 -0.1579 -0.1169
   35DOPE  H11A 4395   3.627   4.574  11.635  1.5490 -1.4248  0.4869
   35DOPE  H11B 4396   3.743   4.685  11.716 -0.1104  0.0706 -0.0326
   35DOPE     P 4397   3.802   4.427  11.476 -0.2113  0.4006 -0.0069
   35DOPE   O13 4398   3.842   4.470  11.338  0.3676  0.0118 -0.0050
   35DOPE   O14 4399   3.667   4.365  11.495 -0.2036  0.2325  0.3864
   35DOPE   O11 4400   3.908   4.327  11.527  0.3587  0.1515  0.0439
   35DOPE   O12 4401   3.823   4.549  11.576  0.2032 -0.2289 -0.2513
   35DOPE    C1 4402   4.005   4.365  11.628  0.1794  0.0064  0.3298
   35DOPE    HA 4403   4.043   4.468  11.610  0.1288  0.1256  0.8788
   35DOPE    HB 4404   4.094   4.298  11.631  0.3048  0.1752  2.7062
   35DOPE    C2 4405   3.931   4.351  11.767  0.6754 -0.4799 -0.6313
   35DOPE    HS 4406   3.852   4.428  11.782  1.5809  0.1763  1.0724
   35DOPE   O21 4407   4.034   4.371  11.866 -0.6320 -0.0150 -0.2090
   35DOPE   C21 4408   4.003   4.438  11.975  0.3511 -0.3423 -0.4110
   35DOPE   O22 4409   3.890   4.455  12.017  0.2006  0.0086  0.2896
   35DOPE   C22 4410   4.130   4.482  12.049  0.0271  0.3619  0.3729
   35DOPE   H2R 4411   4.200   4.498  11.964 -0.4555 -0.6305 -0.2339
   35DOPE   H2S 4412   4.173   4.397  12.105  0.2696  1.0575  1.2678
   35DOPE    C3 4413   3.866   4.210  11.783  0.2282 -0.0059 -0.5026
   35DOPE    HX 4414   3.948   4.137  11.766 -0.0190 -0.9629  2.0063
   35DOPE    HY 4415   3.798   4.212  11.695 -0.8552 -0.7537  0.2859
   35DOPE   O31 4416   3.793   4.191  11.908 -0.2624 -0.0222  0.3454
   35DOPE   C31 4417   3.672   4.244  11.900  0.0602 -0.7002 -0.6997
   35DOPE   O32 4418   3.628   4.318  11.810 -0.3380 -0.2770  0.0472
   35DOPE   C32 4419   3.584   4.206  12.020 -0.0918  0.6677 -0.1348
   35DOPE   H2X 4420   3.507   4.285  12.039  0.0891  0.7056  0.4559
   35DOPE   H2Y 4421   3.543   4.106  11.998  0.5536  0.4621 -0.4223
   35DOPE   C23 4422   4.122   4.600  12.140  0.3293  0.3452 -0.7557
   35DOPE   H3R 4423   4.052   4.677  12.102 -1.6190  0.4294  2.6335
   35DOPE   H3S 4424   4.219   4.650  12.162 -0.4042  0.7404  1.7967
   35DOPE   C24 4425   4.079   4.555  12.286 -0.4919 -0.0589 -0.1406
   35DOPE   H4R 4426   4.163   4.493  12.324  0.0411  0.9209  0.2890
   35DOPE   H4S 4427   3.989   4.490  12.280  0.0953 -1.0547  1.2858
   35DOPE   C25 4428   4.052   4.672  12.380  0.1135  0.5327  0.7751
   35DOPE   H5R 4429   3.956   4.717  12.346 -1.1483 -2.0523  0.6528
   35DOPE   H5S 4430   4.130   4.748  12.361  0.6083 -0.2266 -0.3495
   35DOPE   C26 4431   4.056   4.633  12.527 -0.3626 -0.0303  0.7261
   35DOPE   H6R 4432   4.160   4.600  12.549 -0.1177 -0.9034 -1.4452
   35DOPE   H6S 4433   3.986   4.553  12.558  2.0881 -1.6115  2.5553
   35DOPE   C27 4434   4.035   4.759  12.620 -0.1017 -0.1359  0.7562
   35DOPE   H7R 4435   3.955   4.821  12.573 -0.1302 -1.9548 -1.7955
   35DOPE   H7S 4436   4.133   4.811  12.617 -0.6225  0.8472 -1.9692
   35DOPE   C28 4437   4.010   4.739  12.771 -0.1345  0.3131 -0.3980
   35DOPE   H8R 4438   3.900   4.745  12.783 -0.5141  1.3491 -3.5765
   35DOPE   H8S 4439   4.039   4.830  12.826  1.0871 -1.1942  1.5927
   35DOPE   C29 4440   4.055   4.614  12.841  0.3214 -0.0548 -0.0827
   35DOPE   H9R 4441   4.010   4.520  12.808  0.6254 -0.2160 -0.0454
   35DOPE  C210 4442   4.164   4.593  12.914 -0.3926  0.3143 -0.4140
   35DOPE  H10R 4443   4.177   4.502  12.975  0.9813  1.7067  1.4858
   35DOPE  C211 4444   4.274   4.688  12.954  0.2422 -0.2025 -0.3773
   35DOPE  H11R 4445   4.259   4.788  12.907  0.3200  0.0177  0.0690
   35DOPE  H11S 4446   4.369   4.659  12.904 -0.4652 -0.5419 -1.5614
   35DOPE  C212 4447   4.300   4.714  13.095 -0.6346 -0.0729 -0.5284
   35DOPE  H12R 4448   4.273   4.618  13.144  1.3203  0.2205  1.2775
   35DOPE  H12S 4449   4.233   4.790  13.140  0.9484  0.2844  1.4045
   35DOPE  C213 4450   4.451   4.746  13.127 -1.1098  0.3230 -0.0653
   35DOPE  H13R 4451   4.479   4.846  13.088  0.9747 -0.3304 -0.3519
   35DOPE  H13S 4452   4.509   4.665  13.078 -0.6842  0.1218  0.7371
   35DOPE  C214 4453   4.472   4.745  13.275  0.2461  0.3705  0.2784
   35DOPE  H14R 4454   4.486   4.636  13.293 -0.0942 -0.0681 -1.8193
   35DOPE  H14S 4455   4.377   4.773  13.325 -0.8894 -0.8644 -1.0621
   35DOPE  C215 4456   4.580   4.838  13.325 -0.1679  0.6322  0.0013
   35DOPE  H15R 4457   4.559   4.943  13.295  2.5663  1.2818  0.0538
   35DOPE  H15S 4458   4.668   4.805  13.264  0.7672  0.4660  1.3983
   35DOPE  C216 4459   4.617   4.827  13.476  0.3195  0.1681 -0.3029
   35DOPE  H16R 4460   4.650   4.724  13.502  0.0125  0.6216  2.1552
   35DOPE  H16S 4461   4.525   4.846  13.536  0.5337 -1.9279  0.7811
   35DOPE  C217 4462   4.729   4.928  13.510 -0.2468 -0.0276 -0.4020
   35DOPE  H17R 4463   4.689   5.029  13.490  0.1937  0.1136 -0.5567
   35DOPE  H17S 4464   4.813   4.913  13.439 -0.0021  1.9312 -0.5746
   35DOPE  C218 4465   4.779   4.909  13.651  0.6428 -0.5761  0.3299
   35DOPE  H18R 4466   4.715   4.959  13.726 -2.4531 -1.5709 -1.4557
   35DOPE  H18S 4467   4.878   4.959  13.660 -0.1983  1.5549 -1.4849
   35DOPE  H18T 4468   4.784   4.801  13.676 -2.0899 -0.8167  0.1454
   35DOPE   C33 4469   3.659   4.185  12.157  0.1502  0.0898 -0.2244
   35DOPE   H3X 4470   3.708   4.280  12.188  1.0749 -0.0035 -1.3291
   35DOPE   H3Y 4471   3.740   4.112  12.138  1.8358  1.2580  2.0819
   35DOPE   C34 4472   3.563   4.129  12.258  0.3850  0.2284 -0.3132
   35DOPE   H4X 4473   3.522   4.212  12.319 -0.8723  0.0729 -0.9286
   35DOPE   H4Y 4474   3.477   4.086  12.202 -0.9016 -0.5891  2.1234
   35DOPE   C35 4475   3.615   4.013  12.343  0.0821  0.3200  0.3850
   35DOPE   H5X 4476   3.698   4.041  12.412  2.0390 -2.9085 -0.4352
   35DOPE   H5Y 4477   3.667   3.942  12.274  1.1384  0.7632  0.6997
   35DOPE   C36 4478   3.507   3.941  12.417  0.4357 -0.6986 -0.7057
   35DOPE   H6X 4479   3.542   3.846  12.462  0.0911 -0.6210 -0.2576
   35DOPE   H6Y 4480   3.428   3.912  12.344  1.1792 -0.2784 -1.6951
   35DOPE   C37 4481   3.436   4.023  12.521  0.2183  0.0507 -0.1470
   35DOPE   H7X 4482   3.394   4.117  12.479 -0.3437 -0.3332 -0.4579
   35DOPE   H7Y 4483   3.352   3.965  12.565  1.7242 -0.9122  1.6232
   35DOPE   C38 4484   3.520   4.072  12.647  1.0924 -0.6504 -0.3539
   35DOPE   H8X 4485   3.442   4.134  12.696  2.3887  1.2909 -0.6226
   35DOPE   H8Y 4486   3.611   4.122  12.607  0.5090 -0.9220 -2.1064
   35DOPE   C39 4487   3.572   3.960  12.734  0.0352 -0.2630 -0.7970
   35DOPE   H9X 4488   3.631   3.884  12.681  1.0306 -0.9575  1.1938
   35DOPE  C310 4489   3.556   3.938  12.866  0.7772 -0.1923 -0.3506
   35DOPE  H10X 4490   3.618   3.859  12.910 -0.4395 -0.3604  1.1538
   35DOPE  C311 4491   3.474   4.015  12.970 -0.1281  0.2928 -0.8845
   35DOPE  H11X 4492   3.544   4.058  13.046 -1.3892 -0.9264  1.0506
   35DOPE  H11Y 4493   3.425   4.103  12.922  0.3978  1.8614  1.2659
   35DOPE  C312 4494   3.360   3.942  13.040 -0.4878 -0.3394 -0.6514
   35DOPE  H12X 4495   3.297   3.889  12.966  1.9961 -0.8464 -2.5240
   35DOPE  H12Y 4496   3.297   4.017  13.092  2.4679  1.3693  0.7331
   35DOPE  C313 4497   3.409   3.837  13.140  0.1759 -0.5282  0.2150
   35DOPE  H13X 4498   3.453   3.750  13.086  1.6173  0.2132  0.1244
   35DOPE  H13Y 4499   3.497   3.885  13.189  1.3229 -2.1844 -0.1706
   35DOPE  C314 4500   3.300   3.789  13.230 -0.1320  0.5246 -0.1527
   35DOPE  H14X 4501   3.211   3.757  13.173 -1.3976  0.8082  1.5751
   35DOPE  H14Y 4502   3.249   3.877  13.275 -3.6524 -0.6342 -1.5782
   35DOPE  C315 4503   3.356   3.702  13.339 -0.0114 -0.1966 -0.4986
   35DOPE  H15X 4504   3.301   3.693  13.435 -4.3252 -1.0902 -2.8100
   35DOPE  H15Y 4505   3.451   3.756  13.360 -0.1103  0.1911 -1.0121
   35DOPE  C316 4506   3.388   3.558  13.297 -0.3406 -0.0253 -0.0165
   35DOPE  H16X 4507   3.445   3.504  13.375  0.8362 -0.9080 -1.4245
   35DOPE  H16Y 4508   3.461   3.564  13.213 -1.2381 -0.8305 -0.8732
   35DOPE  C317 4509   3.266   3.474  13.270 -0.1825  0.3612 -0.0022
   35DOPE  H17X 4510   3.198   3.476  13.358  0.1301  0.0455  0.2508
   35DOPE  H17Y 4511   3.222   3.512  13.175  1.6006  1.6626 -0.3597
   35DOPE  C318 4512   3.303   3.327  13.250  0.0150  0.2243 -0.0561
   35DOPE  H18X 4513   3.211   3.272  13.220 -0.8260  0.5628  1.7894
   35DOPE  H18Y 4514   3.380   3.323  13.170 -0.4556 -0.5610 -0.4842
   35DOPE  H18Z 4515   3.338   3.282  13.345  5.4182 -0.8448 -2.1854
   36DOPE     N 4516   4.281   5.148  11.192 -0.0246  0.9040 -0.8935
   36DOPE   HN1 4517   4.249   5.059  11.235  2.2940  0.7290  0.6492
   36DOPE   HN2 4518   4.378   5.116  11.171  0.6064 -0.5358  3.3820
   36DOPE   HN3 4519   4.295   5.217  11.268  1.0477  0.8067 -0.9837
   36DOPE   C12 4520   4.198   5.197  11.072  0.2167  0.9002  0.2206
   36DOPE  H12A 4521   4.192   5.116  10.996 -0.2494 -0.1330  1.3259
   36DOPE  H12B 4522   4.259   5.281  11.032  2.4787 -0.6191  0.3173
   36DOPE   C11 4523   4.052   5.250  11.117  0.7433  0.5943 -0.1241
   36DOPE  H11A 4524   3.999   5.291  11.028 -1.2344 -0.1069  0.6773
   36DOPE  H11B 4525   4.063   5.322  11.200  0.7622  0.1982  0.2236
   36DOPE     P 4526   3.841   5.144  11.225 -0.5530  0.1818  0.0370
   36DOPE   O13 4527   3.801   5.013  11.288  0.1106 -0.3221 -0.5926
   36DOPE   O14 4528   3.751   5.206  11.126 -0.4361  0.5223  0.5452
   36DOPE   O11 4529   3.869   5.250  11.344  0.4313  0.1360  0.3259
   36DOPE   O12 4530   3.978   5.132  11.157 -0.0964 -0.9273 -0.7578
   36DOPE    C1 4531   3.976   5.222  11.434 -0.1231  0.6661 -0.5923
   36DOPE    HA 4532   4.043   5.310  11.445 -0.3624  0.7672  0.0604
   36DOPE    HB 4533   4.044   5.142  11.398  0.1066  0.3031  0.6095
   36DOPE    C2 4534   3.937   5.190  11.584 -0.0582 -0.3181 -0.6799
   36DOPE    HS 4535   3.853   5.119  11.578  0.1962 -0.6489 -0.3640
   36DOPE   O21 4536   3.903   5.316  11.646  0.0633 -0.4677  0.0202
   36DOPE   C21 4537   3.836   5.311  11.759  0.1905 -0.2816 -0.3903
   36DOPE   O22 4538   3.778   5.214  11.809 -0.6734  0.1439  0.5583
   36DOPE   C22 4539   3.815   5.451  11.814 -0.9125 -0.7686  0.3502
   36DOPE   H2R 4540   3.732   5.448  11.889 -1.7264  0.4202 -0.4706
   36DOPE   H2S 4541   3.782   5.509  11.725  0.1344  1.9733  1.6465
   36DOPE    C3 4542   4.059   5.133  11.653  0.5831 -0.1637  0.1841
   36DOPE    HX 4543   4.134   5.214  11.666 -1.2974  1.6784 -0.0039
   36DOPE    HY 4544   4.100   5.050  11.591  0.7197  1.4771 -2.0773
   36DOPE   O31 4545   4.038   5.091  11.790  0.0553 -0.2787  0.6340
   36DOPE   C31 4546   3.964   4.977  11.800  0.6093  0.0730 -0.1249
   36DOPE   O32 4547   3.921   4.912  11.703 -0.2955 -0.5154 -0.5993
   36DOPE   C32 4548   3.947   4.941  11.948  0.0249 -0.2106 -0.2402
   36DOPE   H2X 4549   3.846   4.895  11.957 -0.2519 -0.2038 -2.7120
   36DOPE   H2Y 4550   4.028   4.868  11.967  0.8708  0.6278 -0.5756
   36DOPE   C23 4551   3.944   5.507  11.879  0.6990  0.5015 -0.2193
   36DOPE   H3R 4552   3.954   5.618  11.874  2.2261  0.5536  2.1241
   36DOPE   H3S 4553   4.032   5.453  11.837  1.2361  0.0072  1.4615
   36DOPE   C24 4554   3.949   5.468  12.027 -0.3940 -0.0917  0.2718
   36DOPE   H4R 4555   4.055   5.478  12.059  0.2987  0.0323 -1.9249
   36DOPE   H4S 4556   3.934   5.359  12.037  0.0736 -0.2879 -1.0160
   36DOPE   C25 4557   3.868   5.554  12.128 -0.0689  0.3691 -0.5997
   36DOPE   H5R 4558   3.762   5.528  12.109 -0.2367 -0.6865  1.5004
   36DOPE   H5S 4559   3.878   5.663  12.104 -1.6378  0.6259 -0.1699
   36DOPE   C26 4560   3.905   5.521  12.271  0.0898 -0.6480 -0.0287
   36DOPE   H6R 4561   4.015   5.524  12.291  0.5043 -1.2052 -2.0476
   36DOPE   H6S 4562   3.860   5.425  12.304 -4.2943  1.2035  0.0444
   36DOPE   C27 4563   3.829   5.617  12.370  0.4527  0.0823  1.4425
   36DOPE   H7R 4564   3.724   5.608  12.335  0.8790 -0.8883  0.3328
   36DOPE   H7S 4565   3.878   5.715  12.351  0.2987 -0.0715  0.1446
   36DOPE   C28 4566   3.842   5.580  12.522  0.3565 -1.0978  0.6864
   36DOPE   H8R 4567   3.796   5.481  12.543 -0.4716 -0.4131  2.2576
   36DOPE   H8S 4568   3.776   5.654  12.572  1.6641  1.2196 -0.8156
   36DOPE   C29 4569   3.985   5.593  12.576  0.3907  0.1886 -0.1784
   36DOPE   H9R 4570   4.049   5.518  12.527  1.5183  0.0519  1.4491
   36DOPE  C210 4571   4.031   5.669  12.679 -0.4061  0.0426 -0.4130
   36DOPE  H10R 4572   4.136   5.652  12.707  0.3465 -1.3148 -3.6702
   36DOPE  C211 4573   3.960   5.780  12.752 -0.1609 -0.1913  0.3962
   36DOPE  H11R 4574   3.880   5.814  12.682 -1.2951 -2.1809  0.6579
   36DOPE  H11S 4575   4.023   5.869  12.771  0.0614 -0.0309 -0.9838
   36DOPE  C212 4576   3.899   5.738  12.889  0.4652  0.0880  0.1668
   36DOPE  H12R 4577   3.842   5.643  12.877 -0.4526  0.7634 -0.9309
   36DOPE  H12S 4578   3.840   5.823  12.929 -0.2501 -1.3337  2.3208
   36DOPE  C213 4579   4.005   5.699  12.992  0.0630  0.4361 -0.2682
   36DOPE  H13R 4580   4.058   5.789  13.027  2.3851  0.0258 -2.4349
   36DOPE  H13S 4581   4.078   5.625  12.953 -1.1326 -2.1891  2.0980
   36DOPE  C214 4582   3.944   5.629  13.111 -0.2761 -0.1384  0.6577
   36DOPE  H14R 4583   3.941   5.519  13.097 -1.4412 -0.2618  1.6945
   36DOPE  H14S 4584   3.841   5.666  13.129 -0.3146  0.5982 -0.9024
   36DOPE  C215 4585   4.023   5.649  13.237  0.5599  0.7721  0.3031
   36DOPE  H15R 4586   3.985   5.737  13.295 -1.7073 -0.6540  1.1051
   36DOPE  H15S 4587   4.133   5.655  13.225  0.8724 -0.0630  2.2694
   36DOPE  C216 4588   4.015   5.527  13.331 -0.9480 -0.0920 -0.5190
   36DOPE  H16R 4589   4.059   5.433  13.293 -1.0453 -1.0345  1.5697
   36DOPE  H16S 4590   3.911   5.503  13.360 -0.0878 -3.8917 -0.0566
   36DOPE  C217 4591   4.084   5.563  13.466  0.3298  0.4097 -0.1696
   36DOPE  H17R 4592   4.047   5.660  13.507  1.7914 -0.5696  3.9030
   36DOPE  H17S 4593   4.194   5.570  13.452  0.3251 -1.5092 -1.5179
   36DOPE  C218 4594   4.058   5.469  13.582 -0.3284 -0.2427 -0.1583
   36DOPE  H18R 4595   3.951   5.451  13.608 -1.5256  0.2635 -4.0730
   36DOPE  H18S 4596   4.102   5.507  13.676  0.0332 -2.0868  0.4662
   36DOPE  H18T 4597   4.104   5.370  13.564 -0.3754 -0.0274 -1.5684
   36DOPE   C33 4598   3.955   5.058  12.051  0.6122 -0.5661 -0.1724
   36DOPE   H3X 4599   3.865   5.121  12.033  0.2186 -1.1093 -0.1432
   36DOPE   H3Y 4600   4.042   5.123  12.026  0.6729 -0.3775  0.5320
   36DOPE   C34 4601   3.960   5.010  12.196  0.1349  0.3334 -0.4231
   36DOPE   H4X 4602   3.865   4.961  12.224  2.0384 -3.2623  0.4178
   36DOPE   H4Y 4603   4.053   4.949  12.201 -0.0596 -0.0027 -0.8630
   36DOPE   C35 4604   3.976   5.120  12.292  0.0592 -0.5495 -0.0143
   36DOPE   H5X 4605   3.897   5.197  12.282  0.6069 -0.1005 -1.0566
   36DOPE   H5Y 4606   4.076   5.163  12.269  0.8676 -2.8033 -1.0779
   36DOPE   C36 4607   3.965   5.066  12.439  0.2297  0.3219  0.0176
   36DOPE   H6X 4608   4.031   4.977  12.441  0.2554  0.3265 -0.4170
   36DOPE   H6Y 4609   3.858   5.039  12.449 -0.8646  3.6456 -1.2316
   36DOPE   C37 4610   4.025   5.165  12.542  0.0324 -0.0105  0.4457
   36DOPE   H7X 4611   4.136   5.161  12.538 -0.0053 -1.3697  0.2173
   36DOPE   H7Y 4612   3.989   5.267  12.518 -1.7208 -0.8322 -0.6068
   36DOPE   C38 4613   3.979   5.153  12.692 -0.5852 -0.0281 -0.7374
   36DOPE   H8X 4614   4.035   5.071  12.742 -0.7957  1.2224  1.6793
   36DOPE   H8Y 4615   3.869   5.145  12.703 -0.4609  0.1462  0.8808
   36DOPE   C39 4616   4.027   5.274  12.772 -0.4775 -0.1296 -0.6969
   36DOPE   H9X 4617   3.950   5.352  12.765 -0.0763  0.1247 -4.0259
   36DOPE  C310 4618   4.139   5.287  12.838 -0.3015  0.4307 -0.3241
   36DOPE  H10X 4619   4.157   5.377  12.899  1.7116  0.4659 -0.9023
   36DOPE  C311 4620   4.256   5.191  12.860  0.3660 -0.6362  0.4694
   36DOPE  H11X 4621   4.231   5.086  12.832  1.7927 -0.5134 -1.4145
   36DOPE  H11Y 4622   4.339   5.216  12.791 -0.0258 -0.1372  0.1736
   36DOPE  C312 4623   4.321   5.187  13.002 -0.1412  0.3249 -0.1392
   36DOPE  H12X 4624   4.370   5.284  13.025 -0.5374  0.5974 -0.4218
   36DOPE  H12Y 4625   4.394   5.104  13.002 -0.9091 -0.3728 -1.2699
   36DOPE  C313 4626   4.220   5.145  13.110  0.5948  0.1710 -0.0649
   36DOPE  H13X 4627   4.141   5.220  13.132 -0.2375 -1.3508  2.4646
   36DOPE  H13Y 4628   4.165   5.059  13.065  0.7170  0.2282 -0.3281
   36DOPE  C314 4629   4.283   5.103  13.242 -0.6201 -1.1950  0.1836
   36DOPE  H14X 4630   4.361   5.025  13.227  0.0277 -1.0633  2.4926
   36DOPE  H14Y 4631   4.195   5.067  13.300  1.2722 -3.4938  1.7952
   36DOPE  C315 4632   4.344   5.215  13.324  0.0652  1.5756 -0.1781
   36DOPE  H15X 4633   4.282   5.306  13.337  0.4688  1.7773  0.4095
   36DOPE  H15Y 4634   4.441   5.241  13.278 -0.2176  0.8890 -1.1956
   36DOPE  C316 4635   4.370   5.168  13.474  0.5763  0.0575  0.1900
   36DOPE  H16X 4636   4.423   5.071  13.486  0.2341 -0.0406  0.9175
   36DOPE  H16Y 4637   4.275   5.175  13.530  0.1188  1.3024 -0.6928
   36DOPE  C317 4638   4.448   5.287  13.544 -0.4213  0.2633 -0.9396
   36DOPE  H17X 4639   4.551   5.301  13.507 -0.4987 -1.9704 -2.1817
   36DOPE  H17Y 4640   4.392   5.380  13.519  2.5279  1.8534 -2.0347
   36DOPE  C318 4641   4.456   5.260  13.699 -0.3403  0.1308 -0.4730
   36DOPE  H18X 4642   4.497   5.160  13.726 -0.5631  0.1470 -0.0725
   36DOPE  H18Y 4643   4.516   5.335  13.754  0.2274  0.4571 -1.4988
   36DOPE  H18Z 4644   4.348   5.251  13.720 -0.6416 -1.8566 -2.4819
   37DOPE     N 4645   1.698   4.025  11.032  0.1196 -0.3905 -0.3147
   37DOPE   HN1 4646   1.640   4.027  11.118 -0.2145  0.5976 -0.5573
   37DOPE   HN2 4647   1.654   3.937  10.998 -2.1219  0.7160 -0.4138
   37DOPE   HN3 4648   1.796   4.006  11.063  0.0205 -2.4005 -1.0424
   37DOPE   C12 4649   1.673   4.154  10.956  0.3628  0.0131 -0.5426
   37DOPE  H12A 4650   1.564   4.164  10.937  0.6690  1.7726 -1.5184
   37DOPE  H12B 4651   1.710   4.131  10.854 -3.4213 -4.6338 -1.2505
   37DOPE   C11 4652   1.732   4.277  11.033 -0.0007 -0.1765  0.4034
   37DOPE  H11A 4653   1.681   4.280  11.132  1.3063  0.3936  1.0717
   37DOPE  H11B 4654   1.713   4.371  10.976  1.2184  0.7533  1.5008
   37DOPE     P 4655   1.969   4.352  11.109 -0.0888  0.3003 -0.1297
   37DOPE   O13 4656   1.909   4.476  11.151  0.2366  0.3161  0.7691
   37DOPE   O14 4657   2.090   4.362  11.023  0.5378  0.2347 -0.4662
   37DOPE   O11 4658   2.016   4.278  11.240  0.6350 -0.1812 -0.0632
   37DOPE   O12 4659   1.871   4.247  11.054  0.2099 -0.4210 -0.0676
   37DOPE    C1 4660   1.920   4.229  11.332 -0.1440  0.6053 -0.2766
   37DOPE    HA 4661   1.901   4.123  11.303  1.5033 -0.2842  1.6776
   37DOPE    HB 4662   1.821   4.277  11.317 -0.0730  0.0070 -3.6143
   37DOPE    C2 4663   1.958   4.254  11.482  0.5117  0.2847  0.3256
   37DOPE    HS 4664   1.874   4.226  11.548 -0.9222  0.6515 -1.2699
   37DOPE   O21 4665   1.999   4.390  11.497 -0.6012  0.4608  0.2804
   37DOPE   C21 4666   1.904   4.482  11.500 -0.4545  0.6813  0.3277
   37DOPE   O22 4667   1.783   4.459  11.509 -0.7977 -0.0909 -0.0695
   37DOPE   C22 4668   1.963   4.624  11.496 -0.3110  0.0647  0.1281
   37DOPE   H2R 4669   1.884   4.686  11.543 -2.9816 -1.6855 -1.7482
   37DOPE   H2S 4670   1.983   4.656  11.391  0.5551 -1.0831 -0.0705
   37DOPE    C3 4671   2.077   4.168  11.530  0.4050  0.4704 -0.1340
   37DOPE    HX 4672   2.169   4.212  11.487  2.0081 -0.2057  2.4163
   37DOPE    HY 4673   2.070   4.067  11.484  0.4156 -0.2559  1.4304
   37DOPE   O31 4674   2.080   4.163  11.673  0.4970  0.7796  0.0748
   37DOPE   C31 4675   2.191   4.128  11.736  0.7200  0.1736 -0.5511
   37DOPE   O32 4676   2.294   4.098  11.678  0.4901  0.6448  0.0364
   37DOPE   C32 4677   2.165   4.144  11.885 -0.2949  0.2861 -0.7424
   37DOPE   H2X 4678   2.169   4.253  11.902 -0.0840  0.4492 -1.7606
   37DOPE   H2Y 4679   2.066   4.111  11.921  0.5496 -1.1462  0.3892
   37DOPE   C23 4680   2.094   4.635  11.583  0.0111 -0.0866 -0.2922
   37DOPE   H3R 4681   2.154   4.721  11.547  0.3159 -0.0997  0.1744
   37DOPE   H3S 4682   2.167   4.552  11.590  1.9136  1.5049 -0.2538
   37DOPE   C24 4683   2.065   4.664  11.733 -0.3048  0.0292  1.0380
   37DOPE   H4R 4684   2.000   4.753  11.733  0.2828  0.6877 -3.6696
   37DOPE   H4S 4685   2.159   4.691  11.787 -0.5194  1.9367  0.5062
   37DOPE   C25 4686   1.998   4.557  11.819 -0.0726 -0.0627  0.7618
   37DOPE   H5R 4687   2.058   4.463  11.817  1.2532  0.7599 -0.2842
   37DOPE   H5S 4688   1.901   4.531  11.771  0.2394 -0.5185  0.3585
   37DOPE   C26 4689   1.968   4.596  11.963  0.1008 -0.2999 -0.7203
   37DOPE   H6R 4690   1.934   4.505  12.018  2.6166 -0.7006  0.3107
   37DOPE   H6S 4691   1.893   4.678  11.957 -0.1381 -0.1529  2.4612
   37DOPE   C27 4692   2.100   4.642  12.028  0.0753 -0.1562 -0.2102
   37DOPE   H7R 4693   2.138   4.737  11.985 -2.1875 -0.3084 -2.7995
   37DOPE   H7S 4694   2.179   4.566  12.013  0.2386 -0.6918  2.7405
   37DOPE   C28 4695   2.085   4.666  12.179 -0.2119  0.2796  0.2604
   37DOPE   H8R 4696   2.000   4.732  12.207 -0.8119 -0.1362 -0.5687
   37DOPE   H8S 4697   2.177   4.720  12.210 -0.8458  1.2329  0.5426
   37DOPE   C29 4698   2.073   4.532  12.251 -0.1628  0.3627 -0.1002
   37DOPE   H9R 4699   1.970   4.493  12.249 -0.6595  1.6568 -0.8270
   37DOPE  C210 4700   2.175   4.470  12.320 -0.1783 -0.1324 -0.8053
   37DOPE  H10R 4701   2.160   4.373  12.370 -0.3827  1.5034  2.6080
   37DOPE  C211 4702   2.324   4.509  12.337 -0.0521 -0.1482  0.3717
   37DOPE  H11R 4703   2.335   4.587  12.258  1.0282 -2.0130 -1.4246
   37DOPE  H11S 4704   2.390   4.425  12.306  0.8307  0.0565  1.6117
   37DOPE  C212 4705   2.355   4.538  12.484 -0.2882 -0.0186 -0.5098
   37DOPE  H12R 4706   2.463   4.532  12.506 -0.6563 -1.5859  1.1020
   37DOPE  H12S 4707   2.312   4.457  12.547 -0.7381 -0.2861 -1.1439
   37DOPE  C213 4708   2.282   4.661  12.549 -0.2332  0.2280  0.7201
   37DOPE  H13R 4709   2.174   4.665  12.523  0.2243 -0.1852 -1.4723
   37DOPE  H13S 4710   2.318   4.746  12.488 -1.4431  1.4241  1.6076
   37DOPE  C214 4711   2.318   4.717  12.686  0.1656 -0.2481  1.0583
   37DOPE  H14R 4712   2.288   4.823  12.704 -0.0182  0.0141 -0.6111
   37DOPE  H14S 4713   2.429   4.711  12.686  0.2690  1.2920  0.4778
   37DOPE  C215 4714   2.257   4.632  12.799  0.6773 -0.6081 -0.4065
   37DOPE  H15R 4715   2.298   4.530  12.811  2.0946 -0.1430 -1.1407
   37DOPE  H15S 4716   2.150   4.611  12.777 -0.3301  1.1042  2.3224
   37DOPE  C216 4717   2.254   4.694  12.939 -0.1669 -0.4346  0.3154
   37DOPE  H16R 4718   2.207   4.789  12.905  0.6701  0.2970  1.1389
   37DOPE  H16S 4719   2.357   4.707  12.979 -0.0242  1.7587 -0.6123
   37DOPE  C217 4720   2.173   4.620  13.048 -0.4007  0.1692  0.3023
   37DOPE  H17R 4721   2.198   4.512  13.043  0.1857  0.3549 -1.4395
   37DOPE  H17S 4722   2.073   4.642  13.005  1.1670  4.1168 -1.8845
   37DOPE  C218 4723   2.176   4.669  13.198  0.1991 -0.8377 -0.2618
   37DOPE  H18R 4724   2.284   4.679  13.221  0.1338 -0.0745 -0.2595
   37DOPE  H18S 4725   2.126   4.591  13.260  1.5317 -1.9546 -0.5603
   37DOPE  H18T 4726   2.115   4.762  13.207 -1.8384 -2.1141 -0.1217
   37DOPE   C33 4727   2.273   4.077  11.976 -0.7441 -0.5265 -0.0416
   37DOPE   H3X 4728   2.373   4.115  11.945 -0.3906 -0.9846  0.5140
   37DOPE   H3Y 4729   2.268   3.967  11.963  0.4984 -0.5279 -0.7142
   37DOPE   C34 4730   2.247   4.121  12.120 -0.1771  0.1612 -0.1032
   37DOPE   H4X 4731   2.304   4.214  12.142  0.6553 -0.6337  1.2483
   37DOPE   H4Y 4732   2.139   4.129  12.143 -0.3579  1.7986 -1.3605
   37DOPE   C35 4733   2.320   4.028  12.220 -0.2750 -0.2246  0.1702
   37DOPE   H5X 4734   2.431   4.031  12.219 -0.2731  0.0225  0.7034
   37DOPE   H5Y 4735   2.284   3.929  12.187  0.7813 -0.8404  0.7908
   37DOPE   C36 4736   2.290   4.052  12.371 -0.4108  0.3982 -0.0632
   37DOPE   H6X 4737   2.317   4.147  12.420 -0.9993  0.5612 -0.0460
   37DOPE   H6Y 4738   2.352   3.980  12.428 -2.2275  0.2836  1.8722
   37DOPE   C37 4739   2.138   4.033  12.405 -1.1695  0.3883 -0.8528
   37DOPE   H7X 4740   2.074   4.103  12.348 -0.3410  0.2657 -1.9586
   37DOPE   H7Y 4741   2.107   3.932  12.370  2.7430 -0.3362 -2.7953
   37DOPE   C38 4742   2.094   4.040  12.557 -0.3309 -0.2423 -0.0539
   37DOPE   H8X 4743   2.136   3.950  12.606  1.6091  0.3136 -0.5985
   37DOPE   H8Y 4744   1.984   4.040  12.568 -0.4753 -1.7305 -1.1701
   37DOPE   C39 4745   2.141   4.169  12.624  0.5416  0.2291 -0.7166
   37DOPE   H9X 4746   2.114   4.254  12.560 -0.5258 -1.2953 -2.4050
   37DOPE  C310 4747   2.198   4.186  12.746 -0.0307 -0.4503 -0.6856
   37DOPE  H10X 4748   2.205   4.288  12.788  1.7728 -1.3175  1.3073
   37DOPE  C311 4749   2.231   4.078  12.845 -0.1488  0.1902  0.1053
   37DOPE  H11X 4750   2.225   3.972  12.813 -0.4134 -0.4084  2.0251
   37DOPE  H11Y 4751   2.335   4.093  12.882 -0.1595  0.7777 -0.0931
   37DOPE  C312 4752   2.138   4.077  12.964 -0.4071  0.3606  0.2193
   37DOPE  H12X 4753   2.151   3.977  13.009 -1.8096  0.7844  1.6842
   37DOPE  H12Y 4754   2.038   4.077  12.915  0.2300  0.8385 -1.1356
   37DOPE  C313 4755   2.166   4.178  13.076 -0.1639 -0.1624  0.5784
   37DOPE  H13X 4756   2.274   4.177  13.100  0.5930  0.2586 -2.3990
   37DOPE  H13Y 4757   2.145   4.280  13.035  1.5376  0.1235  0.3443
   37DOPE  C314 4758   2.082   4.137  13.197  0.7254  0.0171  0.5096
   37DOPE  H14X 4759   2.107   4.029  13.208  2.0960 -0.0694 -2.4682
   37DOPE  H14Y 4760   1.975   4.151  13.173  0.6912  2.0526  1.5751
   37DOPE  C315 4761   2.112   4.202  13.330  0.4541  0.5477 -0.1627
   37DOPE  H15X 4762   2.086   4.309  13.315 -2.2865 -0.0350 -0.0818
   37DOPE  H15Y 4763   2.219   4.184  13.355  0.7689 -1.0896 -2.4365
   37DOPE  C316 4764   2.023   4.146  13.444  0.0672 -0.0375  0.0368
   37DOPE  H16X 4765   2.076   4.157  13.541 -0.8471 -2.8101  0.9536
   37DOPE  H16Y 4766   2.000   4.038  13.432  0.5066  0.0212 -1.5821
   37DOPE  C317 4767   1.886   4.217  13.469  0.0644  0.0349 -0.3428
   37DOPE  H17X 4768   1.830   4.220  13.373 -0.7523 -2.5679 -0.0234
   37DOPE  H17Y 4769   1.821   4.160  13.539  0.4203  0.8942  0.7047
   37DOPE  C318 4770   1.916   4.355  13.529 -0.3946 -0.2076  1.0133
   37DOPE  H18X 4771   1.987   4.347  13.614  2.0785  1.0251 -0.7795
   37DOPE  H18Y 4772   1.972   4.414  13.452 -0.6356  1.1550  1.8486
   37DOPE  H18Z 4773   1.824   4.414  13.550 -0.2961  0.8013 -1.0763
   38DOPE     N 4774   3.904   6.684  11.238  0.9432  0.3686  0.4160
   38DOPE   HN1 4775   3.991   6.672  11.182  1.0226  1.2366  0.3407
   38DOPE   HN2 4776   3.828   6.698  11.169  2.4823  0.0807 -1.4358
   38DOPE   HN3 4777   3.916   6.773  11.290  1.9444  0.7220 -0.3776
   38DOPE   C12 4778   3.886   6.574  11.329 -0.2308  0.1623 -0.3420
   38DOPE  H12A 4779   3.967   6.556  11.403  0.2063 -2.1747 -1.3044
   38DOPE  H12B 4780   3.874   6.480  11.270 -3.9345  0.1358  0.2362
   38DOPE   C11 4781   3.753   6.585  11.400 -0.0734  0.4890 -0.5489
   38DOPE  H11A 4782   3.766   6.670  11.471  0.2218  1.0318 -1.2409
   38DOPE  H11B 4783   3.728   6.499  11.465 -1.4961  1.3189  0.0485
   38DOPE     P 4784   3.547   6.500  11.265 -0.4501  0.2475 -0.0202
   38DOPE   O13 4785   3.632   6.416  11.186  0.0970  0.4613 -0.4418
   38DOPE   O14 4786   3.423   6.547  11.196 -0.6853 -0.5502  0.0888
   38DOPE   O11 4787   3.508   6.430  11.395  0.2531  0.1970 -0.2629
   38DOPE   O12 4788   3.641   6.615  11.314  0.1339 -0.2184  0.0373
   38DOPE    C1 4789   3.405   6.464  11.482  0.7613 -0.0033 -0.3467
   38DOPE    HA 4790   3.336   6.381  11.508 -0.2420  0.7059 -0.6511
   38DOPE    HB 4791   3.339   6.538  11.431  0.6035  0.8171  0.9853
   38DOPE    C2 4792   3.463   6.523  11.617 -0.3960  0.1606  0.0263
   38DOPE    HS 4793   3.511   6.617  11.583 -1.7618  0.6694 -0.6046
   38DOPE   O21 4794   3.553   6.422  11.666 -0.4105 -0.2635 -0.2636
   38DOPE   C21 4795   3.658   6.464  11.742  0.2424  0.3912  0.3792
   38DOPE   O22 4796   3.692   6.576  11.771 -0.9599 -0.2518  0.1468
   38DOPE   C22 4797   3.730   6.337  11.786 -0.6584 -0.2806 -0.0846
   38DOPE   H2R 4798   3.754   6.281  11.693 -0.6563  2.6278 -1.9968
   38DOPE   H2S 4799   3.652   6.276  11.836  0.6121 -1.9573 -0.0914
   38DOPE    C3 4800   3.348   6.552  11.719  0.2293  0.5632 -0.3314
   38DOPE    HX 4801   3.284   6.461  11.722 -0.2493  0.9116  0.4092
   38DOPE    HY 4802   3.276   6.625  11.675 -0.9977 -0.4449 -0.0569
   38DOPE   O31 4803   3.382   6.586  11.853  0.8439  0.1036  0.7026
   38DOPE   C31 4804   3.278   6.595  11.929  0.2023  0.0240 -0.0599
   38DOPE   O32 4805   3.161   6.573  11.895 -0.2791 -0.4374 -0.3589
   38DOPE   C32 4806   3.333   6.638  12.065 -0.5004 -0.4167  0.0339
   38DOPE   H2X 4807   3.424   6.579  12.090  1.6132  1.6532 -2.2097
   38DOPE   H2Y 4808   3.360   6.746  12.059 -1.0965 -0.3489 -2.7935
   38DOPE   C23 4809   3.848   6.369  11.875 -0.1292 -0.1801 -0.0258
   38DOPE   H3R 4810   3.820   6.443  11.953  2.6404  0.3389  0.5923
   38DOPE   H3S 4811   3.926   6.412  11.808  1.2912 -0.2848  1.4927
   38DOPE   C24 4812   3.910   6.241  11.940 -0.1056 -1.3295  0.4103
   38DOPE   H4R 4813   4.014   6.263  11.970 -0.5784  0.8598  0.6177
   38DOPE   H4S 4814   3.925   6.158  11.868 -0.0090 -0.8321 -0.1548
   38DOPE   C25 4815   3.840   6.206  12.072 -0.1524  0.0617  0.1438
   38DOPE   H5R 4816   3.730   6.202  12.055 -0.2779  2.2281  0.1229
   38DOPE   H5S 4817   3.845   6.294  12.140  2.1457 -0.6999  1.0620
   38DOPE   C26 4818   3.904   6.084  12.140 -0.1149  0.3469 -0.2825
   38DOPE   H6R 4819   3.995   6.129  12.185  0.3233 -0.9953  0.2032
   38DOPE   H6S 4820   3.941   6.007  12.070  0.8980  0.0204  0.5919
   38DOPE   C27 4821   3.813   6.005  12.240  0.1809  0.2805 -0.0355
   38DOPE   H7R 4822   3.879   5.939  12.300 -1.0276  0.0604  1.0900
   38DOPE   H7S 4823   3.756   5.937  12.173  1.0727 -0.7972  0.2596
   38DOPE   C28 4824   3.730   6.084  12.340  0.4191 -0.5402 -0.5967
   38DOPE   H8R 4825   3.649   6.022  12.384  1.1032 -1.6007 -0.7981
   38DOPE   H8S 4826   3.672   6.168  12.295 -2.2114 -1.9108  0.0617
   38DOPE   C29 4827   3.828   6.149  12.440 -0.0183  0.5411 -0.4598
   38DOPE   H9R 4828   3.912   6.192  12.384 -0.2097 -1.1484 -2.1215
   38DOPE  C210 4829   3.826   6.147  12.574 -0.9229 -0.0725  0.1534
   38DOPE  H10R 4830   3.906   6.199  12.628 -2.5362  2.0568  0.6496
   38DOPE  C211 4831   3.725   6.085  12.666  0.2308  0.0337  0.0234
   38DOPE  H11R 4832   3.767   5.989  12.704  1.6299  0.5456 -0.1613
   38DOPE  H11S 4833   3.624   6.077  12.619 -0.6269  0.0054  1.7992
   38DOPE  C212 4834   3.699   6.160  12.805 -0.2578 -0.5066 -1.2258
   38DOPE  H12R 4835   3.610   6.108  12.846 -0.0276  1.0039  1.3481
   38DOPE  H12S 4836   3.687   6.270  12.800  3.9957  0.1236 -1.9973
   38DOPE  C213 4837   3.812   6.122  12.905  0.1090 -0.4488  0.0013
   38DOPE  H13R 4838   3.901   6.184  12.881 -0.5113  0.2945 -0.3968
   38DOPE  H13S 4839   3.858   6.021  12.890 -0.5105 -0.6817 -0.3615
   38DOPE  C214 4840   3.772   6.135  13.046  0.1884  0.1770 -0.9762
   38DOPE  H14R 4841   3.689   6.062  13.058  1.7178 -1.7182 -1.3580
   38DOPE  H14S 4842   3.735   6.235  13.075 -0.8602 -0.4543 -0.0243
   38DOPE  C215 4843   3.883   6.101  13.134  0.1656 -0.3208 -0.0805
   38DOPE  H15R 4844   3.965   6.174  13.117  1.7467 -1.7872  0.9444
   38DOPE  H15S 4845   3.933   6.006  13.107  1.4869  0.0365  1.0059
   38DOPE  C216 4846   3.857   6.092  13.283 -0.0308 -0.6942 -0.4420
   38DOPE  H16R 4847   3.815   6.188  13.317 -0.6523 -1.1611  0.1287
   38DOPE  H16S 4848   3.950   6.063  13.336 -0.4090  0.0430  0.6395
   38DOPE  C217 4849   3.764   5.972  13.316  0.5178 -0.1700 -0.0017
   38DOPE  H17R 4850   3.801   5.890  13.250 -3.7418 -0.9536 -1.7932
   38DOPE  H17S 4851   3.661   5.998  13.283  0.4318  0.1897  0.5442
   38DOPE  C218 4852   3.759   5.939  13.465 -0.0708  0.0668 -0.1798
   38DOPE  H18R 4853   3.851   5.887  13.500 -0.4172 -1.3502 -1.2794
   38DOPE  H18S 4854   3.675   5.868  13.483 -1.0506  1.4427  0.8506
   38DOPE  H18T 4855   3.734   6.031  13.522 -0.5252 -0.8401  1.1501
   38DOPE   C33 4856   3.240   6.602  12.185  0.0432 -0.6465  0.1542
   38DOPE   H3X 4857   3.232   6.495  12.214  0.1742 -0.6942  0.0166
   38DOPE   H3Y 4858   3.136   6.618  12.150  0.4009  1.6000 -0.0314
   38DOPE   C34 4859   3.256   6.702  12.302  0.0050  0.0242 -0.3078
   38DOPE   H4X 4860   3.360   6.704  12.342  0.0775 -4.3811  0.1653
   38DOPE   H4Y 4861   3.239   6.809  12.276  2.7400  0.3121 -1.2446
   38DOPE   C35 4862   3.157   6.674  12.415  0.0362 -0.5031  0.2746
   38DOPE   H5X 4863   3.190   6.594  12.485  0.3134 -0.3465  0.3225
   38DOPE   H5Y 4864   3.056   6.643  12.382  0.1448 -1.8813  1.1343
   38DOPE   C36 4865   3.124   6.804  12.498  0.3588 -0.1475 -0.4131
   38DOPE   H6X 4866   3.102   6.885  12.424 -0.4881  0.1414  0.1443
   38DOPE   H6Y 4867   3.220   6.830  12.546  0.3869  1.8283 -1.3975
   38DOPE   C37 4868   3.000   6.793  12.588  0.3896  0.3136  0.5383
   38DOPE   H7X 4869   2.948   6.891  12.579  1.9129  1.1428  0.3557
   38DOPE   H7Y 4870   2.927   6.718  12.551 -0.9733  2.5441 -1.5878
   38DOPE   C38 4871   3.026   6.760  12.736 -0.1342 -0.2037 -0.2601
   38DOPE   H8X 4872   2.935   6.770  12.799  0.6543  0.5761  0.7727
   38DOPE   H8Y 4873   3.093   6.839  12.776  2.3301 -2.0351 -0.5296
   38DOPE   C39 4874   3.094   6.630  12.747  0.2371 -0.4014 -0.2817
   38DOPE   H9X 4875   3.047   6.561  12.675  2.3615 -0.1700 -1.9856
   38DOPE  C310 4876   3.212   6.610  12.810 -0.1579  0.4468  0.3557
   38DOPE  H10X 4877   3.251   6.507  12.819  2.0341  1.4363  3.8084
   38DOPE  C311 4878   3.283   6.718  12.890  0.3311  0.6045 -0.0738
   38DOPE  H11X 4879   3.382   6.681  12.926 -0.6300 -1.4442  0.5901
   38DOPE  H11Y 4880   3.290   6.810  12.828 -1.6780 -0.6766 -2.3437
   38DOPE  C312 4881   3.216   6.738  13.032  0.1371 -0.3568  0.0696
   38DOPE  H12X 4882   3.205   6.639  13.082 -1.1928 -0.0851  0.3416
   38DOPE  H12Y 4883   3.122   6.796  13.024  0.4202  0.1321  0.1750
   38DOPE  C313 4884   3.313   6.813  13.135 -0.4296 -0.6078  0.2474
   38DOPE  H13X 4885   3.399   6.744  13.146  0.6556  0.5775 -0.5156
   38DOPE  H13Y 4886   3.342   6.906  13.083  0.6326 -1.2184 -0.2794
   38DOPE  C314 4887   3.260   6.838  13.276  0.2010  0.6019 -0.2549
   38DOPE  H14X 4888   3.240   6.745  13.334  2.2654  0.2624 -0.0267
   38DOPE  H14Y 4889   3.161   6.887  13.263 -0.6608 -1.2906 -1.3385
   38DOPE  C315 4890   3.347   6.933  13.365  0.0093  0.3204 -0.2557
   38DOPE  H15X 4891   3.304   6.953  13.465  0.1381 -0.7274  0.0295
   38DOPE  H15Y 4892   3.359   7.030  13.313  1.2630  0.8989  1.0224
   38DOPE  C316 4893   3.487   6.878  13.380  0.1649 -0.0335 -0.5235
   38DOPE  H16X 4894   3.538   6.965  13.427  0.7947  1.2098 -3.3166
   38DOPE  H16Y 4895   3.531   6.858  13.281  0.1953 -1.4263 -0.2458
   38DOPE  C317 4896   3.494   6.752  13.462 -0.2459  0.7748 -0.8975
   38DOPE  H17X 4897   3.422   6.681  13.417 -1.8798  2.4634 -1.0728
   38DOPE  H17Y 4898   3.594   6.707  13.443 -1.3403 -1.5861 -1.3806
   38DOPE  C318 4899   3.452   6.758  13.608  0.8991 -0.2145 -0.4099
   38DOPE  H18X 4900   3.341   6.761  13.609  0.8581 -1.4136  0.1523
   38DOPE  H18Y 4901   3.483   6.671  13.670  0.6678  0.4934  0.7208
   38DOPE  H18Z 4902   3.498   6.844  13.662 -0.1094 -1.2255  2.2430
   39DOPE     N 4903   0.905   5.992  11.067  0.0639  0.5753  0.3484
   39DOPE   HN1 4904   0.959   5.956  10.985 -1.4562  1.7666 -1.2466
   39DOPE   HN2 4905   0.942   5.942  11.150 -1.6629  0.7364  1.2448
   39DOPE   HN3 4906   0.805   5.979  11.044  0.7089 -2.3657 -1.2456
   39DOPE   C12 4907   0.935   6.140  11.077  0.1629 -0.3398 -0.2354
   39DOPE  H12A 4908   0.922   6.185  10.977  0.4130  1.8726  0.6859
   39DOPE  H12B 4909   1.043   6.160  11.095  0.5361  0.3399 -2.8633
   39DOPE   C11 4910   0.830   6.204  11.167 -0.3960 -0.4004  0.1648
   39DOPE  H11A 4911   0.878   6.298  11.201 -0.0347 -0.0965 -1.1618
   39DOPE  H11B 4912   0.812   6.144  11.259  1.6389  0.1692  0.9964
   39DOPE     P 4913   0.595   6.315  11.151  0.2744  0.3597 -0.5733
   39DOPE   O13 4914   0.483   6.314  11.053 -0.5812 -0.1114 -0.7070
   39DOPE   O14 4915   0.648   6.444  11.191  0.5411  0.4313 -0.8034
   39DOPE   O11 4916   0.552   6.231  11.282 -0.3038 -1.2566 -0.1240
   39DOPE   O12 4917   0.715   6.232  11.093  0.0214 -0.6454 -0.1406
   39DOPE    C1 4918   0.466   6.115  11.263 -0.2671  0.7967 -0.5938
   39DOPE    HA 4919   0.512   6.040  11.195  0.3759  0.5231  0.1179
   39DOPE    HB 4920   0.372   6.149  11.216 -1.0434  2.0664  1.7223
   39DOPE    C2 4921   0.444   6.039  11.404 -0.2844 -0.6814  0.3937
   39DOPE    HS 4922   0.376   5.952  11.390 -1.2389  0.1919 -0.6824
   39DOPE   O21 4923   0.385   6.124  11.501  0.0424  0.7434 -0.8192
   39DOPE   C21 4924   0.260   6.152  11.483 -0.4944 -0.2807 -0.2786
   39DOPE   O22 4925   0.194   6.106  11.393  0.2373 -0.7730 -0.1141
   39DOPE   C22 4926   0.216   6.255  11.579 -0.5309 -0.0502 -0.0928
   39DOPE   H2R 4927   0.153   6.333  11.531 -0.0556 -0.3122 -1.1577
   39DOPE   H2S 4928   0.303   6.302  11.628 -1.3562  2.0492 -0.5116
   39DOPE    C3 4929   0.584   5.989  11.473  0.3013  0.5529  1.2698
   39DOPE    HX 4930   0.627   6.089  11.496  0.0149  0.9363  0.2069
   39DOPE    HY 4931   0.637   5.938  11.390 -0.4782  2.2727 -0.3588
   39DOPE   O31 4932   0.564   5.899  11.582  0.0286 -0.9865 -1.0218
   39DOPE   C31 4933   0.675   5.850  11.629 -0.0778  0.2435  0.0687
   39DOPE   O32 4934   0.789   5.875  11.585  0.3666  0.7874 -0.0573
   39DOPE   C32 4935   0.642   5.757  11.750  0.1778  0.6355  0.3579
   39DOPE   H2X 4936   0.570   5.810  11.816 -3.3585 -2.0176 -1.0102
   39DOPE   H2Y 4937   0.600   5.663  11.708 -0.0838  0.5056  0.9066
   39DOPE   C23 4938   0.130   6.194  11.696  0.0230  0.3809  0.5833
   39DOPE   H3R 4939   0.168   6.090  11.707 -0.5933 -0.0799 -1.2306
   39DOPE   H3S 4940   0.027   6.182  11.656  1.0139 -1.8182 -1.5702
   39DOPE   C24 4941   0.129   6.282  11.819 -0.1274  0.3298  0.1307
   39DOPE   H4R 4942   0.092   6.381  11.784  0.5415  1.2875  1.9697
   39DOPE   H4S 4943   0.232   6.294  11.857  0.9253 -0.8037 -2.1934
   39DOPE   C25 4944   0.065   6.226  11.941  0.6373 -0.0556  0.4855
   39DOPE   H5R 4945   0.081   6.302  12.021 -1.9068 -0.7724  1.7661
   39DOPE   H5S 4946   0.122   6.145  11.990  1.6206  1.2118  1.4982
   39DOPE   C26 4947  -0.083   6.187  11.921  0.3585  0.2316  0.3007
   39DOPE   H6R 4948  -0.086   6.102  11.850  0.4660  1.8667 -1.7643
   39DOPE   H6S 4949  -0.127   6.276  11.871  2.3484  0.5722 -0.9467
   39DOPE   C27 4950  -0.178   6.165  12.039 -0.3196  0.3170 -0.1277
   39DOPE   H7R 4951  -0.279   6.157  11.994  0.4525  0.9748 -2.1132
   39DOPE   H7S 4952  -0.177   6.250  12.110 -1.8078  0.5029 -0.3042
   39DOPE   C28 4953  -0.143   6.035  12.113 -0.7022  0.3517  0.0334
   39DOPE   H8R 4954  -0.052   6.069  12.166 -1.1263 -0.3412  1.2501
   39DOPE   H8S 4955  -0.105   5.952  12.050  0.5920  0.5307  0.5513
   39DOPE   C29 4956  -0.253   5.984  12.198 -0.2783 -0.3618 -0.3153
   39DOPE   H9R 4957  -0.296   5.895  12.149 -0.8979 -0.0021 -0.4342
   39DOPE  C210 4958  -0.274   6.014  12.328  0.9178 -0.5669 -0.0362
   39DOPE  H10R 4959  -0.352   5.953  12.375 -0.2930 -0.3616 -1.7057
   39DOPE  C211 4960  -0.201   6.106  12.423 -0.9504 -0.0010  0.0118
   39DOPE  H11R 4961  -0.254   6.199  12.455 -1.8318 -0.6153  0.3919
   39DOPE  H11S 4962  -0.109   6.138  12.370  0.4545 -3.0821  0.3711
   39DOPE  C212 4963  -0.158   6.027  12.549  0.0431 -0.6732  0.5140
   39DOPE  H12R 4964  -0.119   6.098  12.625  0.3247 -0.8371  0.5222
   39DOPE  H12S 4965  -0.081   5.951  12.523  1.6791  0.4078  1.9427
   39DOPE  C213 4966  -0.263   5.964  12.633  0.4495  0.2905  0.4154
   39DOPE  H13R 4967  -0.307   5.870  12.595 -0.7226  1.0450 -0.1668
   39DOPE  H13S 4968  -0.339   6.046  12.636  1.1863  1.2770 -3.4322
   39DOPE  C214 4969  -0.204   5.932  12.768  0.2217  0.3845 -0.4776
   39DOPE  H14R 4970  -0.180   6.030  12.815 -0.8242  0.0348  0.8537
   39DOPE  H14S 4971  -0.119   5.860  12.760 -0.3130 -0.1505 -1.3632
   39DOPE  C215 4972  -0.309   5.878  12.875  0.0130 -0.4313  0.4651
   39DOPE  H15R 4973  -0.336   5.772  12.860  0.7220 -0.2868 -2.2168
   39DOPE  H15S 4974  -0.400   5.942  12.876 -0.5791 -1.2362 -0.6177
   39DOPE  C216 4975  -0.259   5.876  13.023 -0.3012 -0.1080  0.0794
   39DOPE  H16R 4976  -0.221   5.975  13.053 -0.9984  0.4122 -0.6939
   39DOPE  H16S 4977  -0.173   5.806  13.027  1.5923  2.1573  0.8235
   39DOPE  C217 4978  -0.367   5.839  13.122  0.0974  0.3183  0.2426
   39DOPE  H17R 4979  -0.443   5.920  13.114 -1.4087 -1.0892 -0.2814
   39DOPE  H17S 4980  -0.315   5.839  13.219  0.2290  2.7457  0.2213
   39DOPE  C218 4981  -0.433   5.702  13.112 -0.1843  0.2645 -0.5357
   39DOPE  H18R 4982  -0.508   5.692  13.194  1.6123 -3.0650  0.9149
   39DOPE  H18S 4983  -0.357   5.621  13.121  1.1910  1.4970 -0.6262
   39DOPE  H18T 4984  -0.489   5.686  13.018 -0.9740  0.5825 -0.1312
   39DOPE   C33 4985   0.767   5.715  11.831 -0.2746 -0.4558  0.1160
   39DOPE   H3X 4986   0.825   5.804  11.862 -0.2938 -1.2521  2.6559
   39DOPE   H3Y 4987   0.833   5.641  11.781 -0.3361 -0.4908  0.0855
   39DOPE   C34 4988   0.722   5.671  11.969  0.6751  0.1914 -0.0239
   39DOPE   H4X 4989   0.646   5.591  11.956 -1.3696  2.1942 -0.9407
   39DOPE   H4Y 4990   0.809   5.624  12.020 -0.3720  0.2624  1.9202
   39DOPE   C35 4991   0.667   5.783  12.059 -0.7861  0.8593 -0.6448
   39DOPE   H5X 4992   0.558   5.800  12.044 -1.3909 -1.6995  0.3578
   39DOPE   H5Y 4993   0.713   5.874  12.015  1.2656  0.4131  0.4493
   39DOPE   C36 4994   0.715   5.768  12.205 -0.1990 -0.3052  0.3535
   39DOPE   H6X 4995   0.706   5.862  12.264 -0.9358 -1.2218  1.7313
   39DOPE   H6Y 4996   0.824   5.748  12.197 -0.2917 -0.2695 -1.7762
   39DOPE   C37 4997   0.636   5.652  12.276  0.7373  0.3778  0.0188
   39DOPE   H7X 4998   0.528   5.675  12.270  0.3525 -1.6097 -1.7342
   39DOPE   H7Y 4999   0.644   5.564  12.209 -0.7502  1.0001 -1.0140
   39DOPE   C38 5000   0.677   5.623  12.426 -0.4668 -0.1411  0.0572
   39DOPE   H8X 5001   0.651   5.717  12.478  0.9155  1.4278 -1.9373
   39DOPE   H8Y 5002   0.787   5.605  12.425 -0.2712  1.0379 -0.7009
   39DOPE   C39 5003   0.609   5.498  12.472 -0.3797  0.1802 -0.1432
   39DOPE   H9X 5004   0.621   5.410  12.407  0.3212  1.5973 -2.0137
   39DOPE  C310 5005   0.551   5.487  12.591 -0.0320  0.3415  0.1590
   39DOPE  H10X 5006   0.502   5.392  12.620  1.1240  0.0246  1.1584
   39DOPE  C311 5007   0.544   5.600  12.694  0.5493  0.2927 -0.4319
   39DOPE  H11X 5008   0.637   5.662  12.691  0.0622  0.9985 -1.4089
   39DOPE  H11Y 5009   0.446   5.650  12.677 -0.4633 -1.8849 -1.4136
   39DOPE  C312 5010   0.556   5.527  12.833 -0.8190  0.1196 -0.1615
   39DOPE  H12X 5011   0.646   5.464  12.853 -0.7683  0.3681  0.4332
   39DOPE  H12Y 5012   0.473   5.455  12.851  0.3742 -0.7261  2.5161
   39DOPE  C313 5013   0.530   5.628  12.946  0.5220  0.0082  0.3240
   39DOPE  H13X 5014   0.522   5.730  12.904  0.0047  0.0320  0.4723
   39DOPE  H13Y 5015   0.431   5.605  12.992  0.0408 -0.1578 -0.7775
   39DOPE  C314 5016   0.648   5.636  13.052  0.3187 -0.6622  0.5012
   39DOPE  H14X 5017   0.734   5.690  13.007  0.0641  0.1494  0.9704
   39DOPE  H14Y 5018   0.685   5.531  13.059  1.4158 -0.2362  1.3290
   39DOPE  C315 5019   0.618   5.690  13.192 -0.0798 -0.0526 -0.0687
   39DOPE  H15X 5020   0.711   5.718  13.246 -0.5779  0.2549  0.6579
   39DOPE  H15Y 5021   0.557   5.618  13.251 -0.0178 -0.6135 -0.6789
   39DOPE  C316 5022   0.535   5.814  13.196  0.1410 -0.4656 -0.0669
   39DOPE  H16X 5023   0.435   5.784  13.158 -0.4990 -0.0768  1.2229
   39DOPE  H16Y 5024   0.568   5.881  13.115 -0.3513  0.5193  0.5307
   39DOPE  C317 5025   0.534   5.878  13.333  0.0210  0.2816  0.5125
   39DOPE  H17X 5026   0.472   5.811  13.396  0.3567 -0.7650 -0.2388
   39DOPE  H17Y 5027   0.640   5.880  13.365 -0.1778  1.9656  1.1760
   39DOPE  C318 5028   0.492   6.027  13.348  0.4578 -0.3957 -0.8433
   39DOPE  H18X 5029   0.563   6.104  13.309  1.2690  0.1906  1.6494
   39DOPE  H18Y 5030   0.390   6.034  13.304  0.4960 -1.5929 -1.1390
   39DOPE  H18Z 5031   0.497   6.060  13.454 -0.6093 -0.4399 -0.7643
   40DOPE     N 5032   1.546   0.431  11.071 -0.0316 -0.0895  0.8961
   40DOPE   HN1 5033   1.511   0.496  10.997  2.4878  0.2201 -0.1456
   40DOPE   HN2 5034   1.500   0.339  11.056 -0.4824  0.0487  1.3947
   40DOPE   HN3 5035   1.497   0.468  11.155 -1.9966  1.1044 -0.6622
   40DOPE   C12 5036   1.698   0.426  11.072 -0.0419  0.0385  0.1377
   40DOPE  H12A 5037   1.728   0.419  11.179 -0.3820 -0.4264  0.2093
   40DOPE  H12B 5038   1.733   0.520  11.024 -0.0700 -0.2704 -0.4934
   40DOPE   C11 5039   1.743   0.312  10.986 -0.0427 -0.0639 -0.4642
   40DOPE  H11A 5040   1.853   0.313  11.002 -0.2177  3.5869  1.4716
   40DOPE  H11B 5041   1.726   0.326  10.877 -0.4029 -0.4242 -0.4580
   40DOPE     P 5042   1.756   0.075  11.108  0.0318 -0.2132  0.4148
   40DOPE   O13 5043   1.809   0.133  11.229 -0.0661 -0.5824 -0.6135
   40DOPE   O14 5044   1.859   0.006  11.026  0.9200 -0.0571  0.1222
   40DOPE   O11 5045   1.647  -0.033  11.147 -0.1374  0.3044  0.5432
   40DOPE   O12 5046   1.677   0.186  11.023 -0.2701 -0.3556  0.3168
   40DOPE    C1 5047   1.556  -0.003  11.257  0.2116  0.8523 -0.5379
   40DOPE    HA 5048   1.451  -0.028  11.229  0.0377  2.7758 -1.8641
   40DOPE    HB 5049   1.567   0.105  11.280 -0.2716  0.7430  0.2244
   40DOPE    C2 5050   1.595  -0.073  11.388  0.2973 -0.0622 -0.0996
   40DOPE    HS 5051   1.695  -0.030  11.411  0.8062 -0.5460 -1.3567
   40DOPE   O21 5052   1.601  -0.214  11.358  0.6002  0.0478  0.6595
   40DOPE   C21 5053   1.701  -0.279  11.415  0.1431  0.1537 -0.0564
   40DOPE   O22 5054   1.789  -0.233  11.482  0.1307 -0.1552  0.3440
   40DOPE   C22 5055   1.689  -0.430  11.367 -0.0892 -0.1888 -0.0312
   40DOPE   H2R 5056   1.737  -0.434  11.267  1.5501  0.2598  0.7035
   40DOPE   H2S 5057   1.583  -0.460  11.350 -0.5684  1.8516 -0.8871
   40DOPE    C3 5058   1.494  -0.027  11.502 -0.0882 -0.1633  0.2210
   40DOPE    HX 5059   1.392  -0.064  11.477  0.0211 -0.2022 -0.1579
   40DOPE    HY 5060   1.487   0.084  11.496 -3.1417 -0.2424  0.5141
   40DOPE   O31 5061   1.520  -0.079  11.631 -0.3374  0.6027  0.0669
   40DOPE   C31 5062   1.625  -0.021  11.687 -0.3793  0.2757 -0.4153
   40DOPE   O32 5063   1.692   0.070  11.641 -0.7871  0.5286  0.0248
   40DOPE   C32 5064   1.643  -0.085  11.821 -0.7463 -0.0487 -0.5431
   40DOPE   H2X 5065   1.568  -0.050  11.894  0.1681 -1.7058  1.2573
   40DOPE   H2Y 5066   1.638  -0.195  11.802 -0.6136 -0.4261  1.4491
   40DOPE   C23 5067   1.762  -0.527  11.462  0.6327 -0.3227  0.6557
   40DOPE   H3R 5068   1.867  -0.497  11.481  0.8623 -0.3922 -0.4054
   40DOPE   H3S 5069   1.768  -0.629  11.418  2.6638 -0.2747  0.7380
   40DOPE   C24 5070   1.698  -0.536  11.596 -0.2682 -0.4400  0.3585
   40DOPE   H4R 5071   1.587  -0.543  11.595 -0.1725 -2.9188  0.9031
   40DOPE   H4S 5072   1.730  -0.446  11.652  0.9442  1.1016 -2.6035
   40DOPE   C25 5073   1.759  -0.662  11.665 -0.1069 -0.4060  0.3290
   40DOPE   H5R 5074   1.865  -0.638  11.644 -0.9794  0.5106 -3.6879
   40DOPE   H5S 5075   1.723  -0.754  11.614  1.4832 -1.2017  0.5588
   40DOPE   C26 5076   1.719  -0.678  11.807  0.0871 -0.2857 -0.2228
   40DOPE   H6R 5077   1.610  -0.657  11.800  0.4738  1.7413 -0.9278
   40DOPE   H6S 5078   1.759  -0.600  11.875 -2.1867 -0.1647  1.1001
   40DOPE   C27 5079   1.750  -0.814  11.867 -0.3680 -0.0932  0.4833
   40DOPE   H7R 5080   1.860  -0.811  11.884 -0.4474  0.9629  0.9036
   40DOPE   H7S 5081   1.723  -0.902  11.804 -0.5095  1.1690 -1.2875
   40DOPE   C28 5082   1.678  -0.816  12.003 -0.3952  0.6771 -0.0902
   40DOPE   H8R 5083   1.645  -0.921  12.014  0.1882  0.5967  1.1140
   40DOPE   H8S 5084   1.582  -0.763  11.984 -0.9362 -0.8778 -1.9309
   40DOPE   C29 5085   1.754  -0.779  12.124 -0.2329 -0.8553 -0.3044
   40DOPE   H9R 5086   1.819  -0.691  12.108 -2.4022  1.2198  1.4673
   40DOPE  C210 5087   1.733  -0.832  12.244 -0.4502 -0.3105 -0.6907
   40DOPE  H10R 5088   1.788  -0.791  12.330  0.0168  0.9903 -1.5771
   40DOPE  C211 5089   1.629  -0.937  12.278  0.9228 -0.3688 -0.2920
   40DOPE  H11R 5090   1.647  -1.033  12.224  1.4057  1.1152 -2.9662
   40DOPE  H11S 5091   1.529  -0.900  12.248  1.1430  1.4287  1.0072
   40DOPE  C212 5092   1.616  -0.978  12.425  0.5696 -0.7140 -0.3144
   40DOPE  H12R 5093   1.594  -0.893  12.492 -1.4327 -0.3330 -1.3598
   40DOPE  H12S 5094   1.706  -1.021  12.474  0.4779  0.0287  0.5190
   40DOPE  C213 5095   1.502  -1.080  12.438 -0.8118  0.2716  0.4511
   40DOPE  H13R 5096   1.521  -1.178  12.390  1.2107  1.9736 -2.5268
   40DOPE  H13S 5097   1.408  -1.048  12.389 -0.2197 -1.0056 -1.6260
   40DOPE  C214 5098   1.478  -1.112  12.588  0.0585 -0.1576  0.7484
   40DOPE  H14R 5099   1.566  -1.165  12.630 -1.0824 -1.7261  1.2637
   40DOPE  H14S 5100   1.390  -1.180  12.600  1.2919 -1.4056  3.6505
   40DOPE  C215 5101   1.468  -0.997  12.684 -0.2805  0.0585 -0.6359
   40DOPE  H15R 5102   1.409  -0.914  12.640 -0.5727 -0.5106 -1.3338
   40DOPE  H15S 5103   1.570  -0.954  12.699  0.3081 -1.6756  0.7331
   40DOPE  C216 5104   1.405  -1.052  12.819 -0.4075  0.1125  0.0499
   40DOPE  H16R 5105   1.484  -1.114  12.869  0.8109  0.2997 -1.5434
   40DOPE  H16S 5106   1.316  -1.114  12.795 -1.0734  0.4565  1.5248
   40DOPE  C217 5107   1.365  -0.930  12.907 -0.6933  0.2400 -0.1863
   40DOPE  H17R 5108   1.284  -0.883  12.848 -1.0631  1.7567  1.4297
   40DOPE  H17S 5109   1.441  -0.849  12.910 -0.6835  0.2736 -1.2110
   40DOPE  C218 5110   1.324  -0.981  13.039  0.3197  0.8050  0.1073
   40DOPE  H18R 5111   1.269  -0.900  13.092  0.6467  0.1046  1.5897
   40DOPE  H18S 5112   1.417  -1.003  13.096  1.3910  2.0294 -1.1027
   40DOPE  H18T 5113   1.260  -1.072  13.037  1.0227  0.3025 -0.1450
   40DOPE   C33 5114   1.788  -0.067  11.869 -0.1262  0.0510  0.4775
   40DOPE   H3X 5115   1.806   0.040  11.891  1.0469  0.2578 -1.3162
   40DOPE   H3Y 5116   1.856  -0.095  11.787 -0.5227  0.3032  0.0592
   40DOPE   C34 5117   1.816  -0.158  11.985  0.2611 -0.1246  0.3777
   40DOPE   H4X 5118   1.780  -0.260  11.959  1.2577 -0.2755 -0.4700
   40DOPE   H4Y 5119   1.926  -0.171  11.999  0.4902 -0.0504 -1.2218
   40DOPE   C35 5120   1.759  -0.102  12.120 -0.4998  0.2552  0.3320
   40DOPE   H5X 5121   1.649  -0.115  12.117 -0.3864 -0.5463 -0.6149
   40DOPE   H5Y 5122   1.772   0.008  12.133 -1.7569  0.8154 -2.4188
   40DOPE   C36 5123   1.818  -0.174  12.242 -0.6802 -0.2951  0.2383
   40DOPE   H6X 5124   1.921  -0.206  12.219 -0.9964 -0.9248 -0.3425
   40DOPE   H6Y 5125   1.760  -0.267  12.262 -0.9887 -0.3449 -0.8325
   40DOPE   C37 5126   1.810  -0.102  12.380 -0.6515  0.0891  0.1406
   40DOPE   H7X 5127   1.852  -0.000  12.367 -2.5365  1.2535  2.3008
   40DOPE   H7Y 5128   1.702  -0.095  12.407 -1.0600 -0.4629 -1.2248
   40DOPE   C38 5129   1.892  -0.173  12.492  0.1618  0.0565 -0.7810
   40DOPE   H8X 5130   1.865  -0.280  12.481 -1.7684  0.5037 -0.6876
   40DOPE   H8Y 5131   1.847  -0.140  12.588  0.0908 -0.0877 -0.7637
   40DOPE   C39 5132   2.043  -0.161  12.491 -0.0545  0.1055 -0.3102
   40DOPE   H9X 5133   2.085  -0.130  12.394 -0.2484  0.7973 -0.1819
   40DOPE  C310 5134   2.128  -0.154  12.594  0.1871 -0.3124 -0.8921
   40DOPE  H10X 5135   2.236  -0.152  12.574  0.3116 -0.5759 -0.2864
   40DOPE  C311 5136   2.077  -0.157  12.736  0.6563 -0.2738  0.2193
   40DOPE  H11X 5137   2.070  -0.051  12.766 -0.1574 -0.3860  0.4541
   40DOPE  H11Y 5138   1.978  -0.208  12.737 -0.7119  2.2410 -0.3939
   40DOPE  C312 5139   2.154  -0.251  12.832 -0.2199  0.2773 -0.7755
   40DOPE  H12X 5140   2.253  -0.207  12.853 -1.3658  2.5708  0.1363
   40DOPE  H12Y 5141   2.166  -0.351  12.785 -1.9373  0.1678 -1.0740
   40DOPE  C313 5142   2.087  -0.277  12.968  0.4636  0.0298  0.3182
   40DOPE  H13X 5143   2.095  -0.178  13.017  1.6957  0.8087 -1.3165
   40DOPE  H13Y 5144   1.982  -0.313  12.966  0.0978  0.9185  2.1773
   40DOPE  C314 5145   2.166  -0.382  13.046 -0.0578 -0.3412 -0.6535
   40DOPE  H14X 5146   2.274  -0.361  13.029 -0.1150 -0.9778 -1.9398
   40DOPE  H14Y 5147   2.144  -0.475  12.990 -0.1213 -1.1459  0.6643
   40DOPE  C315 5148   2.132  -0.382  13.190 -0.4590  0.0137 -0.1594
   40DOPE  H15X 5149   2.026  -0.417  13.190 -0.5341  0.2061 -1.0414
   40DOPE  H15Y 5150   2.132  -0.275  13.219  1.5050 -0.3777  1.5117
   40DOPE  C316 5151   2.216  -0.473  13.287 -0.2765 -0.1105  0.2484
   40DOPE  H16X 5152   2.220  -0.575  13.243  0.4777 -0.5461  1.2806
   40DOPE  H16Y 5153   2.159  -0.471  13.382 -0.8266 -1.3415 -0.0348
   40DOPE  C317 5154   2.358  -0.419  13.305 -0.4151  0.5975 -0.4472
   40DOPE  H17X 5155   2.402  -0.404  13.204  1.8807 -1.0385  0.2335
   40DOPE  H17Y 5156   2.371  -0.323  13.359  1.0825  0.2897 -0.2205
   40DOPE  C318 5157   2.441  -0.532  13.370  0.1338 -0.1235 -0.0445
   40DOPE  H18X 5158   2.391  -0.560  13.466  1.1254  2.3019  1.2760
   40DOPE  H18Y 5159   2.461  -0.627  13.316  0.4457 -0.7176  1.0641
   40DOPE  H18Z 5160   2.542  -0.502  13.403  0.8598 -0.6079 -1.7438
   41DOPE     N 5161   1.504   6.516  11.010 -0.3262  0.4083  0.4716
   41DOPE   HN1 5162   1.570   6.574  11.065  0.9033  1.3515 -1.8608
   41DOPE   HN2 5163   1.448   6.468  11.083  0.4765  0.4849  1.1446
   41DOPE   HN3 5164   1.566   6.441  10.972  1.2363  1.2878  1.2018
   41DOPE   C12 5165   1.444   6.607  10.915  0.7541 -0.2597  0.5572
   41DOPE  H12A 5166   1.502   6.609  10.821  3.0684  1.0007  1.9134
   41DOPE  H12B 5167   1.443   6.710  10.956 -3.2719  0.9074 -1.9053
   41DOPE   C11 5168   1.295   6.560  10.895 -0.2442 -0.1261 -0.7713
   41DOPE  H11A 5169   1.278   6.463  10.844 -1.0332 -0.4644  0.1270
   41DOPE  H11B 5170   1.247   6.638  10.831 -0.5009  2.6112  2.4878
   41DOPE     P 5171   1.080   6.549  11.041 -0.0328  0.0636 -0.0633
   41DOPE   O13 5172   1.058   6.407  11.012 -0.7023  0.9966  0.5192
   41DOPE   O14 5173   1.021   6.648  10.946 -0.1650  0.0905 -0.2303
   41DOPE   O11 5174   1.067   6.597  11.191 -1.0456 -0.4798  0.6458
   41DOPE   O12 5175   1.233   6.569  11.026  0.9005  0.0854 -0.3483
   41DOPE    C1 5176   1.131   6.727  11.229  0.4200  1.3515 -0.7248
   41DOPE    HA 5177   1.165   6.791  11.144  0.0528  0.4417 -1.5800
   41DOPE    HB 5178   1.212   6.696  11.298 -1.7514  0.3685  1.5067
   41DOPE    C2 5179   1.029   6.823  11.298  0.2898  0.3433  0.0272
   41DOPE    HS 5180   1.081   6.921  11.292  1.9984 -0.5505 -0.5615
   41DOPE   O21 5181   0.997   6.774  11.437 -0.3950 -0.7262  0.0241
   41DOPE   C21 5182   1.077   6.820  11.527 -0.3372  0.3242 -0.7267
   41DOPE   O22 5183   1.149   6.920  11.520  0.7770  0.1864  0.3557
   41DOPE   C22 5184   1.074   6.735  11.656 -0.1487 -0.1086  0.1054
   41DOPE   H2R 5185   1.153   6.656  11.653 -0.1848 -0.1131 -1.1401
   41DOPE   H2S 5186   0.976   6.683  11.654  0.4494 -1.2808 -2.3260
   41DOPE    C3 5187   0.896   6.837  11.216  0.3360 -0.1777  0.6413
   41DOPE    HX 5188   0.835   6.745  11.232 -1.5002  0.7575 -0.6761
   41DOPE    HY 5189   0.935   6.830  11.112  1.4963 -0.3432  1.0729
   41DOPE   O31 5190   0.839   6.959  11.240  0.7631  0.4589 -0.6465
   41DOPE   C31 5191   0.713   6.967  11.197  0.2054  0.0042  0.5903
   41DOPE   O32 5192   0.654   6.883  11.133  0.5210 -0.2806  0.3006
   41DOPE   C32 5193   0.661   7.088  11.267  0.4373  0.3071 -0.8028
   41DOPE   H2X 5194   0.706   7.176  11.216 -0.4004  1.5653  0.5424
   41DOPE   H2Y 5195   0.552   7.093  11.245  0.6223  1.2752 -1.5947
   41DOPE   C23 5196   1.094   6.803  11.788  0.6302  0.5553 -0.9555
   41DOPE   H3R 5197   1.034   6.894  11.812 -0.2635 -0.5461  1.2826
   41DOPE   H3S 5198   1.198   6.841  11.790  1.5211 -1.7447  0.2344
   41DOPE   C24 5199   1.098   6.714  11.913  0.1237  0.0248 -0.4679
   41DOPE   H4R 5200   1.153   6.771  11.991 -2.8096  0.7590  1.1942
   41DOPE   H4S 5201   1.150   6.617  11.899 -0.3202 -0.0753 -1.5057
   41DOPE   C25 5202   0.955   6.677  11.969 -0.4174 -0.8568  0.0782
   41DOPE   H5R 5203   0.910   6.620  11.885 -1.7911 -1.5071  1.2207
   41DOPE   H5S 5204   0.910   6.776  11.992 -0.5167 -0.4553 -1.6771
   41DOPE   C26 5205   0.961   6.599  12.094 -0.0649 -0.1502 -0.8399
   41DOPE   H6R 5206   1.039   6.520  12.082  1.3360  0.9021  0.7725
   41DOPE   H6S 5207   0.866   6.551  12.124 -0.5951  0.6626 -1.1932
   41DOPE   C27 5208   0.994   6.688  12.215 -0.0337 -0.1527 -0.0234
   41DOPE   H7R 5209   0.931   6.779  12.220 -2.1574 -1.4315 -1.7750
   41DOPE   H7S 5210   1.100   6.722  12.212 -0.1414  0.9825  3.6341
   41DOPE   C28 5211   0.985   6.616  12.353  0.3560  0.3293  0.6008
   41DOPE   H8R 5212   0.878   6.592  12.370  0.5866 -1.6111 -0.3955
   41DOPE   H8S 5213   1.019   6.689  12.430 -1.1789 -0.4171  2.0698
   41DOPE   C29 5214   1.074   6.495  12.370 -0.3803  0.0813 -0.7123
   41DOPE   H9R 5215   1.164   6.489  12.307  0.2706 -2.1945  0.3316
   41DOPE  C210 5216   1.044   6.395  12.455 -0.1990  0.2486  0.2149
   41DOPE  H10R 5217   1.115   6.312  12.465 -1.9857 -1.4824 -0.6045
   41DOPE  C211 5218   0.925   6.392  12.551  0.7462  0.4469 -0.0299
   41DOPE  H11R 5219   0.855   6.309  12.532  0.4417  0.6085  0.3751
   41DOPE  H11S 5220   0.857   6.478  12.533  0.4045 -0.2439 -2.4115
   41DOPE  C212 5221   0.946   6.400  12.701  0.1264  0.7647  1.0308
   41DOPE  H12R 5222   1.019   6.481  12.726  0.3970  0.1376  2.3675
   41DOPE  H12S 5223   0.992   6.304  12.732 -2.8379 -1.1996 -0.2672
   41DOPE  C213 5224   0.817   6.435  12.767  0.0826  0.2511 -0.2729
   41DOPE  H13R 5225   0.744   6.354  12.747 -1.7129  2.1798 -1.8938
   41DOPE  H13S 5226   0.782   6.529  12.720  1.3457  2.1561  2.3532
   41DOPE  C214 5227   0.820   6.452  12.918  0.6703  0.3531  0.7922
   41DOPE  H14R 5228   0.873   6.546  12.946  1.7549 -0.0298  0.0825
   41DOPE  H14S 5229   0.861   6.360  12.964 -1.4648 -0.2042  1.6910
   41DOPE  C215 5230   0.676   6.461  12.978 -0.2507 -0.5438  0.7705
   41DOPE  H15R 5231   0.630   6.362  12.956  0.9104 -0.8574 -0.4010
   41DOPE  H15S 5232   0.619   6.547  12.937 -2.7861 -0.8996  3.2622
   41DOPE  C216 5233   0.688   6.491  13.126  0.1977  0.3469 -0.3331
   41DOPE  H16R 5234   0.700   6.601  13.134  1.4084  0.2720 -0.9388
   41DOPE  H16S 5235   0.778   6.448  13.174 -0.1899  2.0634  2.1479
   41DOPE  C217 5236   0.567   6.444  13.204 -0.3019 -0.1757 -0.5240
   41DOPE  H17R 5237   0.579   6.334  13.215  0.5271  0.0507  1.1550
   41DOPE  H17S 5238   0.474   6.466  13.147 -1.0756 -0.4706  0.6092
   41DOPE  C218 5239   0.558   6.506  13.342 -0.2332 -0.2229  0.2033
   41DOPE  H18R 5240   0.551   6.616  13.327 -1.8258 -0.0538  1.8253
   41DOPE  H18S 5241   0.641   6.482  13.412 -2.1575 -2.3332  1.9089
   41DOPE  H18T 5242   0.466   6.470  13.393 -0.7201  0.7582  0.0412
   41DOPE   C33 5243   0.670   7.100  11.415 -0.1972 -0.3418 -0.2724
   41DOPE   H3X 5244   0.620   7.195  11.442 -1.1426 -0.3584 -1.8229
   41DOPE   H3Y 5245   0.770   7.106  11.463  0.0946 -0.1398 -0.9043
   41DOPE   C34 5246   0.595   6.980  11.482 -0.7935 -0.7496  0.0712
   41DOPE   H4X 5247   0.491   6.967  11.445 -0.7631  0.4522 -0.4790
   41DOPE   H4Y 5248   0.648   6.887  11.452  0.2415 -0.2610  0.3315
   41DOPE   C35 5249   0.588   6.994  11.632  0.2363 -0.1114  0.4629
   41DOPE   H5X 5250   0.504   6.933  11.670  0.5067 -0.2362  0.8649
   41DOPE   H5Y 5251   0.576   7.100  11.663  0.1069 -0.1611  0.5822
   41DOPE   C36 5252   0.714   6.934  11.703 -0.6113  0.4758 -0.3511
   41DOPE   H6X 5253   0.807   6.980  11.663 -1.6884  1.2567 -2.0324
   41DOPE   H6Y 5254   0.727   6.827  11.675  1.2553  0.1839  1.3894
   41DOPE   C37 5255   0.715   6.972  11.856  0.2228  0.0833  0.6177
   41DOPE   H7X 5256   0.817   6.952  11.894  0.0989 -1.4180  0.2181
   41DOPE   H7Y 5257   0.697   7.082  11.858  3.0975  0.6362  2.4543
   41DOPE   C38 5258   0.610   6.912  11.946  0.1597  0.4371  0.6279
   41DOPE   H8X 5259   0.512   6.917  11.895  0.4515  0.5553  0.0715
   41DOPE   H8Y 5260   0.620   6.967  12.042  0.3679  1.0558  0.2604
   41DOPE   C39 5261   0.636   6.765  11.986  0.0913  0.6968  0.4888
   41DOPE   H9X 5262   0.673   6.706  11.901  1.3606  1.6055  0.3795
   41DOPE  C310 5263   0.598   6.709  12.104  0.0577 -1.0881  0.1606
   41DOPE  H10X 5264   0.623   6.603  12.121 -0.0209 -1.1961 -0.3501
   41DOPE  C311 5265   0.539   6.771  12.230  0.4788 -0.0761  0.2440
   41DOPE  H11X 5266   0.565   6.879  12.242  1.2012 -0.2804  0.5904
   41DOPE  H11Y 5267   0.431   6.746  12.224  0.7666 -0.9682 -2.3704
   41DOPE  C312 5268   0.584   6.712  12.366  0.1628  0.3641 -0.3604
   41DOPE  H12X 5269   0.695   6.708  12.365  0.1494 -1.3308  0.4430
   41DOPE  H12Y 5270   0.541   6.610  12.365 -1.2570  0.9143  0.7750
   41DOPE  C313 5271   0.544   6.784  12.494  0.5948 -0.5206  1.2272
   41DOPE  H13X 5272   0.582   6.887  12.474  2.3447 -1.3136  0.2031
   41DOPE  H13Y 5273   0.434   6.793  12.485  0.7030  0.7996  0.9381
   41DOPE  C314 5274   0.577   6.716  12.631 -0.0788 -0.9027  0.3045
   41DOPE  H14X 5275   0.686   6.701  12.641  0.6713  2.0729 -1.9201
   41DOPE  H14Y 5276   0.521   6.621  12.645 -2.3113  0.3247  0.1383
   41DOPE  C315 5277   0.543   6.818  12.742  0.0046  0.1988 -0.1220
   41DOPE  H15X 5278   0.530   6.752  12.830 -0.1995 -1.4122 -1.3240
   41DOPE  H15Y 5279   0.447   6.870  12.723 -1.6395 -2.1392  1.3103
   41DOPE  C316 5280   0.643   6.935  12.750 -0.5680 -0.0980 -0.8267
   41DOPE  H16X 5281   0.642   6.992  12.655  0.7398  1.4707  0.0416
   41DOPE  H16Y 5282   0.746   6.896  12.766 -1.1792 -1.3702  0.2139
   41DOPE  C317 5283   0.623   7.022  12.878  0.6665 -0.2777  0.2513
   41DOPE  H17X 5284   0.710   7.090  12.892  0.7982 -0.3520 -0.1750
   41DOPE  H17Y 5285   0.532   7.085  12.862  0.8521  0.1890  0.9767
   41DOPE  C318 5286   0.601   6.947  13.013 -0.3662 -0.0436  0.7079
   41DOPE  H18X 5287   0.495   6.920  13.031 -0.4812 -1.1802 -1.3291
   41DOPE  H18Y 5288   0.656   6.851  13.024 -2.6044 -1.2611  2.1122
   41DOPE  H18Z 5289   0.638   7.007  13.099 -0.2851  0.1357  0.5467
   42DOPE     N 5290   0.867   5.134  11.159 -0.8099  0.2310 -0.6480
   42DOPE   HN1 5291   0.901   5.232  11.168 -1.2494  0.4641 -1.3909
   42DOPE   HN2 5292   0.807   5.124  11.243  3.4230 -2.5814  2.4373
   42DOPE   HN3 5293   0.956   5.081  11.167  0.2106  1.5294 -2.3753
   42DOPE   C12 5294   0.797   5.108  11.031 -0.1941  0.0800  0.4523
   42DOPE  H12A 5295   0.698   5.066  11.059  0.3756  0.6369  3.6743
   42DOPE  H12B 5296   0.858   5.028  10.983 -0.8511  1.3565 -2.7323
   42DOPE   C11 5297   0.780   5.232  10.941 -0.7515 -1.4079  0.1912
   42DOPE  H11A 5298   0.724   5.197  10.852 -1.5942 -2.2451  1.0252
   42DOPE  H11B 5299   0.883   5.270  10.922 -1.0017 -0.2259  1.0759
   42DOPE     P 5300   0.589   5.417  10.984  0.0058 -0.1440  0.0227
   42DOPE   O13 5301   0.462   5.345  11.012 -0.2026  0.2288  0.0101
   42DOPE   O14 5302   0.595   5.470  10.846  0.1365 -0.3991  0.0914
   42DOPE   O11 5303   0.596   5.552  11.071 -0.2313  0.2014  0.3188
   42DOPE   O12 5304   0.722   5.334  11.020  0.5660  0.6474  0.2810
   42DOPE    C1 5305   0.704   5.569  11.166 -0.3077 -0.3037 -0.7910
   42DOPE    HA 5306   0.727   5.677  11.173  1.0843 -0.5269 -1.7548
   42DOPE    HB 5307   0.804   5.530  11.139 -0.5204 -2.4673  1.1822
   42DOPE    C2 5308   0.669   5.514  11.310 -0.9424  0.3848  0.3352
   42DOPE    HS 5309   0.634   5.411  11.288  0.4772 -0.1257  0.3490
   42DOPE   O21 5310   0.577   5.599  11.378 -0.2395  0.4701 -0.4048
   42DOPE   C21 5311   0.454   5.567  11.379  0.4141  0.4161  0.3607
   42DOPE   O22 5312   0.395   5.469  11.329  0.2060 -0.0427  0.4400
   42DOPE   C22 5313   0.366   5.676  11.447  0.2395 -0.5519  0.0257
   42DOPE   H2R 5314   0.354   5.759  11.374 -0.7065 -0.7307 -0.0280
   42DOPE   H2S 5315   0.428   5.717  11.530  2.3205 -1.4554 -0.9862
   42DOPE    C3 5316   0.793   5.499  11.399  0.9817 -0.3621  0.5603
   42DOPE    HX 5317   0.840   5.596  11.425 -0.0305  0.0773  0.7786
   42DOPE    HY 5318   0.876   5.438  11.357  0.9466  0.2343 -0.4051
   42DOPE   O31 5319   0.750   5.441  11.519 -0.4038 -0.0931 -0.5988
   42DOPE   C31 5320   0.758   5.312  11.530 -0.5093 -0.2311  0.6128
   42DOPE   O32 5321   0.788   5.243  11.437 -0.2689 -0.1315 -0.5057
   42DOPE   C32 5322   0.730   5.266  11.669  0.5123  0.0014 -1.4735
   42DOPE   H2X 5323   0.649   5.338  11.692  1.4620  0.7512 -0.3261
   42DOPE   H2Y 5324   0.698   5.160  11.676 -1.5953  0.6594 -0.1795
   42DOPE   C23 5325   0.226   5.628  11.495 -0.0434 -0.7986 -0.2968
   42DOPE   H3R 5326   0.243   5.546  11.568  2.9637  0.8221  0.9888
   42DOPE   H3S 5327   0.166   5.581  11.414 -1.2426  0.8001 -0.3850
   42DOPE   C24 5328   0.139   5.742  11.539 -0.1123 -0.4274  0.8683
   42DOPE   H4R 5329   0.034   5.709  11.555  0.2886 -1.8354  0.7903
   42DOPE   H4S 5330   0.132   5.808  11.450 -1.1743 -2.2793 -0.4937
   42DOPE   C25 5331   0.173   5.820  11.667 -0.1604 -0.2944  0.0786
   42DOPE   H5R 5332   0.099   5.902  11.679  1.6536  1.5847 -0.8286
   42DOPE   H5S 5333   0.265   5.881  11.654 -1.6995  2.8629  2.7084
   42DOPE   C26 5334   0.166   5.739  11.786 -0.0160  0.9831  0.5484
   42DOPE   H6R 5335   0.220   5.645  11.762 -0.7464  0.6163  0.2992
   42DOPE   H6S 5336   0.059   5.716  11.808 -0.0292 -0.2547 -0.6909
   42DOPE   C27 5337   0.252   5.795  11.903  0.2511 -0.4513  0.0585
   42DOPE   H7R 5338   0.196   5.886  11.933 -1.5704 -0.9575 -1.5754
   42DOPE   H7S 5339   0.345   5.827  11.853 -0.2386  0.6808 -0.1644
   42DOPE   C28 5340   0.265   5.707  12.024  0.2849 -0.5745 -0.4156
   42DOPE   H8R 5341   0.333   5.758  12.096  0.4814 -0.3506 -0.7565
   42DOPE   H8S 5342   0.327   5.622  11.988  0.9388 -0.7614  1.0735
   42DOPE   C29 5343   0.140   5.668  12.097  0.4240 -0.0065  0.8884
   42DOPE   H9R 5344   0.076   5.596  12.044  1.2218 -2.8182  3.4512
   42DOPE  C210 5345   0.103   5.694  12.223 -1.0320 -0.1984  0.3060
   42DOPE  H10R 5346   0.003   5.664  12.259 -0.8470 -2.6216 -1.0266
   42DOPE  C211 5347   0.182   5.777  12.323  0.1385 -0.5583 -0.3456
   42DOPE  H11R 5348   0.126   5.873  12.335  0.8123 -0.2477  0.4768
   42DOPE  H11S 5349   0.278   5.816  12.283 -0.1586 -0.6406 -1.1406
   42DOPE  C212 5350   0.200   5.723  12.462  0.3263 -0.7268 -0.4947
   42DOPE  H12R 5351   0.260   5.629  12.458 -0.2271 -1.0900 -0.3966
   42DOPE  H12S 5352   0.098   5.687  12.488 -0.0034  0.0799 -0.6719
   42DOPE  C213 5353   0.251   5.831  12.565  0.5237  0.0920  0.6442
   42DOPE  H13R 5354   0.205   5.927  12.533  0.4076  0.1796  1.0720
   42DOPE  H13S 5355   0.361   5.842  12.565  0.6718 -1.1112  1.8498
   42DOPE  C214 5356   0.205   5.788  12.704 -0.6369  0.3913 -0.4325
   42DOPE  H14R 5357   0.242   5.687  12.729 -0.9136  0.2830 -0.4666
   42DOPE  H14S 5358   0.095   5.777  12.707 -0.6979  1.0519  0.2515
   42DOPE  C215 5359   0.252   5.890  12.815  0.2930  0.5355 -0.9734
   42DOPE  H15R 5360   0.241   5.988  12.762  0.0227 -0.7145 -3.3701
   42DOPE  H15S 5361   0.358   5.877  12.846 -0.3549 -0.9226  0.7774
   42DOPE  C216 5362   0.160   5.891  12.936  0.5972 -0.1031 -0.1042
   42DOPE  H16R 5363   0.121   5.792  12.968 -1.0813  0.3453 -0.6372
   42DOPE  H16S 5364   0.066   5.938  12.900 -0.2738 -2.1972 -0.7337
   42DOPE  C217 5365   0.192   5.976  13.056  0.0779 -0.6185 -0.3167
   42DOPE  H17R 5366   0.245   6.066  13.021 -1.1691  0.9593  1.5992
   42DOPE  H17S 5367   0.262   5.914  13.116  0.6083  0.4922  0.2417
   42DOPE  C218 5368   0.081   6.014  13.156 -0.8643 -0.2781 -1.0204
   42DOPE  H18R 5369   0.016   6.093  13.114  1.3846  3.0716  1.2654
   42DOPE  H18S 5370   0.126   6.067  13.243 -1.5806 -2.4437  0.7659
   42DOPE  H18T 5371   0.033   5.917  13.184  1.7611 -2.3832 -3.1986
   42DOPE   C33 5372   0.850   5.303  11.755 -0.3793  0.6086 -0.5158
   42DOPE   H3X 5373   0.913   5.391  11.729  0.8617 -0.1853 -0.2872
   42DOPE   H3Y 5374   0.921   5.218  11.741 -0.6188  0.2167  0.5994
   42DOPE   C34 5375   0.809   5.308  11.906  0.1354 -0.4058  0.0156
   42DOPE   H4X 5376   0.724   5.379  11.904  1.4353  1.1830 -0.5511
   42DOPE   H4Y 5377   0.779   5.204  11.932  0.8886 -0.6524 -0.0704
   42DOPE   C35 5378   0.918   5.364  11.994  0.5083  0.4060  0.2892
   42DOPE   H5X 5379   0.954   5.462  11.955 -0.7320  2.1387  3.1934
   42DOPE   H5Y 5380   0.998   5.287  11.990 -0.3830 -0.5544  0.7297
   42DOPE   C36 5381   0.891   5.373  12.140  0.3387 -0.4405 -0.8424
   42DOPE   H6X 5382   0.863   5.272  12.179 -1.9927  1.1426  2.0228
   42DOPE   H6Y 5383   0.802   5.436  12.163 -0.4372 -1.5162 -0.8097
   42DOPE   C37 5384   1.001   5.440  12.227 -0.2338  0.0426 -0.1705
   42DOPE   H7X 5385   1.099   5.413  12.181  0.2550  1.5136 -0.0191
   42DOPE   H7Y 5386   1.002   5.549  12.208  2.1288  0.1396  0.1048
   42DOPE   C38 5387   0.987   5.411  12.382 -0.0978 -0.1235  0.3832
   42DOPE   H8X 5388   1.009   5.305  12.408  0.8981 -0.0824 -0.2321
   42DOPE   H8Y 5389   0.880   5.430  12.405 -0.6466 -3.4353  1.0206
   42DOPE   C39 5390   1.082   5.490  12.469  0.5503  0.4315  0.0721
   42DOPE   H9X 5391   1.176   5.509  12.414  0.5475 -0.3458 -0.2168
   42DOPE  C310 5392   1.053   5.537  12.597  0.5212  0.3059  0.1214
   42DOPE  H10X 5393   1.132   5.596  12.647  0.3090  0.9800 -0.3287
   42DOPE  C311 5394   0.922   5.508  12.672  0.1885 -0.0013  0.0451
   42DOPE  H11X 5395   0.874   5.605  12.700 -3.3295 -1.7416  0.5748
   42DOPE  H11Y 5396   0.843   5.465  12.607 -0.6843 -0.2637  1.2379
   42DOPE  C312 5397   0.940   5.424  12.794 -0.3478 -0.1334 -0.2416
   42DOPE  H12X 5398   1.007   5.340  12.765 -1.7131 -1.2254 -0.3533
   42DOPE  H12Y 5399   0.849   5.368  12.825 -0.1065 -1.3632 -1.6346
   42DOPE  C313 5400   1.028   5.496  12.903 -0.1892  0.3057 -0.0128
   42DOPE  H13X 5401   1.136   5.498  12.880  0.4259 -1.2189  2.4152
   42DOPE  H13Y 5402   0.987   5.596  12.928  1.1528  1.0677 -0.7908
   42DOPE  C314 5403   1.029   5.416  13.036 -0.6581 -0.0062  0.7031
   42DOPE  H14X 5404   1.069   5.314  13.015  0.9651  0.3256  1.8890
   42DOPE  H14Y 5405   0.926   5.408  13.077 -1.6930 -0.1541 -1.8005
   42DOPE  C315 5406   1.102   5.486  13.152 -0.0712 -0.1397  0.2965
   42DOPE  H15X 5407   1.064   5.586  13.179  0.6627 -0.1490  1.4619
   42DOPE  H15Y 5408   1.210   5.488  13.126 -0.6660  0.2588 -2.3482
   42DOPE  C316 5409   1.081   5.394  13.279  0.8029 -0.3105  0.2297
   42DOPE  H16X 5410   1.117   5.293  13.250  1.9279 -0.1073  0.8661
   42DOPE  H16Y 5411   0.974   5.374  13.302  0.7873  1.1649  1.6403
   42DOPE  C317 5412   1.139   5.450  13.411 -0.1168 -0.1741  0.8983
   42DOPE  H17X 5413   1.217   5.525  13.384  0.4450 -0.5828  1.3338
   42DOPE  H17Y 5414   1.067   5.510  13.470 -1.0044  1.5060 -1.7221
   42DOPE  C318 5415   1.200   5.335  13.499 -0.6115  0.3428 -0.0610
   42DOPE  H18X 5416   1.133   5.252  13.530  0.8024 -0.4933  0.8782
   42DOPE  H18Y 5417   1.293   5.296  13.451 -0.4150 -0.5067  0.9725
   42DOPE  H18Z 5418   1.247   5.375  13.591 -0.5688  2.6151 -1.0125
   43DOPE     N 5419   0.665   4.225  11.728 -0.3776 -0.8025  0.4278
   43DOPE   HN1 5420   0.764   4.223  11.759 -0.6158 -0.4397  1.2663
   43DOPE   HN2 5421   0.638   4.132  11.689  1.4537 -1.2112  0.0303
   43DOPE   HN3 5422   0.655   4.292  11.650 -2.1952 -2.6178 -1.0127
   43DOPE   C12 5423   0.577   4.255  11.840 -0.0776  0.0624 -0.5227
   43DOPE  H12A 5424   0.593   4.356  11.883 -2.0963 -0.0008  0.4968
   43DOPE  H12B 5425   0.608   4.181  11.917  1.6079  1.5400  0.2960
   43DOPE   C11 5426   0.431   4.231  11.802  0.4831  0.7938  0.5951
   43DOPE  H11A 5427   0.399   4.311  11.733 -0.4901  0.2603  0.4031
   43DOPE  H11B 5428   0.364   4.245  11.890 -0.6336 -0.3547 -0.0373
   43DOPE     P 5429   0.362   3.969  11.811  0.1964 -0.0792  0.2088
   43DOPE   O13 5430   0.414   3.853  11.740 -0.2312 -0.3022  0.6123
   43DOPE   O14 5431   0.213   3.991  11.818 -0.0160 -0.4282  1.0510
   43DOPE   O11 5432   0.431   3.977  11.955 -0.3568  0.4185 -0.4364
   43DOPE   O12 5433   0.418   4.104  11.742  0.5910 -0.2057  0.2931
   43DOPE    C1 5434   0.374   4.053  12.064 -0.3104 -0.3422  0.2514
   43DOPE    HA 5435   0.288   4.111  12.023 -0.3231 -1.7880 -1.9870
   43DOPE    HB 5436   0.453   4.116  12.110  3.0348 -3.3950 -0.8704
   43DOPE    C2 5437   0.337   3.972  12.184 -1.2568 -0.0959  0.1505
   43DOPE    HS 5438   0.312   4.049  12.260  0.6962  0.9793 -0.2321
   43DOPE   O21 5439   0.455   3.895  12.225  0.3398 -0.1547  0.6676
   43DOPE   C21 5440   0.460   3.884  12.361 -0.5166  0.1778 -0.3320
   43DOPE   O22 5441   0.374   3.919  12.439  0.6586 -0.2416 -0.0911
   43DOPE   C22 5442   0.601   3.823  12.412 -0.0737  0.4683 -0.0001
   43DOPE   H2R 5443   0.678   3.903  12.414  0.9192 -0.4770  1.6511
   43DOPE   H2S 5444   0.620   3.743  12.338 -0.7378  0.0654  0.2539
   43DOPE    C3 5445   0.213   3.877  12.164  0.8509  0.0881  0.4643
   43DOPE    HX 5446   0.243   3.790  12.102  2.0297  0.2187  0.8420
   43DOPE    HY 5447   0.147   3.935  12.096  1.2384 -0.7175 -0.6353
   43DOPE   O31 5448   0.153   3.830  12.279  0.3653 -0.2226 -0.5555
   43DOPE   C31 5449   0.087   3.920  12.341  0.3249 -0.1454 -0.0380
   43DOPE   O32 5450   0.075   4.034  12.303  0.4352 -0.0617 -0.0642
   43DOPE   C32 5451   0.034   3.863  12.470  0.2895 -0.5005  0.3429
   43DOPE   H2X 5452   0.033   3.753  12.459  0.1247 -0.5126  0.4716
   43DOPE   H2Y 5453   0.110   3.892  12.546  0.7476 -2.5141  0.7165
   43DOPE   C23 5454   0.581   3.761  12.548  0.5218 -0.0911  0.2547
   43DOPE   H3R 5455   0.660   3.683  12.557  0.1708 -0.3400  1.3279
   43DOPE   H3S 5456   0.485   3.707  12.563  0.2632  0.3991  0.3817
   43DOPE   C24 5457   0.609   3.857  12.662  0.7196 -1.4407 -1.0848
   43DOPE   H4R 5458   0.536   3.941  12.670  1.7548 -0.4812 -1.3898
   43DOPE   H4S 5459   0.705   3.910  12.645  0.4765 -1.0378 -1.2435
   43DOPE   C25 5460   0.610   3.792  12.796 -0.3421  0.1580  0.0310
   43DOPE   H5R 5461   0.697   3.724  12.800  0.0278  0.5943 -0.3998
   43DOPE   H5S 5462   0.517   3.732  12.811 -0.1522 -0.5968 -1.5603
   43DOPE   C26 5463   0.614   3.896  12.913 -0.3022  0.1696  0.3054
   43DOPE   H6R 5464   0.533   3.971  12.904 -0.3225  0.2731  1.1968
   43DOPE   H6S 5465   0.707   3.955  12.902 -1.5159  1.8443 -1.6934
   43DOPE   C27 5466   0.609   3.828  13.048  0.0065 -0.4664  0.6881
   43DOPE   H7R 5467   0.679   3.742  13.044  0.4143 -0.1439  0.8796
   43DOPE   H7S 5468   0.505   3.788  13.056 -0.2297 -0.5486 -1.8549
   43DOPE   C28 5469   0.650   3.907  13.171  0.0681  0.0567 -0.3522
   43DOPE   H8R 5470   0.729   3.981  13.145  0.0845  0.3473  0.5097
   43DOPE   H8S 5471   0.709   3.846  13.242  0.2200 -1.3039 -1.6072
   43DOPE   C29 5472   0.535   3.974  13.244 -0.3052 -0.1632 -0.1181
   43DOPE   H9R 5473   0.459   3.997  13.168  0.2261  1.9503 -0.0834
   43DOPE  C210 5474   0.528   4.000  13.382  0.6325  1.3386 -0.0072
   43DOPE  H10R 5475   0.431   4.006  13.434  0.2687 -1.7196 -0.1185
   43DOPE  C211 5476   0.644   3.977  13.471  0.5674 -0.1212 -0.2091
   43DOPE  H11R 5477   0.635   4.058  13.546 -0.7359  0.2964 -0.7993
   43DOPE  H11S 5478   0.737   3.970  13.411 -1.1395  1.9761 -3.3526
   43DOPE  C212 5479   0.622   3.849  13.549  0.6918 -0.4082 -0.1190
   43DOPE  H12R 5480   0.639   3.751  13.500  0.6084 -0.0156 -0.9398
   43DOPE  H12S 5481   0.518   3.839  13.585  0.4706  0.8577 -0.3781
   43DOPE  C213 5482   0.724   3.844  13.669  1.0057  0.5404 -0.1409
   43DOPE  H13R 5483   0.727   3.945  13.717  0.4123  0.1186  0.8206
   43DOPE  H13S 5484   0.823   3.810  13.632  0.9776  1.2241 -0.8732
   43DOPE  C214 5485   0.677   3.742  13.769  0.1712  0.4422 -0.0901
   43DOPE  H14R 5486   0.763   3.731  13.839 -1.3555 -2.4128  1.5198
   43DOPE  H14S 5487   0.665   3.639  13.728 -3.1616  1.0560 -0.9902
   43DOPE  C215 5488   0.541   3.776  13.844 -0.7672  1.0125 -0.2812
   43DOPE  H15R 5489   0.539   3.707  13.931  2.7472 -1.3527 -1.8238
   43DOPE  H15S 5490   0.445   3.780  13.788 -0.7138  1.9989 -0.3143
   43DOPE  C216 5491   0.547   3.909  13.906  0.3141 -0.0373 -0.8785
   43DOPE  H16R 5492   0.448   3.929  13.952  0.0285  1.8395 -2.1926
   43DOPE  H16S 5493   0.556   4.001  13.845  1.3116 -0.6175 -1.6348
   43DOPE  C217 5494   0.647   3.925  14.019 -0.1000 -0.3096 -0.7328
   43DOPE  H17R 5495   0.747   3.941  13.974 -0.7505  0.4288 -1.9906
   43DOPE  H17S 5496   0.659   3.837  14.086  2.3048  2.1954  2.4537
   43DOPE  C218 5497   0.625   4.054  14.098  0.6316  0.0015  0.7541
   43DOPE  H18R 5498   0.701   4.062  14.178  0.8480 -1.2415  0.6891
   43DOPE  H18S 5499   0.520   4.056  14.134  0.2229  1.8595 -0.4119
   43DOPE  H18T 5500   0.634   4.136  14.023  1.0268 -0.3705  0.3881
   43DOPE   C33 5501  -0.087   3.939  12.522 -0.7470  0.1809 -0.9645
   43DOPE   H3X 5502  -0.169   3.918  12.451 -0.0535 -0.8034 -1.5125
   43DOPE   H3Y 5503  -0.052   4.045  12.523  0.2861 -0.1464 -1.1024
   43DOPE   C34 5504  -0.136   3.881  12.657 -0.5850  0.6162  0.3512
   43DOPE   H4X 5505  -0.165   3.774  12.654  0.8465  0.2294  0.0364
   43DOPE   H4Y 5506  -0.051   3.870  12.727 -0.7612 -0.3270  0.4272
   43DOPE   C35 5507  -0.245   3.956  12.723 -0.3111 -0.1186 -0.4035
   43DOPE   H5X 5508  -0.338   3.949  12.662 -0.3440  0.0827 -0.3771
   43DOPE   H5Y 5509  -0.221   4.064  12.720 -0.5484 -0.0638 -3.0182
   43DOPE   C36 5510  -0.281   3.911  12.868  0.2381 -0.1475  0.9912
   43DOPE   H6X 5511  -0.185   3.883  12.916 -0.5735 -2.1121  1.5738
   43DOPE   H6Y 5512  -0.332   3.814  12.853 -2.1215  1.1036  0.3703
   43DOPE   C37 5513  -0.365   4.015  12.950 -0.0049  0.7796  0.0714
   43DOPE   H7X 5514  -0.306   4.109  12.952 -0.5656  1.1230  1.5880
   43DOPE   H7Y 5515  -0.460   4.032  12.896 -0.0204 -1.0942 -0.5780
   43DOPE   C38 5516  -0.386   3.977  13.101 -0.0488 -0.3146  0.1558
   43DOPE   H8X 5517  -0.441   3.881  13.102 -1.1853  0.2395 -2.4239
   43DOPE   H8Y 5518  -0.444   4.067  13.131  0.3501  0.9393 -2.5770
   43DOPE   C39 5519  -0.266   3.975  13.189 -0.0757  0.2833  0.3999
   43DOPE   H9X 5520  -0.192   4.053  13.166 -1.1661  0.9853 -0.7783
   43DOPE  C310 5521  -0.235   3.889  13.288  0.2879  0.1354 -0.2917
   43DOPE  H10X 5522  -0.160   3.925  13.360 -0.8887 -0.0886  1.0937
   43DOPE  C311 5523  -0.312   3.764  13.333 -0.0577 -0.3353  0.4176
   43DOPE  H11X 5524  -0.374   3.717  13.253 -0.0764 -1.0173  0.8206
   43DOPE  H11Y 5525  -0.240   3.682  13.354  1.0984  0.5500  0.0318
   43DOPE  C312 5526  -0.390   3.797  13.458  0.1424 -0.3555 -0.6661
   43DOPE  H12X 5527  -0.461   3.877  13.425 -0.8550 -0.4522  1.1309
   43DOPE  H12Y 5528  -0.328   3.860  13.525 -0.2653  0.0689 -0.6798
   43DOPE  C313 5529  -0.480   3.690  13.523 -0.0428 -0.1569 -0.6661
   43DOPE  H13X 5530  -0.522   3.723  13.620 -0.1016 -1.5461 -0.1878
   43DOPE  H13Y 5531  -0.565   3.679  13.454  0.2289 -1.9359 -0.7795
   43DOPE  C314 5532  -0.400   3.561  13.549  0.1711 -0.2502 -0.2852
   43DOPE  H14X 5533  -0.304   3.599  13.591  0.1031 -1.5055  1.0733
   43DOPE  H14Y 5534  -0.373   3.512  13.453  0.0230 -0.8793 -0.0072
   43DOPE  C315 5535  -0.453   3.453  13.650  0.8239  0.1789 -0.6041
   43DOPE  H15X 5536  -0.457   3.507  13.747 -1.3687  0.2282 -0.6584
   43DOPE  H15Y 5537  -0.381   3.369  13.649  1.2432  0.3913  2.5046
   43DOPE  C316 5538  -0.594   3.401  13.612 -0.3150 -0.1623  0.0483
   43DOPE  H16X 5539  -0.587   3.358  13.510  2.4819  1.4545 -0.5437
   43DOPE  H16Y 5540  -0.664   3.488  13.605 -2.0278 -1.5301 -0.5885
   43DOPE  C317 5541  -0.639   3.293  13.712 -0.1665  0.3689 -0.0359
   43DOPE  H17X 5542  -0.719   3.237  13.660 -1.1738 -1.3465  3.1319
   43DOPE  H17Y 5543  -0.558   3.222  13.738  0.1507  1.4503  2.1081
   43DOPE  C318 5544  -0.672   3.344  13.853 -0.0507 -0.2639 -0.8358
   43DOPE  H18X 5545  -0.695   3.269  13.931 -1.8199  0.4637 -0.6146
   43DOPE  H18Y 5546  -0.583   3.397  13.893  1.0131 -2.6398  0.1243
   43DOPE  H18Z 5547  -0.752   3.421  13.840 -0.1955 -0.2818 -0.0786
   44DOPE     N 5548   1.961   3.385  11.090 -0.7545 -0.4127  0.2606
   44DOPE   HN1 5549   1.920   3.383  11.185  0.0799 -2.7560  0.6488
   44DOPE   HN2 5550   1.885   3.410  11.024 -2.2309 -0.3625  1.9160
   44DOPE   HN3 5551   1.981   3.283  11.080 -1.3502 -0.6890  1.6338
   44DOPE   C12 5552   2.091   3.462  11.066  0.5855 -0.4617 -0.2129
   44DOPE  H12A 5553   2.086   3.497  10.960 -1.4539  0.1907  0.0760
   44DOPE  H12B 5554   2.180   3.402  11.094  0.8625  0.6709  1.4674
   44DOPE   C11 5555   2.087   3.572  11.168  0.5976 -0.3041  0.1691
   44DOPE  H11A 5556   2.178   3.633  11.158  0.4309 -0.3102 -1.6935
   44DOPE  H11B 5557   2.102   3.533  11.271 -0.3159 -3.3386 -0.7292
   44DOPE     P 5558   1.949   3.774  11.249  0.0110  0.3570  0.1120
   44DOPE   O13 5559   1.832   3.854  11.207  0.0485 -0.2914 -0.2949
   44DOPE   O14 5560   2.078   3.847  11.264  0.0289  0.1234  0.2451
   44DOPE   O11 5561   1.903   3.698  11.378 -0.0628 -0.6768 -0.3702
   44DOPE   O12 5562   1.971   3.651  11.151 -0.3919 -0.4127 -0.1595
   44DOPE    C1 5563   1.867   3.775  11.490 -0.8208 -0.5705 -0.3922
   44DOPE    HA 5564   1.762   3.810  11.484 -1.0801 -1.3125 -0.2691
   44DOPE    HB 5565   1.935   3.862  11.504 -2.2765  0.3971  0.9600
   44DOPE    C2 5566   1.887   3.681  11.620 -0.0629 -0.7580  0.3810
   44DOPE    HS 5567   1.997   3.666  11.624  0.0360 -4.0905 -5.0778
   44DOPE   O21 5568   1.824   3.560  11.599  0.3384  0.3047 -0.2624
   44DOPE   C21 5569   1.876   3.455  11.667  0.4300  0.1841  0.2466
   44DOPE   O22 5570   1.980   3.465  11.728 -0.4157 -0.2593 -0.2439
   44DOPE   C22 5571   1.797   3.330  11.653  0.3338 -0.4550  0.4280
   44DOPE   H2R 5572   1.838   3.284  11.560 -0.2260  0.7581 -0.4536
   44DOPE   H2S 5573   1.690   3.349  11.629  0.8452  0.4765 -1.2609
   44DOPE    C3 5574   1.832   3.767  11.744 -0.0381  0.4786  0.2967
   44DOPE    HX 5575   1.721   3.775  11.739 -0.3017 -1.0843  2.4235
   44DOPE    HY 5576   1.868   3.872  11.747 -0.2302  0.5775 -0.6185
   44DOPE   O31 5577   1.866   3.713  11.879  0.9247  0.4243 -0.2595
   44DOPE   C31 5578   1.979   3.737  11.933  1.2416  0.0381 -0.3031
   44DOPE   O32 5579   2.069   3.803  11.880 -0.2478 -0.6683 -0.5266
   44DOPE   C32 5580   1.987   3.649  12.056  0.3339  0.0660  0.1293
   44DOPE   H2X 5581   1.952   3.549  12.024 -0.7273  0.7665 -0.9988
   44DOPE   H2Y 5582   2.095   3.641  12.080  0.5790  1.0879 -0.5833
   44DOPE   C23 5583   1.803   3.242  11.776 -0.1485 -0.4188  0.3958
   44DOPE   H3R 5584   1.911   3.221  11.790  0.1438  0.6139 -0.2136
   44DOPE   H3S 5585   1.752   3.144  11.763  0.2303 -0.7586  1.3092
   44DOPE   C24 5586   1.743   3.300  11.907 -0.8963  0.3535  0.2447
   44DOPE   H4R 5587   1.633   3.292  11.914 -0.8352 -0.1445  0.7855
   44DOPE   H4S 5588   1.779   3.405  11.915  0.4176 -0.1241  0.9333
   44DOPE   C25 5589   1.796   3.218  12.029 -0.2108  0.7265 -0.1231
   44DOPE   H5R 5590   1.905   3.236  12.040  0.1276 -1.1992 -0.1140
   44DOPE   H5S 5591   1.782   3.112  12.000  0.9694  0.6026 -0.2796
   44DOPE   C26 5592   1.714   3.257  12.151  0.4049  0.0064 -0.1798
   44DOPE   H6R 5593   1.610   3.246  12.114  0.1800 -1.0226  0.7032
   44DOPE   H6S 5594   1.737   3.360  12.187  1.0520 -0.9007  2.2487
   44DOPE   C27 5595   1.739   3.163  12.267 -0.1065 -0.0079 -0.4766
   44DOPE   H7R 5596   1.831   3.182  12.327  0.0180  0.8687 -0.9228
   44DOPE   H7S 5597   1.761   3.063  12.226 -3.1558 -1.3062  0.8075
   44DOPE   C28 5598   1.622   3.144  12.371 -0.0747  0.2705  0.1731
   44DOPE   H8R 5599   1.651   3.059  12.435  0.4920 -0.9836 -1.6742
   44DOPE   H8S 5600   1.532   3.117  12.311 -0.0516 -0.0974  0.3060
   44DOPE   C29 5601   1.583   3.268  12.452  0.3096  0.2730 -0.2294
   44DOPE   H9R 5602   1.494   3.327  12.427 -1.1807 -1.3389  1.0269
   44DOPE  C210 5603   1.641   3.291  12.572  0.3461  0.8088  0.0663
   44DOPE  H10R 5604   1.631   3.385  12.627  2.2622  0.1010  1.7525
   44DOPE  C211 5605   1.749   3.204  12.640  0.2538 -0.0763  1.0217
   44DOPE  H11R 5606   1.850   3.240  12.610  1.0155 -3.2763 -0.6970
   44DOPE  H11S 5607   1.755   3.099  12.603 -1.8810  0.7560 -2.0221
   44DOPE  C212 5608   1.740   3.205  12.793 -0.2181  0.3255  0.0111
   44DOPE  H12R 5609   1.643   3.195  12.847  1.2945 -1.6231  2.6146
   44DOPE  H12S 5610   1.780   3.303  12.826 -0.2961  0.3175  0.1294
   44DOPE  C213 5611   1.826   3.093  12.856 -0.4839 -0.4256  0.0407
   44DOPE  H13R 5612   1.933   3.097  12.827  0.0009 -1.3954  1.5562
   44DOPE  H13S 5613   1.789   2.994  12.823 -2.8517 -0.0188  1.2575
   44DOPE  C214 5614   1.821   3.097  13.013  0.6836  0.9951  0.0349
   44DOPE  H14R 5615   1.857   3.006  13.065 -0.4012  1.5820  1.9161
   44DOPE  H14S 5616   1.714   3.093  13.046  0.6823  0.6152 -0.0059
   44DOPE  C215 5617   1.877   3.221  13.087  0.5432  0.6285  0.7692
   44DOPE  H15R 5618   1.858   3.310  13.023 -1.3128 -1.2857 -1.5087
   44DOPE  H15S 5619   1.987   3.204  13.098  0.2287 -1.4235  1.1793
   44DOPE  C216 5620   1.822   3.260  13.228 -0.7506  0.2256  1.0718
   44DOPE  H16R 5621   1.732   3.322  13.211  1.6980  3.5489 -1.3244
   44DOPE  H16S 5622   1.897   3.337  13.257 -1.7073  1.7902 -0.4216
   44DOPE  C217 5623   1.824   3.155  13.332  0.9203  0.3987  0.1791
   44DOPE  H17R 5624   1.924   3.110  13.351  0.4232 -0.8406 -0.0930
   44DOPE  H17S 5625   1.755   3.079  13.293  1.1229 -0.7464  1.9397
   44DOPE  C218 5626   1.756   3.205  13.465  0.4230  0.6221  0.1420
   44DOPE  H18R 5627   1.710   3.114  13.509  1.1155  0.6516  0.9645
   44DOPE  H18S 5628   1.674   3.274  13.439 -0.0176 -0.1253 -0.5129
   44DOPE  H18T 5629   1.826   3.246  13.541  2.2345  1.5453 -1.9226
   44DOPE   C33 5630   1.915   3.704  12.180  0.2884 -0.0366  0.7737
   44DOPE   H3X 5631   1.805   3.699  12.163  0.2586 -0.0467  0.9670
   44DOPE   H3Y 5632   1.937   3.813  12.188 -0.6249  0.0666  2.4163
   44DOPE   C34 5633   1.950   3.639  12.312  0.0204 -0.1921  0.2389
   44DOPE   H4X 5634   1.915   3.534  12.301 -0.8392  0.2313 -1.4909
   44DOPE   H4Y 5635   2.060   3.648  12.313 -0.0298  1.4237 -1.7019
   44DOPE   C35 5636   1.883   3.695  12.434  0.1366  0.8713 -0.5664
   44DOPE   H5X 5637   1.775   3.668  12.432  0.2668  0.0973  1.3047
   44DOPE   H5Y 5638   1.886   3.806  12.436 -1.2430  0.9568 -1.6190
   44DOPE   C36 5639   1.941   3.635  12.565 -0.5152  0.4215 -0.0331
   44DOPE   H6X 5640   2.049   3.658  12.576 -0.0332 -1.8575  0.4073
   44DOPE   H6Y 5641   1.946   3.525  12.556 -3.4172  0.1584  0.5746
   44DOPE   C37 5642   1.861   3.686  12.690 -1.1091  0.4578  1.1352
   44DOPE   H7X 5643   1.929   3.769  12.722 -0.0849  0.4568 -0.9352
   44DOPE   H7Y 5644   1.756   3.706  12.660 -1.6404 -2.6764  0.6504
   44DOPE   C38 5645   1.850   3.571  12.791 -0.1991 -0.8423 -0.0094
   44DOPE   H8X 5646   1.784   3.495  12.744  2.7575 -2.6424 -1.5870
   44DOPE   H8Y 5647   1.796   3.610  12.879 -0.8503 -0.7792 -0.4297
   44DOPE   C39 5648   1.979   3.508  12.830  0.0276 -0.2948 -0.3044
   44DOPE   H9X 5649   2.025   3.443  12.754  0.3588  1.9637 -2.1478
   44DOPE  C310 5650   2.053   3.551  12.933 -0.4655  0.0267 -0.1136
   44DOPE  H10X 5651   2.152   3.504  12.950 -0.6334  0.0045  0.8158
   44DOPE  C311 5652   2.001   3.624  13.053  0.6479  0.1945  0.2640
   44DOPE  H11X 5653   2.008   3.733  13.033 -0.9816  0.1799 -0.4940
   44DOPE  H11Y 5654   1.895   3.594  13.071  1.2482 -1.0681  2.0703
   44DOPE  C312 5655   2.086   3.585  13.179  0.0661  0.1021  0.0639
   44DOPE  H12X 5656   2.195   3.601  13.163 -0.2617  1.7296 -0.8341
   44DOPE  H12Y 5657   2.062   3.482  13.211 -0.5810  0.3943  0.5363
   44DOPE  C313 5658   2.048   3.683  13.293 -0.6888  0.7996 -0.6366
   44DOPE  H13X 5659   2.071   3.786  13.259  1.1578  1.0649  1.1919
   44DOPE  H13Y 5660   1.939   3.667  13.306 -0.6439  0.8134 -0.2404
   44DOPE  C314 5661   2.118   3.655  13.430  0.3890 -0.6166  0.6342
   44DOPE  H14X 5662   2.114   3.748  13.489  1.8380 -0.5732  0.6828
   44DOPE  H14Y 5663   2.216   3.610  13.403  0.4557 -0.5331  0.7367
   44DOPE  C315 5664   2.045   3.547  13.507 -0.5143 -0.3561 -0.8360
   44DOPE  H15X 5665   2.011   3.466  13.438  0.1518 -0.6931 -0.7771
   44DOPE  H15Y 5666   1.961   3.594  13.563 -0.7743 -1.1608 -0.5257
   44DOPE  C316 5667   2.149   3.475  13.603 -0.1425 -0.3552 -0.1206
   44DOPE  H16X 5668   2.227   3.542  13.644  0.1407 -0.4981 -0.4137
   44DOPE  H16Y 5669   2.200   3.415  13.524 -0.6091  0.6242 -1.2035
   44DOPE  C317 5670   2.081   3.382  13.704  0.0827  0.1269 -0.1513
   44DOPE  H17X 5671   2.001   3.445  13.749 -0.2000  0.4093 -1.0289
   44DOPE  H17Y 5672   2.028   3.299  13.652 -1.2223 -0.5822  2.1180
   44DOPE  C318 5673   2.174   3.317  13.809  0.0977  0.8487  0.0621
   44DOPE  H18X 5674   2.264   3.280  13.756  0.0322  0.9442 -0.1134
   44DOPE  H18Y 5675   2.212   3.394  13.881  0.3605  0.8505 -0.0773
   44DOPE  H18Z 5676   2.122   3.238  13.867 -2.1683 -0.8971 -3.9458
   45DOPE     N 5677   1.325   2.138  11.319  0.0322 -0.2662 -0.0457
   45DOPE   HN1 5678   1.274   2.223  11.287  1.2586  0.2475 -0.6929
   45DOPE   HN2 5679   1.296   2.063  11.252 -1.2753 -0.2548  0.4752
   45DOPE   HN3 5680   1.282   2.114  11.410  0.0539 -0.4546 -0.0857
   45DOPE   C12 5681   1.468   2.186  11.316  0.9371 -0.6993  0.7668
   45DOPE  H12A 5682   1.498   2.182  11.209  0.0051  0.6000  0.4430
   45DOPE  H12B 5683   1.535   2.111  11.364  0.3669 -0.5191  1.8746
   45DOPE   C11 5684   1.489   2.334  11.366 -0.1596  0.0643  0.5852
   45DOPE  H11A 5685   1.580   2.366  11.312  0.9951 -1.7636  1.3570
   45DOPE  H11B 5686   1.498   2.335  11.476 -1.1575 -0.5560  0.6869
   45DOPE     P 5687   1.398   2.577  11.344 -0.2098  0.0322  0.0178
   45DOPE   O13 5688   1.292   2.647  11.275  0.5402 -0.5363  0.3659
   45DOPE   O14 5689   1.537   2.612  11.301  0.3160  0.1373 -0.0574
   45DOPE   O11 5690   1.381   2.604  11.497 -0.2000  0.3776 -0.2720
   45DOPE   O12 5691   1.378   2.420  11.322 -0.4431  0.5553 -0.3672
   45DOPE    C1 5692   1.266   2.583  11.573  0.5713  0.5924  0.4995
   45DOPE    HA 5693   1.177   2.544  11.519 -1.9009  2.1203  3.1288
   45DOPE    HB 5694   1.244   2.686  11.608 -0.1565  0.3196  0.8780
   45DOPE    C2 5695   1.284   2.502  11.706  0.6752 -0.2618  0.0566
   45DOPE    HS 5696   1.338   2.567  11.778  0.0913  0.8393 -0.4710
   45DOPE   O21 5697   1.356   2.381  11.671 -0.1359  0.2009 -0.6624
   45DOPE   C21 5698   1.439   2.337  11.767 -0.1703  0.6360  0.2757
   45DOPE   O22 5699   1.456   2.385  11.879  0.6192 -0.0688  0.2147
   45DOPE   C22 5700   1.505   2.204  11.713  0.4156  0.3351 -0.3392
   45DOPE   H2R 5701   1.610   2.223  11.683  0.3821  1.9634  0.4433
   45DOPE   H2S 5702   1.445   2.173  11.625 -1.7115 -1.3525  1.5935
   45DOPE    C3 5703   1.150   2.463  11.764  0.4172  0.5162  0.4462
   45DOPE    HX 5704   1.105   2.381  11.705  2.4852 -0.9704  0.8097
   45DOPE    HY 5705   1.085   2.553  11.753 -0.4225  0.0142  1.1562
   45DOPE   O31 5706   1.149   2.420  11.903 -0.3405 -0.7232 -0.6715
   45DOPE   C31 5707   1.195   2.503  11.996 -0.2802  0.0594  0.8587
   45DOPE   O32 5708   1.229   2.619  11.979 -0.1590  0.0034 -0.0396
   45DOPE   C32 5709   1.184   2.422  12.131 -0.6957 -0.1127 -0.1456
   45DOPE   H2X 5710   1.083   2.454  12.165 -0.8770 -2.0930  1.3358
   45DOPE   H2Y 5711   1.170   2.313  12.116 -0.8102 -0.3031  1.2049
   45DOPE   C23 5712   1.497   2.091  11.817  0.0965  0.2725 -0.2505
   45DOPE   H3R 5713   1.503   1.993  11.766 -0.6716 -1.1025  2.0928
   45DOPE   H3S 5714   1.395   2.090  11.862  0.5854 -2.0594  0.9775
   45DOPE   C24 5715   1.603   2.099  11.931 -0.0787  0.6390  0.4057
   45DOPE   H4R 5716   1.612   2.199  11.978  0.7679  1.0171 -0.5244
   45DOPE   H4S 5717   1.701   2.073  11.885 -1.0221  1.1017 -2.0243
   45DOPE   C25 5718   1.561   1.999  12.046 -0.7778  0.0697  0.7745
   45DOPE   H5R 5719   1.582   1.900  12.001 -0.7141  0.6574 -0.5515
   45DOPE   H5S 5720   1.454   2.015  12.073 -1.2097  0.1318 -0.8190
   45DOPE   C26 5721   1.639   2.006  12.177 -0.8144 -0.1877 -0.0140
   45DOPE   H6R 5722   1.749   1.992  12.170 -0.8535 -1.6517  1.6689
   45DOPE   H6S 5723   1.600   1.926  12.243 -1.5636  1.7525  2.0444
   45DOPE   C27 5724   1.613   2.137  12.251  0.4380 -0.8025  0.6559
   45DOPE   H7R 5725   1.506   2.166  12.246  0.1764 -1.8020 -0.0651
   45DOPE   H7S 5726   1.667   2.213  12.189 -0.0910 -1.6626 -0.9179
   45DOPE   C28 5727   1.653   2.130  12.404  0.9919 -0.3130  0.1547
   45DOPE   H8R 5728   1.657   2.231  12.449  1.7788 -0.3620  0.2014
   45DOPE   H8S 5729   1.756   2.088  12.409  0.7209 -0.9664  0.3933
   45DOPE   C29 5730   1.553   2.037  12.470  0.2975 -0.6802  0.3019
   45DOPE   H9R 5731   1.451   2.059  12.433  0.9714 -1.7892 -2.4417
   45DOPE  C210 5732   1.569   1.938  12.556 -0.3827  0.3026 -0.0071
   45DOPE  H10R 5733   1.487   1.874  12.592  1.1064 -0.6098  1.9448
   45DOPE  C211 5734   1.703   1.875  12.591 -0.1065  0.2922  0.8508
   45DOPE  H11R 5735   1.777   1.921  12.522 -1.5242 -0.3281 -1.1470
   45DOPE  H11S 5736   1.701   1.765  12.577  2.0562  0.4155 -1.1599
   45DOPE  C212 5737   1.766   1.908  12.727 -0.4029  0.4427 -0.7103
   45DOPE  H12R 5738   1.754   2.018  12.736  0.8012  0.5603 -0.3266
   45DOPE  H12S 5739   1.876   1.898  12.716 -0.3732 -0.3851  0.1919
   45DOPE  C213 5740   1.713   1.842  12.857  0.4814  0.1237  1.0927
   45DOPE  H13R 5741   1.715   1.732  12.847  0.5451  0.2573 -0.6826
   45DOPE  H13S 5742   1.604   1.860  12.853  0.3585 -0.7477  0.0236
   45DOPE  C214 5743   1.768   1.894  12.989 -0.3609 -0.7401  0.4697
   45DOPE  H14R 5744   1.723   1.987  13.029  0.5535 -0.4500  0.8754
   45DOPE  H14S 5745   1.879   1.905  12.980 -0.5440 -0.3558 -2.2138
   45DOPE  C215 5746   1.733   1.806  13.108 -0.0905  0.5380 -0.0430
   45DOPE  H15R 5747   1.783   1.709  13.092  0.0154  0.3698  1.1776
   45DOPE  H15S 5748   1.627   1.782  13.085  0.6843 -2.6286 -0.7138
   45DOPE  C216 5749   1.778   1.850  13.255  0.1264 -0.2913  0.0857
   45DOPE  H16R 5750   1.717   1.786  13.322  1.5010  0.2842  1.9834
   45DOPE  H16S 5751   1.742   1.955  13.263  1.4100  0.0885  1.3941
   45DOPE  C217 5752   1.933   1.856  13.265  0.3156  0.0005 -0.0011
   45DOPE  H17R 5753   1.971   1.938  13.200 -0.5087 -1.4141 -2.4249
   45DOPE  H17S 5754   1.982   1.762  13.228 -0.3060 -0.4399  0.2756
   45DOPE  C218 5755   1.981   1.884  13.406  0.2004  0.5680  0.4835
   45DOPE  H18R 5756   1.911   1.948  13.464 -0.1177  0.3061  0.3947
   45DOPE  H18S 5757   2.077   1.939  13.401  1.9078 -2.2991 -2.1298
   45DOPE  H18T 5758   1.987   1.790  13.465  0.3006 -1.4204 -2.4815
   45DOPE   C33 5759   1.282   2.455  12.244 -0.4716 -0.5332 -0.3272
   45DOPE   H3X 5760   1.270   2.563  12.270 -1.8302 -0.7223 -0.0886
   45DOPE   H3Y 5761   1.382   2.429  12.206 -0.7303  1.2966 -2.4350
   45DOPE   C34 5762   1.266   2.374  12.374  0.4603 -0.1401  0.4092
   45DOPE   H4X 5763   1.159   2.367  12.403  0.0001 -0.5636 -1.2728
   45DOPE   H4Y 5764   1.288   2.269  12.348  0.0189  0.1113 -1.1254
   45DOPE   C35 5765   1.361   2.415  12.482 -0.8309  0.0705 -0.0904
   45DOPE   H5X 5766   1.356   2.523  12.509  0.4473 -0.0414  0.6723
   45DOPE   H5Y 5767   1.460   2.407  12.432  0.0660  1.3630  1.4034
   45DOPE   C36 5768   1.350   2.328  12.606  0.1911 -0.3535  0.1980
   45DOPE   H6X 5769   1.354   2.224  12.566 -0.1049 -0.5005  0.5435
   45DOPE   H6Y 5770   1.253   2.330  12.661 -0.9899 -1.5707 -1.6900
   45DOPE   C37 5771   1.475   2.349  12.693 -0.3515 -0.6027 -0.2332
   45DOPE   H7X 5772   1.562   2.310  12.635  0.5027 -3.3228  2.5989
   45DOPE   H7Y 5773   1.491   2.458  12.706  0.2294 -0.8341  1.0579
   45DOPE   C38 5774   1.463   2.257  12.814 -0.5162 -0.2014  0.1123
   45DOPE   H8X 5775   1.560   2.234  12.862 -1.0132 -2.7060  0.0525
   45DOPE   H8Y 5776   1.425   2.157  12.782 -0.0035 -0.3023 -0.2044
   45DOPE   C39 5777   1.384   2.313  12.925 -0.3796 -0.5358 -0.4721
   45DOPE   H9X 5778   1.300   2.372  12.886 -0.7986  0.3854  1.6704
   45DOPE  C310 5779   1.420   2.325  13.058 -0.4459 -0.8774  0.4870
   45DOPE  H10X 5780   1.346   2.375  13.122 -0.8765  2.1981 -2.1474
   45DOPE  C311 5781   1.536   2.283  13.139 -0.7717 -0.6802  0.1825
   45DOPE  H11X 5782   1.616   2.245  13.072  1.8158  0.9516  2.1580
   45DOPE  H11Y 5783   1.579   2.369  13.195 -3.4946  0.9477 -0.0614
   45DOPE  C312 5784   1.502   2.163  13.229 -0.4971 -0.4579 -0.1564
   45DOPE  H12X 5785   1.593   2.133  13.285 -1.2565  0.5129  1.6945
   45DOPE  H12Y 5786   1.467   2.074  13.173 -0.6510 -0.4509 -0.0711
   45DOPE  C313 5787   1.394   2.204  13.336  0.2116 -0.3831  0.5109
   45DOPE  H13X 5788   1.415   2.297  13.392 -1.2275 -0.4729  1.2430
   45DOPE  H13Y 5789   1.299   2.236  13.286  1.4767  0.3223 -1.5859
   45DOPE  C314 5790   1.356   2.098  13.436  0.1063 -0.2786 -0.1878
   45DOPE  H14X 5791   1.325   2.004  13.387 -1.0729  0.4239 -0.8305
   45DOPE  H14Y 5792   1.278   2.122  13.512  0.6394 -1.1951  0.6700
   45DOPE  C315 5793   1.475   2.056  13.530  0.2225 -0.0849 -0.0029
   45DOPE  H15X 5794   1.532   2.142  13.571  1.6069 -0.2972 -1.3824
   45DOPE  H15Y 5795   1.547   1.994  13.472  0.0754  0.4258 -0.7301
   45DOPE  C316 5796   1.421   1.991  13.662  0.4141 -0.0015 -0.0333
   45DOPE  H16X 5797   1.382   1.891  13.635  0.9285 -0.2732  0.2185
   45DOPE  H16Y 5798   1.337   2.045  13.711  0.3057  0.0748 -0.3003
   45DOPE  C317 5799   1.515   1.975  13.780  0.0980  0.3093 -0.3781
   45DOPE  H17X 5800   1.584   1.890  13.764  1.2825  0.6424  2.3542
   45DOPE  H17Y 5801   1.577   2.066  13.795 -0.2166  0.2677  1.4016
   45DOPE  C318 5802   1.440   1.933  13.911  0.1740 -0.0638 -0.8205
   45DOPE  H18X 5803   1.361   2.007  13.937  1.2769  0.3858  1.6032
   45DOPE  H18Y 5804   1.385   1.838  13.897 -0.6282  0.5595 -2.0734
   45DOPE  H18Z 5805   1.510   1.933  13.997 -0.9102  1.7735  0.1272
   46DOPE     N 5806   1.898   0.177  11.481  0.4467 -0.1100 -0.1007
   46DOPE   HN1 5807   1.808   0.172  11.533  0.1544 -1.3425 -0.6881
   46DOPE   HN2 5808   1.877   0.179  11.379 -0.6905  2.0908  0.1321
   46DOPE   HN3 5809   1.958   0.098  11.513 -1.9753 -0.7386  3.4531
   46DOPE   C12 5810   1.942   0.323  11.502 -0.0103 -0.7961  0.2328
   46DOPE  H12A 5811   2.052   0.331  11.488 -0.1565  2.5531  0.3418
   46DOPE  H12B 5812   1.919   0.344  11.609 -0.5637 -1.2417  0.2073
   46DOPE   C11 5813   1.869   0.425  11.416 -0.0207 -0.1387  0.1674
   46DOPE  H11A 5814   1.898   0.425  11.308  1.8209  0.3729  0.6200
   46DOPE  H11B 5815   1.894   0.522  11.465 -0.2174 -0.5672  1.1416
   46DOPE     P 5816   1.619   0.465  11.498  0.2501  0.0029 -0.3250
   46DOPE   O13 5817   1.497   0.381  11.494 -0.0285 -0.1058  0.6177
   46DOPE   O14 5818   1.623   0.609  11.464  0.2749 -1.1285 -0.1829
   46DOPE   O11 5819   1.686   0.447  11.641  0.2614  0.1395 -0.6130
   46DOPE   O12 5820   1.731   0.401  11.413  0.0063  0.2814  0.1627
   46DOPE    C1 5821   1.646   0.535  11.753 -0.8054  0.5366 -0.0337
   46DOPE    HA 5822   1.540   0.511  11.777 -0.9296  1.3024  0.2235
   46DOPE    HB 5823   1.661   0.643  11.730 -0.0064  0.0616 -2.0018
   46DOPE    C2 5824   1.743   0.492  11.875 -0.6020 -0.4628 -0.5011
   46DOPE    HS 5825   1.736   0.565  11.958  1.0969 -1.0176  0.1799
   46DOPE   O21 5826   1.882   0.485  11.834  0.3025 -1.0492  0.0695
   46DOPE   C21 5827   1.928   0.602  11.794  0.4857  0.0103 -0.0822
   46DOPE   O22 5828   1.878   0.709  11.787  0.0086 -0.6013  0.7870
   46DOPE   C22 5829   2.072   0.577  11.744  0.1430 -0.0421 -0.5792
   46DOPE   H2R 5830   2.061   0.533  11.643  1.0276  0.2161 -0.7911
   46DOPE   H2S 5831   2.117   0.497  11.806  0.8175 -0.4000 -1.5142
   46DOPE    C3 5832   1.694   0.353  11.939 -0.1608  0.4900  0.0151
   46DOPE    HX 5833   1.764   0.333  12.023  0.4245 -0.4961 -0.7018
   46DOPE    HY 5834   1.707   0.286  11.852  0.5922  1.3466 -0.5552
   46DOPE   O31 5835   1.556   0.365  11.985  0.1887 -0.2508  0.0926
   46DOPE   C31 5836   1.514   0.248  12.031 -0.3698 -0.4463  0.1129
   46DOPE   O32 5837   1.582   0.145  12.041 -0.5538  0.6618 -0.2856
   46DOPE   C32 5838   1.366   0.264  12.063 -0.4139 -0.1347 -0.3027
   46DOPE   H2X 5839   1.345   0.367  12.097  0.9825 -0.3085  1.2106
   46DOPE   H2Y 5840   1.327   0.255  11.959  2.3529  3.2649 -1.8366
   46DOPE   C23 5841   2.150   0.704  11.735  0.7014 -0.8854 -0.0130
   46DOPE   H3R 5842   2.102   0.773  11.662 -0.3117 -0.7152  0.7822
   46DOPE   H3S 5843   2.243   0.675  11.682 -0.0567 -1.4441 -1.0573
   46DOPE   C24 5844   2.182   0.772  11.870  0.6950  0.0919 -0.1604
   46DOPE   H4R 5845   2.080   0.789  11.912 -0.0076 -2.3927 -0.6811
   46DOPE   H4S 5846   2.230   0.869  11.845  0.6884  0.1485  0.0501
   46DOPE   C25 5847   2.277   0.687  11.949  0.5154 -0.4435 -0.0240
   46DOPE   H5R 5848   2.371   0.680  11.890  2.0612  4.0347  1.4871
   46DOPE   H5S 5849   2.241   0.586  11.977  3.5429 -0.9981  2.4923
   46DOPE   C26 5850   2.317   0.759  12.083  0.4621  0.2528  0.1154
   46DOPE   H6R 5851   2.227   0.761  12.149  2.2971  0.8747  2.7707
   46DOPE   H6S 5852   2.355   0.862  12.066  1.3001 -0.1865 -0.7509
   46DOPE   C27 5853   2.434   0.694  12.157  0.3510 -0.7507  0.5499
   46DOPE   H7R 5854   2.526   0.704  12.096  1.4297  0.5956  2.3300
   46DOPE   H7S 5855   2.413   0.586  12.174  0.1469 -0.8581 -0.3296
   46DOPE   C28 5856   2.460   0.761  12.292  0.0122  0.4227 -0.0212
   46DOPE   H8R 5857   2.486   0.866  12.268  2.8030 -0.2367 -0.2633
   46DOPE   H8S 5858   2.554   0.721  12.336 -0.1234 -0.8815 -0.8684
   46DOPE   C29 5859   2.347   0.762  12.390 -0.1092  0.4248  0.5543
   46DOPE   H9R 5860   2.258   0.807  12.344  0.8769 -0.5453 -2.5397
   46DOPE  C210 5861   2.335   0.701  12.512 -0.8562 -0.4844  0.3847
   46DOPE  H10R 5862   2.233   0.697  12.554 -2.3790 -2.5239 -3.0984
   46DOPE  C211 5863   2.433   0.609  12.578 -0.1439 -0.6048 -0.4173
   46DOPE  H11R 5864   2.500   0.565  12.502  1.0011 -0.9068  0.7429
   46DOPE  H11S 5865   2.378   0.522  12.620 -0.8633 -0.2872 -0.6826
   46DOPE  C212 5866   2.519   0.688  12.688 -0.1383  0.1507 -0.0599
   46DOPE  H12R 5867   2.449   0.713  12.771  3.0258 -1.4239  3.3285
   46DOPE  H12S 5868   2.566   0.776  12.638 -0.4249 -0.2891 -1.1420
   46DOPE  C213 5869   2.641   0.608  12.741  0.5858 -0.3687  0.7910
   46DOPE  H13R 5870   2.712   0.674  12.796 -0.8274  0.9470  1.1044
   46DOPE  H13S 5871   2.692   0.571  12.650  0.4832 -0.0105  0.5882
   46DOPE  C214 5872   2.592   0.501  12.842  0.0991 -0.7804  0.4108
   46DOPE  H14R 5873   2.688   0.447  12.855  0.4182 -0.7603 -1.5117
   46DOPE  H14S 5874   2.509   0.439  12.802  0.1262 -1.1093  0.8503
   46DOPE  C215 5875   2.544   0.554  12.974 -0.0331 -0.1170 -0.5443
   46DOPE  H15R 5876   2.447   0.607  12.969 -1.0142 -1.8268 -0.2868
   46DOPE  H15S 5877   2.619   0.618  13.026  0.5939 -1.8959  0.8612
   46DOPE  C216 5878   2.532   0.441  13.083  0.1976  0.5952  0.8360
   46DOPE  H16R 5879   2.637   0.407  13.094  0.8409  0.7751 -3.2679
   46DOPE  H16S 5880   2.471   0.355  13.050 -0.2449  1.9997 -2.4238
   46DOPE  C217 5881   2.472   0.496  13.220 -0.1158  0.1233  0.1137
   46DOPE  H17R 5882   2.465   0.411  13.291 -0.9884 -1.0873 -1.3612
   46DOPE  H17S 5883   2.367   0.526  13.200 -0.0922  0.2556  0.1875
   46DOPE  C218 5884   2.548   0.607  13.294  0.4619  0.8806 -0.0549
   46DOPE  H18R 5885   2.579   0.681  13.217 -3.0027  1.3282 -1.1750
   46DOPE  H18S 5886   2.643   0.574  13.342 -1.1866  0.2396  3.0384
   46DOPE  H18T 5887   2.479   0.657  13.365  0.1439  0.1538  0.1651
   46DOPE   C33 5888   1.310   0.161  12.179 -0.1286 -1.3711  0.8626
   46DOPE   H3X 5889   1.308   0.056  12.141  1.8289 -1.1841  0.1492
   46DOPE   H3Y 5890   1.203   0.187  12.195 -0.3410 -1.0770 -0.8470
   46DOPE   C34 5891   1.384   0.164  12.315 -0.2310 -0.4621  0.2483
   46DOPE   H4X 5892   1.491   0.139  12.304  0.5030  3.2482 -4.7044
   46DOPE   H4Y 5893   1.369   0.264  12.361  0.6808  0.0485 -0.5360
   46DOPE   C35 5894   1.316   0.066  12.413 -0.3760  0.4915  0.3485
   46DOPE   H5X 5895   1.314  -0.026  12.350 -1.1440  0.6938  0.0797
   46DOPE   H5Y 5896   1.213   0.093  12.442 -0.5671 -0.7533  0.9444
   46DOPE   C36 5897   1.402   0.050  12.543  0.5023  0.4040 -0.5008
   46DOPE   H6X 5898   1.365   0.121  12.620 -0.7073  0.5523 -1.1958
   46DOPE   H6Y 5899   1.509   0.075  12.529  0.3000  0.4241 -2.1859
   46DOPE   C37 5900   1.405  -0.095  12.597 -0.1579 -0.0248 -0.0623
   46DOPE   H7X 5901   1.298  -0.122  12.611 -0.6623  1.2663 -1.1199
   46DOPE   H7Y 5902   1.452  -0.164  12.524  0.7455  0.5411 -0.0328
   46DOPE   C38 5903   1.466  -0.121  12.731  0.0842 -0.2361 -0.2531
   46DOPE   H8X 5904   1.424  -0.214  12.774  0.1993  0.0959  0.6006
   46DOPE   H8Y 5905   1.424  -0.045  12.801  0.1207  0.4945 -1.0085
   46DOPE   C39 5906   1.617  -0.115  12.734  0.4034 -1.0920  0.1418
   46DOPE   H9X 5907   1.654  -0.147  12.636 -0.4524 -0.3956 -0.4314
   46DOPE  C310 5908   1.696  -0.090  12.840  0.0488  0.1433  0.1590
   46DOPE  H10X 5909   1.801  -0.075  12.809  0.1927 -2.4142 -0.8231
   46DOPE  C311 5910   1.662  -0.026  12.972 -0.4691  0.1544  0.2039
   46DOPE  H11X 5911   1.721   0.064  12.999  0.3028 -0.8091  1.8818
   46DOPE  H11Y 5912   1.555   0.005  12.977 -0.3790  0.7990 -1.3251
   46DOPE  C312 5913   1.688  -0.130  13.086  0.1035 -0.2064 -0.4414
   46DOPE  H12X 5914   1.676  -0.080  13.185  0.6207 -0.3988 -0.2805
   46DOPE  H12Y 5915   1.795  -0.155  13.076  0.4832  1.2614 -0.1676
   46DOPE  C313 5916   1.597  -0.256  13.067 -0.6831 -0.5518  0.5377
   46DOPE  H13X 5917   1.496  -0.228  13.033 -1.2466  0.6452  2.9445
   46DOPE  H13Y 5918   1.639  -0.309  12.979 -0.3745  2.9844 -1.6179
   46DOPE  C314 5919   1.594  -0.339  13.196 -0.0128  0.1856  0.5573
   46DOPE  H14X 5920   1.530  -0.426  13.169 -0.1945  0.3763  0.3727
   46DOPE  H14Y 5921   1.542  -0.286  13.278  2.9656  2.2984  1.2355
   46DOPE  C315 5922   1.732  -0.378  13.251 -0.3751  0.4931 -0.1887
   46DOPE  H15X 5923   1.785  -0.290  13.293  0.7742  0.2294 -1.0121
   46DOPE  H15Y 5924   1.796  -0.424  13.173 -0.3942 -0.0338  0.1057
   46DOPE  C316 5925   1.723  -0.481  13.362 -0.1876 -0.3913  0.2387
   46DOPE  H16X 5926   1.659  -0.567  13.332 -3.1602  1.1902  1.6552
   46DOPE  H16Y 5927   1.663  -0.432  13.441  0.1283  1.4999 -0.6547
   46DOPE  C317 5928   1.865  -0.514  13.420 -0.6097  0.2365  0.1864
   46DOPE  H17X 5929   1.929  -0.562  13.343  0.1473 -0.1082  1.0027
   46DOPE  H17Y 5930   1.919  -0.420  13.444 -0.1105  0.2762 -1.0210
   46DOPE  C318 5931   1.863  -0.608  13.547  0.7494 -0.3769 -0.6751
   46DOPE  H18X 5932   1.807  -0.561  13.630 -0.8297  0.7857 -2.3264
   46DOPE  H18Y 5933   1.824  -0.709  13.520  1.4365 -0.7694 -0.2466
   46DOPE  H18Z 5934   1.962  -0.637  13.589 -0.8144 -1.0048  3.0035
   47DOPE     N 5935   6.231   6.416  11.319 -0.0168 -0.2040 -0.3703
   47DOPE   HN1 5936   6.226   6.509  11.366  1.9813  1.6698 -3.4879
   47DOPE   HN2 5937   6.148   6.415  11.257  0.2759 -0.6647 -0.7697
   47DOPE   HN3 5938   6.208   6.339  11.384 -1.3412  1.1251  0.8122
   47DOPE   C12 5939   6.356   6.398  11.239 -0.1784 -0.1860 -0.4832
   47DOPE  H12A 5940   6.434   6.366  11.312 -2.2209  2.8298  3.4185
   47DOPE  H12B 5941   6.388   6.498  11.204  2.7095 -1.1202 -0.8257
   47DOPE   C11 5942   6.341   6.305  11.123  0.4065  0.6718 -0.2729
   47DOPE  H11A 5943   6.334   6.197  11.152  1.5570  0.6204 -0.1443
   47DOPE  H11B 5944   6.432   6.312  11.059 -0.4244 -1.6643 -1.8270
   47DOPE     P 5945   6.162   6.241  10.942 -0.2468  0.2772  0.2104
   47DOPE   O13 5946   6.268   6.204  10.846  0.2566  0.4742 -0.4932
   47DOPE   O14 5947   6.031   6.287  10.889 -0.0568 -0.0576  0.1609
   47DOPE   O11 5948   6.136   6.112  11.021 -0.1336 -0.0252 -0.1850
   47DOPE   O12 5949   6.226   6.334  11.050  0.0207 -0.1503 -0.2486
   47DOPE    C1 5950   6.015   6.084  11.097 -0.0980  0.1647 -0.2483
   47DOPE    HA 5951   5.962   5.991  11.069 -3.7226  2.5855 -2.1817
   47DOPE    HB 5952   5.942   6.167  11.088 -1.4189 -0.7671  1.3534
   47DOPE    C2 5953   6.060   6.058  11.245 -0.0098  0.4795 -0.1433
   47DOPE    HS 5954   6.122   6.144  11.277 -1.2543  1.4254 -0.2049
   47DOPE   O21 5955   6.128   5.923  11.260 -0.6997 -0.4345  0.6001
   47DOPE   C21 5956   6.238   5.924  11.339  0.3482  0.8345 -0.4790
   47DOPE   O22 5957   6.279   6.019  11.392  0.0287  0.3543 -0.5173
   47DOPE   C22 5958   6.306   5.785  11.338 -0.3812 -0.5848 -0.4684
   47DOPE   H2R 5959   6.359   5.772  11.241 -0.4494 -4.3398 -0.1627
   47DOPE   H2S 5960   6.228   5.706  11.331 -1.2463  0.3024 -1.0761
   47DOPE    C3 5961   5.942   6.072  11.351 -0.3879  0.2189  0.2179
   47DOPE    HX 5962   5.861   5.999  11.329 -0.3181  0.0784  0.4189
   47DOPE    HY 5963   5.890   6.169  11.337 -3.2138 -1.3218 -0.7214
   47DOPE   O31 5964   5.984   6.046  11.488  0.2083  0.8772 -0.0226
   47DOPE   C31 5965   6.050   6.150  11.555  0.4622  0.4536  0.4427
   47DOPE   O32 5966   6.108   6.239  11.496  0.5938 -0.0066  0.1989
   47DOPE   C32 5967   6.056   6.113  11.698 -0.3037 -0.0527 -0.1130
   47DOPE   H2X 5968   5.954   6.094  11.738 -0.3075 -0.2962 -0.2404
   47DOPE   H2Y 5969   6.122   6.024  11.700 -1.3016 -0.8658 -1.5245
   47DOPE   C23 5970   6.421   5.756  11.443 -0.8510 -0.8983 -0.6111
   47DOPE   H3R 5971   6.484   5.848  11.444 -2.0615  0.1428 -4.4728
   47DOPE   H3S 5972   6.479   5.669  11.405  0.8451 -0.8474  1.6282
   47DOPE   C24 5973   6.375   5.708  11.576  0.4332  0.0240  0.2415
   47DOPE   H4R 5974   6.357   5.600  11.558  2.8085 -0.1541 -1.6687
   47DOPE   H4S 5975   6.281   5.759  11.606  0.1005 -0.4764  0.0679
   47DOPE   C25 5976   6.482   5.727  11.687  0.4301 -0.5684  0.3451
   47DOPE   H5R 5977   6.486   5.836  11.711 -0.1659 -0.5145  0.2142
   47DOPE   H5S 5978   6.583   5.701  11.650  0.8399  0.3899  0.7430
   47DOPE   C26 5979   6.443   5.642  11.810 -0.4400  0.1330 -0.5166
   47DOPE   H6R 5980   6.429   5.535  11.781 -2.8082  0.1865  0.2514
   47DOPE   H6S 5981   6.342   5.674  11.843  0.1713  0.9599  0.6166
   47DOPE   C27 5982   6.548   5.641  11.924 -0.2490  0.4926 -0.3355
   47DOPE   H7R 5983   6.570   5.744  11.959  0.6391  0.0947  0.3012
   47DOPE   H7S 5984   6.639   5.604  11.873 -0.8005  0.4710 -1.3322
   47DOPE   C28 5985   6.522   5.551  12.043 -0.1716  0.1162 -1.1255
   47DOPE   H8R 5986   6.606   5.571  12.114  0.6062 -1.8145 -1.4415
   47DOPE   H8S 5987   6.531   5.444  12.014  1.5612  0.6467 -2.7521
   47DOPE   C29 5988   6.383   5.585  12.093 -0.2791 -0.0038  0.3535
   47DOPE   H9R 5989   6.307   5.593  12.014  1.8411  1.3285 -1.6541
   47DOPE  C210 5990   6.346   5.595  12.223 -0.0239 -0.3339  0.4407
   47DOPE  H10R 5991   6.239   5.616  12.233 -0.5750 -1.0778 -2.7044
   47DOPE  C211 5992   6.433   5.574  12.349  0.7819 -0.3935  0.4020
   47DOPE  H11R 5993   6.519   5.645  12.356  0.4525 -0.0815  1.4256
   47DOPE  H11S 5994   6.473   5.471  12.341  1.0580 -0.2876  0.3869
   47DOPE  C212 5995   6.357   5.595  12.488 -0.1876  0.4439  0.8602
   47DOPE  H12R 5996   6.269   5.527  12.492 -0.8741  1.1243 -1.3688
   47DOPE  H12S 5997   6.319   5.700  12.483 -2.2852 -0.2071  1.8941
   47DOPE  C213 5998   6.452   5.592  12.607 -0.4699 -0.6576 -0.2212
   47DOPE  H13R 5999   6.423   5.658  12.692 -0.9337 -1.6617  0.4219
   47DOPE  H13S 6000   6.547   5.628  12.563 -0.5795 -0.0328  0.0375
   47DOPE  C214 6001   6.478   5.452  12.658  0.2480  0.3962  0.5856
   47DOPE  H14R 6002   6.522   5.384  12.583  1.7812  0.1751  1.6364
   47DOPE  H14S 6003   6.386   5.408  12.702 -0.0603 -0.1694 -0.5786
   47DOPE  C215 6004   6.598   5.444  12.757  0.1127 -0.4298 -0.0871
   47DOPE  H15R 6005   6.690   5.492  12.717 -1.4372  1.9132 -1.0587
   47DOPE  H15S 6006   6.620   5.337  12.778 -0.2803 -0.2591  1.3175
   47DOPE  C216 6007   6.559   5.501  12.894  0.0194  0.3153 -0.6157
   47DOPE  H16R 6008   6.471   5.448  12.937  0.8046 -0.3366  0.2146
   47DOPE  H16S 6009   6.531   5.607  12.876  1.4873  0.9836  0.7972
   47DOPE  C217 6010   6.669   5.492  12.999 -0.1367  0.0434  0.1439
   47DOPE  H17R 6011   6.617   5.534  13.088 -4.1158 -1.2230 -1.3903
   47DOPE  H17S 6012   6.757   5.549  12.962  1.8913 -1.0965  2.8042
   47DOPE  C218 6013   6.705   5.351  13.040  0.0052  0.6572  0.2370
   47DOPE  H18R 6014   6.740   5.295  12.950 -1.0661  2.4522 -1.3942
   47DOPE  H18S 6015   6.619   5.291  13.078  1.4515  0.1390  2.9172
   47DOPE  H18T 6016   6.785   5.344  13.116  0.1680 -0.6261 -0.0326
   47DOPE   C33 6017   6.130   6.215  11.784 -1.2740  0.1651  0.1795
   47DOPE   H3X 6018   6.080   6.314  11.776  0.6224  1.1349 -0.2619
   47DOPE   H3Y 6019   6.236   6.229  11.753 -0.5352 -1.8871  1.5980
   47DOPE   C34 6020   6.137   6.169  11.933  0.5099 -0.1386  0.8126
   47DOPE   H4X 6021   6.029   6.154  11.954  0.5015 -1.0984  0.1734
   47DOPE   H4Y 6022   6.191   6.075  11.960 -1.5350 -2.2718 -1.8733
   47DOPE   C35 6023   6.184   6.273  12.027 -0.2896  0.7264  0.5953
   47DOPE   H5X 6024   6.118   6.356  11.993 -0.7791 -0.5177 -1.6644
   47DOPE   H5Y 6025   6.289   6.295  11.998  0.4803 -2.0146  1.0297
   47DOPE   C36 6026   6.168   6.240  12.179 -0.1055  0.0608  0.0774
   47DOPE   H6X 6027   6.235   6.160  12.216  1.9457  1.8228  0.3038
   47DOPE   H6Y 6028   6.062   6.212  12.197  0.3451 -2.1404 -0.3668
   47DOPE   C37 6029   6.197   6.360  12.269 -0.0750 -0.2105  0.6351
   47DOPE   H7X 6030   6.297   6.391  12.230 -0.0585  0.9579  1.5577
   47DOPE   H7Y 6031   6.124   6.443  12.251  0.5336  0.3562  0.7308
   47DOPE   C38 6032   6.206   6.332  12.418  0.0712 -0.7174  0.0665
   47DOPE   H8X 6033   6.288   6.399  12.451 -0.9556  0.4581  0.3147
   47DOPE   H8Y 6034   6.240   6.228  12.436 -0.6495 -1.3663 -2.0203
   47DOPE   C39 6035   6.084   6.349  12.503  0.7322 -0.1505  0.5956
   47DOPE   H9X 6036   5.992   6.294  12.480 -0.2171  1.0683  1.3387
   47DOPE  C310 6037   6.080   6.417  12.617 -0.2208  0.6728  0.0079
   47DOPE  H10X 6038   5.984   6.438  12.668 -1.6290  0.9228 -2.5686
   47DOPE  C311 6039   6.198   6.479  12.682  0.6754 -0.1754 -0.3738
   47DOPE  H11X 6040   6.294   6.430  12.654  1.9718  2.9910 -1.8813
   47DOPE  H11Y 6041   6.216   6.584  12.653  2.3483 -0.2726  0.1852
   47DOPE  C312 6042   6.191   6.468  12.838  1.0129 -0.3039  0.2599
   47DOPE  H12X 6043   6.088   6.481  12.877  0.5552  0.0100 -0.9843
   47DOPE  H12Y 6044   6.266   6.539  12.880 -0.7741  0.3209  2.5610
   47DOPE  C313 6045   6.232   6.329  12.876  0.4589  1.1210  0.4938
   47DOPE  H13X 6046   6.171   6.246  12.835  0.8923 -0.2464  2.4457
   47DOPE  H13Y 6047   6.336   6.306  12.844 -0.1033 -1.3540  0.2382
   47DOPE  C314 6048   6.250   6.309  13.030 -0.1935  0.1765  0.1736
   47DOPE  H14X 6049   6.152   6.283  13.077 -1.0844  1.7676 -0.7454
   47DOPE  H14Y 6050   6.270   6.412  13.065 -0.5787  0.6289 -0.9052
   47DOPE  C315 6051   6.361   6.223  13.065  0.1120 -0.2584 -0.2314
   47DOPE  H15X 6052   6.453   6.258  13.014 -0.6075  2.0358 -0.0919
   47DOPE  H15Y 6053   6.336   6.119  13.034 -0.2311  0.0655 -1.1042
   47DOPE  C316 6054   6.393   6.222  13.220  0.1503  0.8173  0.3423
   47DOPE  H16X 6055   6.420   6.328  13.243  1.2577  0.9521 -1.3766
   47DOPE  H16Y 6056   6.476   6.151  13.239 -2.0604 -2.1817 -0.3829
   47DOPE  C317 6057   6.270   6.172  13.299  0.1995  0.3517 -0.7005
   47DOPE  H17X 6058   6.183   6.234  13.270  0.0729 -0.9275 -3.3362
   47DOPE  H17Y 6059   6.244   6.068  13.272 -0.9325 -0.1504  1.9818
   47DOPE  C318 6060   6.301   6.165  13.452  0.8473  0.3773 -0.3041
   47DOPE  H18X 6061   6.218   6.141  13.521 -0.3617  1.9604 -1.1431
   47DOPE  H18Y 6062   6.377   6.088  13.478  1.8693  1.7521  0.9676
   47DOPE  H18Z 6063   6.344   6.260  13.489  0.2415 -0.0208  1.4881
   48DOPE     N 6064   5.531   1.802  11.323  0.4394  0.8406 -0.0463
   48DOPE   HN1 6065   5.583   1.884  11.287  0.2890  1.0126  0.1260
   48DOPE   HN2 6066   5.497   1.820  11.420 -0.1900  1.9372 -0.4507
   48DOPE   HN3 6067   5.597   1.721  11.320 -1.9381 -1.2685  0.3123
   48DOPE   C12 6068   5.421   1.772  11.225 -0.1769 -0.3159 -0.1866
   48DOPE  H12A 6069   5.352   1.701  11.275 -0.5891 -1.1033 -1.7816
   48DOPE  H12B 6070   5.466   1.723  11.136  0.2864 -2.8374  1.3322
   48DOPE   C11 6071   5.342   1.907  11.196 -0.6924  0.9989  0.5899
   48DOPE  H11A 6072   5.287   1.872  11.106  1.6208 -2.0858  0.2203
   48DOPE  H11B 6073   5.409   1.984  11.152 -1.2539  0.2117 -1.7949
   48DOPE     P 6074   5.187   2.090  11.292 -0.1996  0.0527  0.1757
   48DOPE   O13 6075   5.043   2.063  11.282 -0.1235 -0.1197  0.9233
   48DOPE   O14 6076   5.251   2.159  11.179  0.3390 -0.0131  0.0158
   48DOPE   O11 6077   5.227   2.165  11.421 -0.0634  0.2127 -0.1340
   48DOPE   O12 6078   5.265   1.945  11.310  0.0185  0.0592 -0.0898
   48DOPE    C1 6079   5.239   2.083  11.535 -0.2320 -0.0491 -0.5418
   48DOPE    HA 6080   5.323   2.011  11.526 -1.3110 -1.4506  0.3475
   48DOPE    HB 6081   5.147   2.023  11.547 -1.0840  1.3812  0.4248
   48DOPE    C2 6082   5.261   2.155  11.671 -0.1216  0.1220 -0.0264
   48DOPE    HS 6083   5.265   2.079  11.752  0.8734 -0.4139 -0.5574
   48DOPE   O21 6084   5.148   2.239  11.689  0.5707 -0.1949 -0.0725
   48DOPE   C21 6085   5.136   2.278  11.818 -0.6480  0.0770 -0.2030
   48DOPE   O22 6086   5.176   2.220  11.920 -0.0178  0.4873  0.0377
   48DOPE   C22 6087   5.049   2.403  11.825  0.9962  0.5801  0.0154
   48DOPE   H2R 6088   4.956   2.384  11.884  1.0936 -0.7747 -0.2157
   48DOPE   H2S 6089   5.022   2.418  11.718  1.5490 -0.3735 -0.2746
   48DOPE    C3 6090   5.394   2.242  11.671 -0.2097 -0.3701  0.7358
   48DOPE    HX 6091   5.380   2.334  11.611  1.3905 -0.7107 -0.2266
   48DOPE    HY 6092   5.468   2.186  11.609 -1.6609  1.5102 -3.0278
   48DOPE   O31 6093   5.440   2.279  11.801  0.6874  0.7061  0.1674
   48DOPE   C31 6094   5.508   2.172  11.865  0.2907  0.1095  0.0210
   48DOPE   O32 6095   5.555   2.078  11.799  0.0646 -0.8088 -0.5168
   48DOPE   C32 6096   5.501   2.180  12.015  0.0379  0.1683 -0.3393
   48DOPE   H2X 6097   5.602   2.217  12.044 -0.0559 -1.2630  2.1046
   48DOPE   H2Y 6098   5.422   2.249  12.050 -0.0765  0.2580 -0.7711
   48DOPE   C23 6099   5.120   2.519  11.889 -0.3697 -0.2048 -0.7253
   48DOPE   H3R 6100   5.209   2.537  11.825 -0.8247  1.2139 -1.0033
   48DOPE   H3S 6101   5.152   2.487  11.990 -4.7232 -1.5353  0.4450
   48DOPE   C24 6102   5.042   2.648  11.897  0.0410  0.3190 -0.0325
   48DOPE   H4R 6103   4.990   2.653  11.799 -0.5850  0.0220  0.2818
   48DOPE   H4S 6104   5.108   2.737  11.907  1.3050 -0.7916  2.2337
   48DOPE   C25 6105   4.944   2.654  12.021 -0.3605 -0.8201 -0.4695
   48DOPE   H5R 6106   4.994   2.706  12.106  0.7470 -2.2180 -0.2138
   48DOPE   H5S 6107   4.949   2.547  12.052  2.7804 -0.6778 -0.1557
   48DOPE   C26 6108   4.804   2.701  11.992 -0.5763 -0.7713  0.3473
   48DOPE   H6R 6109   4.724   2.644  12.044  0.7527 -2.4079  0.6917
   48DOPE   H6S 6110   4.783   2.673  11.887 -3.3562  3.7263 -0.5853
   48DOPE   C27 6111   4.796   2.857  11.998 -0.3386  0.3426  0.8189
   48DOPE   H7R 6112   4.731   2.883  11.912 -1.6839 -1.2116  1.3133
   48DOPE   H7S 6113   4.891   2.903  11.964  0.2219 -3.0340 -2.9490
   48DOPE   C28 6114   4.713   2.911  12.118  0.0317 -0.2980  0.0002
   48DOPE   H8R 6115   4.610   2.873  12.100  0.0022  0.8808 -2.6711
   48DOPE   H8S 6116   4.713   3.022  12.107  0.7226 -0.4223 -1.4014
   48DOPE   C29 6117   4.755   2.861  12.250 -0.4417 -0.1020 -0.8846
   48DOPE   H9R 6118   4.751   2.751  12.251 -0.2470 -0.1175  0.5591
   48DOPE  C210 6119   4.807   2.936  12.355  0.4263 -0.1167 -0.1549
   48DOPE  H10R 6120   4.857   2.888  12.441 -0.6786 -1.9238 -0.4638
   48DOPE  C211 6121   4.813   3.087  12.362  1.2072  0.0429 -0.2437
   48DOPE  H11R 6122   4.774   3.133  12.269 -1.4180 -2.3049 -0.4329
   48DOPE  H11S 6123   4.917   3.127  12.367  0.6287  1.7531 -1.1917
   48DOPE  C212 6124   4.726   3.138  12.483  0.0298 -0.0586 -0.4303
   48DOPE  H12R 6125   4.635   3.074  12.473  0.0238 -0.4312  1.5798
   48DOPE  H12S 6126   4.689   3.242  12.480 -1.2221 -0.4403  0.5858
   48DOPE  C213 6127   4.805   3.125  12.613  1.0713 -0.3077  0.0053
   48DOPE  H13R 6128   4.865   3.218  12.624 -0.8159  1.0553 -0.7024
   48DOPE  H13S 6129   4.882   3.045  12.600  0.7423 -0.5672 -0.4114
   48DOPE  C214 6130   4.725   3.121  12.747 -0.7166 -0.1029 -0.5200
   48DOPE  H14R 6131   4.658   3.033  12.749  0.7808 -1.2854  0.6085
   48DOPE  H14S 6132   4.651   3.203  12.742 -2.3866 -1.6357 -1.9184
   48DOPE  C215 6133   4.817   3.122  12.872 -0.2848 -0.6850  0.2011
   48DOPE  H15R 6134   4.868   3.219  12.885 -0.3738 -0.8486  1.9803
   48DOPE  H15S 6135   4.904   3.056  12.851  0.6677  0.3723  0.7321
   48DOPE  C216 6136   4.735   3.088  12.993 -0.6227 -0.3731 -0.5684
   48DOPE  H16R 6137   4.691   2.987  12.980 -1.0393 -0.1059 -1.3175
   48DOPE  H16S 6138   4.655   3.164  13.002  0.0766  0.1678  1.6009
   48DOPE  C217 6139   4.818   3.080  13.124 -0.7775 -0.7478 -0.3756
   48DOPE  H17R 6140   4.749   3.093  13.210 -0.6018 -0.7170 -0.2369
   48DOPE  H17S 6141   4.895   3.160  13.129  2.0764 -3.3573  2.2929
   48DOPE  C218 6142   4.888   2.948  13.162 -0.5173  0.1693  0.4422
   48DOPE  H18R 6143   4.961   2.914  13.085  0.2638  3.0169 -0.2032
   48DOPE  H18S 6144   4.806   2.873  13.169 -0.8158  0.1480 -2.2422
   48DOPE  H18T 6145   4.945   2.945  13.257  1.8462  0.5528 -0.8655
   48DOPE   C33 6146   5.478   2.037  12.076 -0.3846  0.9443 -0.7697
   48DOPE   H3X 6147   5.552   1.963  12.036  1.0210  1.6338  0.4453
   48DOPE   H3Y 6148   5.373   2.004  12.064 -0.5342  1.3335 -0.5372
   48DOPE   C34 6149   5.499   2.031  12.231  0.1274  0.7751 -0.2987
   48DOPE   H4X 6150   5.434   2.111  12.273 -0.5814  0.3462 -0.5673
   48DOPE   H4Y 6151   5.469   1.933  12.273  1.6785  0.6496  0.5897
   48DOPE   C35 6152   5.640   2.063  12.282  0.4652 -0.3914  1.0819
   48DOPE   H5X 6153   5.673   2.159  12.237  0.1176 -1.5529 -1.8955
   48DOPE   H5Y 6154   5.715   1.988  12.250  1.8705  1.1253  0.7293
   48DOPE   C36 6155   5.648   2.091  12.430  0.2051  0.0445  0.5606
   48DOPE   H6X 6156   5.599   2.000  12.471 -1.9829  0.5914 -0.6770
   48DOPE   H6Y 6157   5.591   2.186  12.438  1.1758  0.7623 -0.7219
   48DOPE   C37 6158   5.789   2.109  12.484  0.1759  0.2448 -0.2675
   48DOPE   H7X 6159   5.860   2.034  12.445  1.3049  0.8344  0.6081
   48DOPE   H7Y 6160   5.832   2.208  12.456  2.3571 -0.8874 -1.1136
   48DOPE   C38 6161   5.783   2.099  12.641 -0.6740 -0.0214  0.5482
   48DOPE   H8X 6162   5.891   2.097  12.668 -0.7008  0.0892  0.6671
   48DOPE   H8Y 6163   5.743   1.998  12.666  0.4127 -0.1492  1.8694
   48DOPE   C39 6164   5.711   2.205  12.713 -0.5708 -0.1586 -0.2526
   48DOPE   H9X 6165   5.605   2.221  12.689 -0.5735  2.3076  1.0965
   48DOPE  C310 6166   5.771   2.284  12.806 -0.2925  0.4333  0.3961
   48DOPE  H10X 6167   5.718   2.370  12.851  0.7714 -0.3569  3.3848
   48DOPE  C311 6168   5.915   2.276  12.853 -0.0825  0.2129 -0.3831
   48DOPE  H11X 6169   5.979   2.264  12.763 -0.4353  2.0145 -0.9190
   48DOPE  H11Y 6170   5.945   2.377  12.889  1.6755 -1.0618  2.0157
   48DOPE  C312 6171   5.943   2.187  12.975 -0.4106  0.0209 -0.1624
   48DOPE  H12X 6172   6.054   2.187  12.975 -0.2840  3.6329  1.7501
   48DOPE  H12Y 6173   5.915   2.083  12.946 -3.0337  0.8426 -0.9384
   48DOPE  C313 6174   5.889   2.232  13.112 -0.1777  0.1888 -0.4128
   48DOPE  H13X 6175   5.937   2.329  13.139  1.3041 -0.2582 -1.3207
   48DOPE  H13Y 6176   5.778   2.240  13.107 -0.1296  0.2900 -1.8306
   48DOPE  C314 6177   5.943   2.154  13.237  0.7545  0.4654  0.0772
   48DOPE  H14X 6178   6.035   2.194  13.284  2.6742 -2.1156 -1.2565
   48DOPE  H14Y 6179   5.993   2.069  13.187  0.4151  0.6966 -0.6660
   48DOPE  C315 6180   5.837   2.101  13.335  0.2048  0.4566 -0.0536
   48DOPE  H15X 6181   5.778   2.021  13.284  3.5961 -1.3730 -1.4221
   48DOPE  H15Y 6182   5.767   2.172  13.385  2.4450  2.1933  0.7747
   48DOPE  C316 6183   5.906   2.032  13.455  0.4818  0.4867  0.1032
   48DOPE  H16X 6184   5.982   2.103  13.493  0.5259  0.4356  0.1102
   48DOPE  H16Y 6185   5.958   1.946  13.408 -0.6949  0.6125 -1.5037
   48DOPE  C317 6186   5.809   1.985  13.563  0.1790  0.9614 -0.4191
   48DOPE  H17X 6187   5.746   2.065  13.608 -1.7835  0.2319 -1.7315
   48DOPE  H17Y 6188   5.743   1.909  13.516  1.6095 -0.6232  0.0266
   48DOPE  C318 6189   5.900   1.919  13.670 -0.5918  0.2336 -0.6633
   48DOPE  H18X 6190   5.958   1.837  13.622 -0.3816  1.1203 -1.9719
   48DOPE  H18Y 6191   5.974   1.993  13.705 -0.8706 -0.7663  2.2930
   48DOPE  H18Z 6192   5.844   1.885  13.760  1.0465  1.4606  0.8730
   49DOPE     N 6193   0.252   6.736  11.018  0.1405  0.4041  1.1032
   49DOPE   HN1 6194   0.275   6.701  11.113  0.2637 -1.9994  0.2543
   49DOPE   HN2 6195   0.150   6.727  11.005  0.3897 -0.5411 -0.4063
   49DOPE   HN3 6196   0.288   6.667  10.949  1.6617  1.6095  0.6169
   49DOPE   C12 6197   0.309   6.871  11.012 -0.3990 -0.5451 -0.5708
   49DOPE  H12A 6198   0.332   6.896  10.907  2.4425 -2.0658 -0.4022
   49DOPE  H12B 6199   0.412   6.862  11.053 -0.5446 -1.4244 -0.3654
   49DOPE   C11 6200   0.221   6.984  11.071 -0.1067 -0.6667 -0.0863
   49DOPE  H11A 6201   0.283   7.075  11.066 -1.2125  0.0595 -1.0334
   49DOPE  H11B 6202   0.193   6.949  11.173 -1.0526 -0.6514 -0.3316
   49DOPE     P 6203   0.044   7.137  10.954  0.2739  0.1190 -0.1110
   49DOPE   O13 6204  -0.094   7.132  10.908 -0.4038  0.4808  0.2272
   49DOPE   O14 6205   0.128   7.215  10.865  0.6889 -0.0267  0.6974
   49DOPE   O11 6206   0.048   7.211  11.099  0.5009 -0.1794 -0.4528
   49DOPE   O12 6207   0.102   6.995  10.993  0.0052  0.6867  0.2419
   49DOPE    C1 6208   0.133   7.322  11.116 -0.3581  0.3081  0.0070
   49DOPE    HA 6209   0.108   7.403  11.044 -0.9059  0.9420  0.8914
   49DOPE    HB 6210   0.240   7.295  11.111  0.1400  2.0411  0.7451
   49DOPE    C2 6211   0.110   7.394  11.254 -0.3139 -0.4773 -0.3383
   49DOPE    HS 6212   0.193   7.465  11.274 -1.5714  0.9073  0.1450
   49DOPE   O21 6213   0.090   7.297  11.359  0.4279 -0.0814  0.2605
   49DOPE   C21 6214   0.192   7.251  11.416  0.5487 -0.3746 -0.2412
   49DOPE   O22 6215   0.305   7.272  11.379 -0.6727 -0.1718 -0.2400
   49DOPE   C22 6216   0.146   7.158  11.536  0.5164  0.3624 -0.1112
   49DOPE   H2R 6217   0.117   7.058  11.499 -2.2043  1.4238 -1.1352
   49DOPE   H2S 6218   0.060   7.206  11.589  2.0628  1.4138  1.5647
   49DOPE    C3 6219  -0.019   7.481  11.256 -0.5301 -0.3766  0.5210
   49DOPE    HX 6220  -0.100   7.421  11.210 -0.0197 -0.0519 -0.8472
   49DOPE    HY 6221  -0.010   7.569  11.189 -0.0753  0.8928  2.1506
   49DOPE   O31 6222  -0.053   7.532  11.387 -0.2959 -0.2383 -0.4793
   49DOPE   C31 6223  -0.144   7.470  11.464  0.3376  0.4227 -0.1291
   49DOPE   O32 6224  -0.204   7.366  11.444  0.2992 -0.4494 -0.0778
   49DOPE   C32 6225  -0.152   7.539  11.594 -0.2509 -0.7549  0.5199
   49DOPE   H2X 6226  -0.050   7.533  11.638  1.0782  2.7315 -1.6329
   49DOPE   H2Y 6227  -0.172   7.644  11.565 -1.1026 -0.7098  1.2309
   49DOPE   C23 6228   0.253   7.142  11.644 -0.7290  0.2170  0.0872
   49DOPE   H3R 6229   0.349   7.113  11.595 -0.9462 -1.2192  0.4605
   49DOPE   H3S 6230   0.229   7.068  11.724  0.0020  0.2332  0.3258
   49DOPE   C24 6231   0.285   7.270  11.714  0.1170  0.4558 -0.2414
   49DOPE   H4R 6232   0.192   7.317  11.753  0.9511  0.5975  1.7495
   49DOPE   H4S 6233   0.340   7.332  11.641  0.2671 -1.6236 -1.9996
   49DOPE   C25 6234   0.386   7.253  11.829  0.8554 -0.1875 -0.6914
   49DOPE   H5R 6235   0.474   7.317  11.807  1.5620 -0.5116  1.0417
   49DOPE   H5S 6236   0.418   7.147  11.836 -0.0554 -0.5631 -1.9453
   49DOPE   C26 6237   0.325   7.303  11.963 -0.5005 -0.2823  0.5642
   49DOPE   H6R 6238   0.230   7.248  11.980 -0.5938  0.0871  1.3211
   49DOPE   H6S 6239   0.311   7.413  11.958  0.2357 -0.2149 -0.2940
   49DOPE   C27 6240   0.427   7.293  12.081 -0.1284  0.1117  0.4176
   49DOPE   H7R 6241   0.526   7.333  12.049 -0.9721  4.5598  2.6045
   49DOPE   H7S 6242   0.426   7.189  12.118 -1.5116  0.4494  1.4060
   49DOPE   C28 6243   0.384   7.367  12.212  0.3897 -0.1998  0.0590
   49DOPE   H8R 6244   0.364   7.475  12.197  2.4918  0.3071  0.5608
   49DOPE   H8S 6245   0.474   7.354  12.276  1.6802  1.9948 -1.1770
   49DOPE   C29 6246   0.266   7.313  12.290  0.1205 -0.0764  0.7718
   49DOPE   H9R 6247   0.183   7.276  12.228 -0.2943 -1.8813  2.3298
   49DOPE  C210 6248   0.243   7.312  12.420  0.3744 -0.2057  0.3834
   49DOPE  H10R 6249   0.147   7.273  12.456 -0.9304  0.7495 -1.8754
   49DOPE  C211 6250   0.343   7.353  12.531  0.1568 -0.2136  0.1195
   49DOPE  H11R 6251   0.409   7.436  12.497  1.5047 -0.5132  1.8628
   49DOPE  H11S 6252   0.398   7.263  12.566  0.3409  0.9296  3.0557
   49DOPE  C212 6253   0.271   7.412  12.648  0.3799  0.1819  0.3923
   49DOPE  H12R 6254   0.220   7.330  12.703  1.0326  1.1863  2.6031
   49DOPE  H12S 6255   0.191   7.481  12.613  1.0212  1.4820  1.3836
   49DOPE  C213 6256   0.349   7.476  12.756 -0.0715 -0.0602  0.0232
   49DOPE  H13R 6257   0.289   7.544  12.821 -1.0226 -1.6005  0.8054
   49DOPE  H13S 6258   0.440   7.535  12.732 -0.1339  0.7178  1.5233
   49DOPE  C214 6259   0.398   7.371  12.860 -0.1120 -0.8806 -0.4888
   49DOPE  H14R 6260   0.488   7.323  12.814 -0.3023 -3.6636  1.7865
   49DOPE  H14S 6261   0.311   7.304  12.872 -0.2285 -0.8164 -0.9523
   49DOPE  C215 6262   0.448   7.438  12.991  0.3259 -0.6486  0.4809
   49DOPE  H15R 6263   0.369   7.498  13.042 -1.7308 -2.0109 -0.9752
   49DOPE  H15S 6264   0.522   7.514  12.957 -0.2842 -0.1771  0.2065
   49DOPE  C216 6265   0.499   7.334  13.088  0.3183  0.1444  0.5182
   49DOPE  H16R 6266   0.560   7.257  13.037 -0.2096  0.4697 -0.6510
   49DOPE  H16S 6267   0.410   7.278  13.123 -0.8947 -0.0465 -2.5043
   49DOPE  C217 6268   0.581   7.384  13.213 -0.0006  0.3398  0.0970
   49DOPE  H17R 6269   0.517   7.464  13.255 -1.5995 -2.1947  2.7703
   49DOPE  H17S 6270   0.679   7.433  13.195  0.5434 -0.7005  0.1306
   49DOPE  C218 6271   0.584   7.277  13.318  0.4083  0.0581 -0.5788
   49DOPE  H18R 6272   0.617   7.317  13.417 -2.7811  0.7710  0.3267
   49DOPE  H18S 6273   0.649   7.194  13.283 -1.9609 -3.1306  1.9282
   49DOPE  H18T 6274   0.482   7.236  13.335  0.2901 -0.2127 -1.8929
   49DOPE   C33 6275  -0.268   7.489  11.676  0.6744  0.2508 -0.2504
   49DOPE   H3X 6276  -0.259   7.382  11.703 -0.6735 -0.1728 -1.4044
   49DOPE   H3Y 6277  -0.365   7.498  11.623 -0.3472 -1.4725  1.2191
   49DOPE   C34 6278  -0.287   7.570  11.803 -0.4490  0.1788  0.7466
   49DOPE   H4X 6279  -0.220   7.539  11.886  1.3915  0.0573 -0.7085
   49DOPE   H4Y 6280  -0.269   7.679  11.795 -0.4296  0.2021  1.0997
   49DOPE   C35 6281  -0.428   7.546  11.866  0.2458  0.2075  0.7536
   49DOPE   H5X 6282  -0.452   7.439  11.878  2.5269 -0.3137  1.1404
   49DOPE   H5Y 6283  -0.496   7.593  11.792  0.6625  0.8086  0.7416
   49DOPE   C36 6284  -0.448   7.636  11.985 -0.3362  0.3056  0.2254
   49DOPE   H6X 6285  -0.436   7.745  11.968 -0.1789  0.2912  0.2444
   49DOPE   H6Y 6286  -0.365   7.615  12.055  0.9558  1.8107 -0.7922
   49DOPE   C37 6287  -0.582   7.621  12.061 -0.0350  0.3625  0.1843
   49DOPE   H7X 6288  -0.589   7.687  12.150  0.0783  1.3102 -0.4908
   49DOPE   H7Y 6289  -0.658   7.663  11.991  2.6369  2.6225 -1.5656
   49DOPE   C38 6290  -0.632   7.475  12.106  0.0694  0.3979  0.0307
   49DOPE   H8X 6291  -0.636   7.405  12.020  1.2289  1.2302 -0.7390
   49DOPE   H8Y 6292  -0.738   7.485  12.137  0.6103 -0.6346  2.4319
   49DOPE   C39 6293  -0.547   7.412  12.214  0.5270 -0.4755 -0.1983
   49DOPE   H9X 6294  -0.464   7.353  12.172  1.5119  0.8561 -0.1584
   49DOPE  C310 6295  -0.555   7.427  12.348  0.0859  0.1889 -0.6069
   49DOPE  H10X 6296  -0.503   7.353  12.410 -0.8417 -0.3876 -0.4907
   49DOPE  C311 6297  -0.649   7.523  12.423  0.5660 -0.0850  0.5073
   49DOPE  H11X 6298  -0.672   7.606  12.353  0.8173 -0.4794 -0.0514
   49DOPE  H11Y 6299  -0.748   7.476  12.440  0.4480 -1.6462 -3.3532
   49DOPE  C312 6300  -0.600   7.583  12.557  0.5613 -0.7865  0.0766
   49DOPE  H12X 6301  -0.682   7.655  12.576  1.2948 -0.1679  1.0189
   49DOPE  H12Y 6302  -0.511   7.643  12.528 -1.3795  1.3004 -2.0252
   49DOPE  C313 6303  -0.600   7.487  12.673  0.5207  0.1801 -0.8537
   49DOPE  H13X 6304  -0.694   7.428  12.670 -0.0778  0.9289  1.5326
   49DOPE  H13Y 6305  -0.532   7.402  12.649 -1.0086 -1.1214 -0.7937
   49DOPE  C314 6306  -0.557   7.539  12.814  0.4146  0.6441  0.1589
   49DOPE  H14X 6307  -0.611   7.627  12.855  0.1603  1.0442 -1.0150
   49DOPE  H14Y 6308  -0.451   7.573  12.806  0.0511  1.5006 -1.5144
   49DOPE  C315 6309  -0.569   7.422  12.913 -0.3024  0.2831 -0.0759
   49DOPE  H15X 6310  -0.486   7.349  12.900  0.5789  1.1498  0.6414
   49DOPE  H15Y 6311  -0.665   7.367  12.897 -0.1532 -0.8346  2.4691
   49DOPE  C316 6312  -0.570   7.455  13.061 -0.1027 -0.4973 -0.2655
   49DOPE  H16X 6313  -0.601   7.362  13.114 -1.3384 -0.7720 -1.4101
   49DOPE  H16Y 6314  -0.651   7.526  13.091  0.5338  0.1499 -0.0524
   49DOPE  C317 6315  -0.431   7.500  13.109  0.0982 -0.0352  0.5200
   49DOPE  H17X 6316  -0.366   7.410  13.114  0.3931  0.1525  0.1600
   49DOPE  H17Y 6317  -0.393   7.569  13.030 -3.4350  1.8371  0.2827
   49DOPE  C318 6318  -0.414   7.564  13.252  0.7748 -0.2694  0.8477
   49DOPE  H18X 6319  -0.509   7.619  13.268  0.3140 -1.8566  4.2415
   49DOPE  H18Y 6320  -0.405   7.483  13.327 -1.6337  0.2509  1.7899
   49DOPE  H18Z 6321  -0.328   7.635  13.251 -1.3180  2.5375 -1.9567
   50DOPE     N 6322   6.336   4.725  11.024 -0.4891  0.2482  0.1239
   50DOPE   HN1 6323   6.277   4.701  11.105  1.6662  0.3330  1.8168
   50DOPE   HN2 6324   6.334   4.828  11.013 -1.0248  0.2163 -0.0744
   50DOPE   HN3 6325   6.308   4.694  10.928  1.4649  2.5341 -1.3123
   50DOPE   C12 6326   6.471   4.668  11.051 -0.3530  0.1722  0.2613
   50DOPE  H12A 6327   6.533   4.679  10.960  0.0259 -0.4473  0.4365
   50DOPE  H12B 6328   6.463   4.557  11.062  2.4667 -0.0446  0.7308
   50DOPE   C11 6329   6.531   4.740  11.174 -0.0250  0.0891 -0.6178
   50DOPE  H11A 6330   6.634   4.700  11.187  0.2137  0.9669  0.3966
   50DOPE  H11B 6331   6.469   4.716  11.263  0.3649  2.1082  0.2761
   50DOPE     P 6332   6.610   4.979  11.237 -0.1820  0.1763 -0.0303
   50DOPE   O13 6333   6.594   5.117  11.180  0.9013 -0.2801 -0.4598
   50DOPE   O14 6334   6.747   4.930  11.251  0.2139  0.5799  0.2563
   50DOPE   O11 6335   6.534   4.979  11.381  0.2925 -0.0193  0.0079
   50DOPE   O12 6336   6.532   4.876  11.147  0.3449 -0.5773 -0.4689
   50DOPE    C1 6337   6.389   5.007  11.386  0.6398 -0.4273  0.2630
   50DOPE    HA 6338   6.348   4.968  11.482  0.0180 -2.7309 -0.8736
   50DOPE    HB 6339   6.328   4.958  11.308 -2.3296 -2.1407  3.4042
   50DOPE    C2 6340   6.367   5.162  11.379 -0.0947 -0.9781 -0.1107
   50DOPE    HS 6341   6.380   5.208  11.279  0.4365 -0.8034  0.0365
   50DOPE   O21 6342   6.465   5.224  11.462 -0.2467  0.4592  0.2672
   50DOPE   C21 6343   6.499   5.348  11.431  0.9491  0.4954  0.2806
   50DOPE   O22 6344   6.451   5.412  11.336 -0.0093 -0.0631 -0.2045
   50DOPE   C22 6345   6.579   5.407  11.548 -0.5100  0.3451 -0.6843
   50DOPE   H2R 6346   6.513   5.428  11.635  0.8444 -0.0033  0.4535
   50DOPE   H2S 6347   6.627   5.504  11.520 -0.1157  0.5895  0.7687
   50DOPE    C3 6348   6.228   5.209  11.428  0.3875  0.4307  0.6048
   50DOPE    HX 6349   6.150   5.174  11.356  0.2640  1.6646  0.1182
   50DOPE    HY 6350   6.217   5.319  11.419 -1.2170  0.1514 -2.7311
   50DOPE   O31 6351   6.199   5.163  11.557 -0.7166  0.0271  0.1138
   50DOPE   C31 6352   6.223   5.239  11.663 -0.0806 -0.0613  0.2692
   50DOPE   O32 6353   6.251   5.359  11.656  0.3771  0.0760  0.6371
   50DOPE   C32 6354   6.187   5.161  11.795  0.2729 -0.6946  1.1682
   50DOPE   H2X 6355   6.076   5.169  11.802 -0.1141  1.4124 -3.3947
   50DOPE   H2Y 6356   6.219   5.057  11.774  2.2728 -0.0470  0.7409
   50DOPE   C23 6357   6.688   5.309  11.602 -0.3621  0.5208  0.7644
   50DOPE   H3R 6358   6.757   5.303  11.515 -1.7805 -0.2739 -0.3576
   50DOPE   H3S 6359   6.660   5.204  11.626  0.5697 -0.7910 -3.1037
   50DOPE   C24 6360   6.764   5.374  11.714  0.2304  0.0537  0.1004
   50DOPE   H4R 6361   6.687   5.392  11.792  1.2506  1.2208  0.8693
   50DOPE   H4S 6362   6.810   5.470  11.685  1.6576 -1.0077 -1.3105
   50DOPE   C25 6363   6.881   5.289  11.750  0.3838  0.0949  0.3245
   50DOPE   H5R 6364   6.951   5.296  11.664 -0.1845  2.2876 -0.0008
   50DOPE   H5S 6365   6.847   5.189  11.786  1.8372  0.4928  3.0622
   50DOPE   C26 6366   6.965   5.352  11.866 -0.4050 -0.4196  0.4898
   50DOPE   H6R 6367   6.913   5.364  11.963  0.6126  1.7465  0.8298
   50DOPE   H6S 6368   7.012   5.449  11.839 -1.5492  0.1674  0.5493
   50DOPE   C27 6369   7.089   5.263  11.912 -0.5160  0.6088  0.2160
   50DOPE   H7R 6370   7.128   5.221  11.817 -0.5177 -1.3312  1.0269
   50DOPE   H7S 6371   7.051   5.183  11.979 -1.1012  1.2572  0.6615
   50DOPE   C28 6372   7.211   5.325  11.975  0.5636 -0.1919 -0.1857
   50DOPE   H8R 6373   7.225   5.418  11.917 -1.6908  0.7644  0.6777
   50DOPE   H8S 6374   7.301   5.261  11.968  0.8586  0.0318  1.2006
   50DOPE   C29 6375   7.191   5.364  12.121 -0.4344  0.1686 -0.0166
   50DOPE   H9R 6376   7.153   5.465  12.143  0.6045  0.3749  0.9206
   50DOPE  C210 6377   7.200   5.270  12.224  0.7507 -0.7846  0.7455
   50DOPE  H10R 6378   7.191   5.315  12.324 -1.5064  1.3380 -0.3232
   50DOPE  C211 6379   7.240   5.125  12.223  0.4120  0.3954 -0.1683
   50DOPE  H11R 6380   7.267   5.077  12.127  0.0606  1.3524 -0.7613
   50DOPE  H11S 6381   7.164   5.060  12.272  0.7122  1.4315  1.7850
   50DOPE  C212 6382   7.357   5.112  12.309 -0.8510  0.0740 -0.0177
   50DOPE  H12R 6383   7.432   5.192  12.289 -0.1465 -0.2842  1.0918
   50DOPE  H12S 6384   7.409   5.018  12.279 -0.8864 -0.2433  0.9153
   50DOPE  C213 6385   7.323   5.104  12.461  0.0402  0.5654  0.1840
   50DOPE  H13R 6386   7.237   5.036  12.477  1.6886 -1.0995  2.5566
   50DOPE  H13S 6387   7.294   5.206  12.495 -0.5625  0.2550  0.6199
   50DOPE  C214 6388   7.443   5.057  12.546  0.2399  0.5817 -0.4535
   50DOPE  H14R 6389   7.524   5.132  12.540  1.1096 -0.2478  0.6927
   50DOPE  H14S 6390   7.480   4.964  12.496  0.5374  0.4642 -0.0151
   50DOPE  C215 6391   7.402   5.029  12.695  0.0151  0.0296  0.3399
   50DOPE  H15R 6392   7.315   4.961  12.708  0.0394  0.1266  1.0799
   50DOPE  H15S 6393   7.375   5.121  12.752 -3.3279 -0.8011  0.3219
   50DOPE  C216 6394   7.513   4.956  12.766 -0.3256  0.4724  0.1457
   50DOPE  H16R 6395   7.530   4.861  12.711  1.1779  0.2481  0.9479
   50DOPE  H16S 6396   7.489   4.931  12.872 -1.6529  0.9355 -0.0164
   50DOPE  C217 6397   7.642   5.033  12.775 -0.7779 -0.0187  0.1750
   50DOPE  H17R 6398   7.634   5.129  12.830  1.3445  0.6692 -0.5923
   50DOPE  H17S 6399   7.666   5.071  12.674  1.6536 -0.0144  0.6872
   50DOPE  C218 6400   7.757   4.955  12.846  0.4470 -0.8917  0.2183
   50DOPE  H18R 6401   7.773   4.850  12.811  1.2759 -0.1308 -1.8256
   50DOPE  H18S 6402   7.735   4.963  12.954  0.2467  1.0371  0.0596
   50DOPE  H18T 6403   7.855   5.004  12.824  0.0983  0.0647  0.7447
   50DOPE   C33 6404   6.259   5.220  11.921 -0.7996  0.6081  0.1607
   50DOPE   H3X 6405   6.209   5.316  11.948 -1.4423 -0.3118  2.5050
   50DOPE   H3Y 6406   6.367   5.240  11.905 -0.2849 -1.1016  1.2490
   50DOPE   C34 6407   6.237   5.136  12.045  0.1458  0.2547 -0.0544
   50DOPE   H4X 6408   6.130   5.107  12.051 -0.2134  1.7610  1.5977
   50DOPE   H4Y 6409   6.295   5.041  12.054 -1.1309 -0.5970 -0.5965
   50DOPE   C35 6410   6.286   5.207  12.178 -0.3247 -0.2630  1.2349
   50DOPE   H5X 6411   6.233   5.304  12.186  0.5421  0.4330 -0.6576
   50DOPE   H5Y 6412   6.392   5.239  12.167 -1.2539  3.0872  0.9603
   50DOPE   C36 6413   6.264   5.119  12.304  0.2626 -0.5657 -0.0392
   50DOPE   H6X 6414   6.341   5.039  12.308  1.9661  1.0304  2.3748
   50DOPE   H6Y 6415   6.163   5.077  12.286  0.3872 -0.5467 -0.8055
   50DOPE   C37 6416   6.271   5.202  12.433 -0.0953 -0.4128  0.2854
   50DOPE   H7X 6417   6.369   5.253  12.435  1.3122 -2.9498  0.4189
   50DOPE   H7Y 6418   6.196   5.284  12.436 -0.1107 -0.4315  0.4389
   50DOPE   C38 6419   6.271   5.114  12.560  0.8992 -0.5432 -0.0847
   50DOPE   H8X 6420   6.320   5.172  12.641  1.9294  1.2546 -1.8904
   50DOPE   H8Y 6421   6.351   5.038  12.548  1.0650 -1.1913  3.7216
   50DOPE   C39 6422   6.136   5.063  12.609  0.1453 -0.0060 -0.2065
   50DOPE   H9X 6423   6.066   5.148  12.615  1.1773  1.2128 -3.2934
   50DOPE  C310 6424   6.105   4.937  12.635 -0.2247 -0.3332  0.2226
   50DOPE  H10X 6425   5.999   4.909  12.645 -0.3384 -1.4507 -3.0657
   50DOPE  C311 6426   6.201   4.818  12.639 -0.1483  0.5759 -1.3823
   50DOPE  H11X 6427   6.158   4.729  12.588 -1.2201  0.5220 -0.4365
   50DOPE  H11Y 6428   6.301   4.837  12.595  0.3665  1.2514  0.0469
   50DOPE  C312 6429   6.225   4.775  12.789 -0.1415 -0.4682  0.1969
   50DOPE  H12X 6430   6.253   4.862  12.851  2.9746 -1.8476  0.9182
   50DOPE  H12Y 6431   6.309   4.702  12.794  0.2966  0.0776  0.9599
   50DOPE  C313 6432   6.110   4.701  12.863 -0.3976  0.5714  0.1397
   50DOPE  H13X 6433   6.141   4.674  12.966 -0.7433 -2.3865 -0.4542
   50DOPE  H13Y 6434   6.025   4.771  12.882  0.8737  2.2232 -0.0068
   50DOPE  C314 6435   6.063   4.575  12.792 -0.6224 -0.0668  0.0965
   50DOPE  H14X 6436   6.157   4.519  12.771 -0.7729 -0.6099  0.8036
   50DOPE  H14Y 6437   6.006   4.592  12.699 -0.6142 -0.0098  0.1022
   50DOPE  C315 6438   5.976   4.482  12.884  0.3790  0.2398  0.4215
   50DOPE  H15X 6439   6.037   4.421  12.954 -0.8509 -0.7443  0.6485
   50DOPE  H15Y 6440   5.929   4.411  12.813 -2.6181  0.7776  1.7112
   50DOPE  C316 6441   5.858   4.548  12.962 -0.0698  0.0501 -0.2701
   50DOPE  H16X 6442   5.792   4.596  12.886 -0.6861 -0.7760 -0.2631
   50DOPE  H16Y 6443   5.893   4.629  13.030  1.0561  1.3822 -2.3162
   50DOPE  C317 6444   5.783   4.449  13.047 -0.3759  0.1031  0.8790
   50DOPE  H17X 6445   5.849   4.394  13.118  1.0355  0.3222 -0.2112
   50DOPE  H17Y 6446   5.713   4.504  13.113 -0.6169 -3.3792  3.8135
   50DOPE  C318 6447   5.693   4.352  12.966 -0.1616 -0.0823 -0.1955
   50DOPE  H18X 6448   5.651   4.276  13.035 -0.1831 -0.1500 -0.2828
   50DOPE  H18Y 6449   5.608   4.410  12.925  0.1175 -0.2877 -1.0835
   50DOPE  H18Z 6450   5.748   4.309  12.880  0.2526 -1.4035  0.6991
   51DOPE     N 6451   1.768   1.194  10.980  0.1100 -0.5010 -0.0217
   51DOPE   HN1 6452   1.730   1.157  10.890  0.9756 -1.4086 -0.0252
   51DOPE   HN2 6453   1.726   1.288  10.997  2.2446  0.1662  2.1534
   51DOPE   HN3 6454   1.871   1.208  10.974 -0.1165  1.2012 -0.4276
   51DOPE   C12 6455   1.735   1.120  11.106 -0.0260  0.1773 -0.0285
   51DOPE  H12A 6456   1.787   1.023  11.092 -0.4684 -0.0778  0.0528
   51DOPE  H12B 6457   1.626   1.098  11.118  0.2071 -0.6525  0.6304
   51DOPE   C11 6458   1.796   1.198  11.218 -0.2754 -0.4735 -0.1582
   51DOPE  H11A 6459   1.905   1.206  11.202 -0.1709 -0.1107  0.7000
   51DOPE  H11B 6460   1.790   1.139  11.312  1.7428 -0.2969  0.1199
   51DOPE     P 6461   1.609   1.371  11.296  0.2783  0.2017  0.0062
   51DOPE   O13 6462   1.509   1.272  11.249  0.4247 -0.6028  0.7835
   51DOPE   O14 6463   1.584   1.512  11.251 -0.1022  0.2846  0.4203
   51DOPE   O11 6464   1.636   1.363  11.449 -0.0705  0.0861 -0.1197
   51DOPE   O12 6465   1.743   1.329  11.230  0.0642 -0.3099 -0.4379
   51DOPE    C1 6466   1.720   1.452  11.521 -0.0976  0.1225  0.3686
   51DOPE    HA 6467   1.664   1.496  11.606 -0.3595  1.4471 -0.4624
   51DOPE    HB 6468   1.756   1.538  11.460 -1.0021 -1.2885 -2.3573
   51DOPE    C2 6469   1.849   1.378  11.565  0.3859  0.8271 -0.6173
   51DOPE    HS 6470   1.878   1.323  11.473  2.3487  4.0163 -2.0635
   51DOPE   O21 6471   1.809   1.286  11.662  0.2339  0.4014  0.0223
   51DOPE   C21 6472   1.900   1.193  11.696 -0.0091 -0.4301  0.1772
   51DOPE   O22 6473   2.011   1.183  11.642 -0.0989  0.2676 -0.8583
   51DOPE   C22 6474   1.843   1.086  11.788  0.4650  0.0778 -0.5022
   51DOPE   H2R 6475   1.839   0.980  11.754  0.0698  0.0375 -0.3345
   51DOPE   H2S 6476   1.741   1.122  11.809  1.5193  3.2760 -0.2974
   51DOPE    C3 6477   1.967   1.475  11.601 -0.1274 -0.4226 -0.2244
   51DOPE    HX 6478   2.002   1.525  11.508 -0.2216  0.0471 -0.0151
   51DOPE    HY 6479   2.050   1.415  11.644  1.4171  3.3957  2.6978
   51DOPE   O31 6480   1.917   1.575  11.687 -0.5883  0.1777  0.0798
   51DOPE   C31 6481   1.921   1.539  11.813 -0.1956 -1.5178  0.0104
   51DOPE   O32 6482   1.979   1.438  11.855  0.8836 -0.5205  0.3722
   51DOPE   C32 6483   1.832   1.635  11.901 -0.5085  0.2824 -0.6844
   51DOPE   H2X 6484   1.795   1.717  11.836  2.2975  2.3502  0.1369
   51DOPE   H2Y 6485   1.752   1.566  11.934 -0.3377 -0.8038 -2.4162
   51DOPE   C23 6486   1.924   1.084  11.924  0.0488 -0.8077  0.1239
   51DOPE   H3R 6487   1.913   1.181  11.977  3.2508 -0.7667  0.9671
   51DOPE   H3S 6488   2.035   1.076  11.914  0.2021 -1.7651  2.0578
   51DOPE   C24 6489   1.861   0.980  12.015 -0.3621 -0.0654  0.2915
   51DOPE   H4R 6490   1.860   0.885  11.958 -1.5048  0.6897 -1.0284
   51DOPE   H4S 6491   1.758   1.000  12.052 -0.1078 -1.6814  2.0301
   51DOPE   C25 6492   1.944   0.976  12.144 -0.1791  0.3723  0.0607
   51DOPE   H5R 6493   1.941   1.080  12.184 -0.0381  0.0860  0.8261
   51DOPE   H5S 6494   2.049   0.953  12.115 -0.1271  1.8775 -1.0789
   51DOPE   C26 6495   1.890   0.878  12.255 -0.5374 -0.3973  1.1053
   51DOPE   H6R 6496   1.794   0.910  12.300 -0.0645  0.0417  1.8200
   51DOPE   H6S 6497   1.973   0.890  12.328  0.1259 -0.2452  0.3476
   51DOPE   C27 6498   1.884   0.735  12.193 -0.0718  0.3004 -0.5047
   51DOPE   H7R 6499   1.985   0.713  12.154  0.0281  2.1980 -1.4375
   51DOPE   H7S 6500   1.812   0.723  12.109 -0.7963 -3.4327  0.4408
   51DOPE   C28 6501   1.864   0.628  12.297 -0.0506  0.4176 -0.8771
   51DOPE   H8R 6502   1.773   0.649  12.357  1.0691 -1.7173  1.7869
   51DOPE   H8S 6503   1.947   0.641  12.370 -2.2817  3.0932  1.3985
   51DOPE   C29 6504   1.858   0.497  12.240  0.0435  0.7702  0.2568
   51DOPE   H9R 6505   1.932   0.478  12.161 -0.2160 -0.8301  0.3514
   51DOPE  C210 6506   1.779   0.394  12.275 -0.1468  0.0728 -0.1499
   51DOPE  H10R 6507   1.797   0.296  12.229 -0.3154 -0.1289  0.2055
   51DOPE  C211 6508   1.678   0.393  12.379 -0.0241  0.7026 -0.5797
   51DOPE  H11R 6509   1.584   0.366  12.328 -0.2418  1.6759 -0.7241
   51DOPE  H11S 6510   1.657   0.492  12.425 -3.4860  0.4994 -1.4678
   51DOPE  C212 6511   1.712   0.297  12.494  0.2127  0.3658  0.0444
   51DOPE  H12R 6512   1.741   0.196  12.458  0.7624  0.1309  1.0861
   51DOPE  H12S 6513   1.626   0.276  12.561 -0.3408 -0.9827 -1.0631
   51DOPE  C213 6514   1.827   0.344  12.586  0.1918  0.0906 -0.2080
   51DOPE  H13R 6515   1.798   0.449  12.605  0.1548  0.9496 -4.1611
   51DOPE  H13S 6516   1.925   0.338  12.534  0.9656 -0.0820  1.2204
   51DOPE  C214 6517   1.834   0.258  12.716 -0.0617 -0.3538 -0.0668
   51DOPE  H14R 6518   1.882   0.159  12.697  1.9348  0.0712  2.2367
   51DOPE  H14S 6519   1.739   0.242  12.772 -1.5958  1.0218 -2.1351
   51DOPE  C215 6520   1.939   0.323  12.812 -0.4187  0.5077 -0.0513
   51DOPE  H15R 6521   1.897   0.422  12.839 -1.0350 -0.6145  3.6036
   51DOPE  H15S 6522   2.034   0.341  12.757  0.2664  1.6175  1.4318
   51DOPE  C216 6523   1.970   0.239  12.935  0.5073 -0.3464 -0.0516
   51DOPE  H16R 6524   2.008   0.137  12.912  0.7860 -0.4068  0.6427
   51DOPE  H16S 6525   1.884   0.246  13.006 -0.0220  1.8802 -0.8600
   51DOPE  C217 6526   2.082   0.292  13.017 -0.3167 -0.9637 -0.9897
   51DOPE  H17R 6527   2.075   0.402  13.020  0.4191 -0.8414 -2.5061
   51DOPE  H17S 6528   2.180   0.275  12.967  0.0062  0.3815 -0.8479
   51DOPE  C218 6529   2.094   0.235  13.163  0.7819  0.4381  0.1433
   51DOPE  H18R 6530   2.112   0.126  13.155  0.0386  0.2117  1.3417
   51DOPE  H18S 6531   2.000   0.250  13.221  0.1980 -0.7213 -0.4841
   51DOPE  H18T 6532   2.180   0.287  13.211 -0.2049  1.7625  0.5586
   51DOPE   C33 6533   1.895   1.705  12.023  0.5531 -0.2945  0.8891
   51DOPE   H3X 6534   1.827   1.787  12.055 -0.8352 -1.0896  0.0914
   51DOPE   H3Y 6535   1.991   1.742  11.982 -1.2849 -0.5619 -4.4727
   51DOPE   C34 6536   1.918   1.617  12.143  0.4775 -0.1525 -0.3524
   51DOPE   H4X 6537   1.826   1.559  12.164  1.1297 -1.6012 -1.3177
   51DOPE   H4Y 6538   1.995   1.537  12.133 -0.9599 -1.6949  0.4132
   51DOPE   C35 6539   1.948   1.702  12.265  0.2225 -0.0494 -0.2682
   51DOPE   H5X 6540   1.867   1.775  12.287 -1.2100 -1.5426 -0.4019
   51DOPE   H5Y 6541   2.036   1.766  12.240  0.9805 -0.7819  0.4570
   51DOPE   C36 6542   1.980   1.628  12.398  0.9857 -0.0291  0.0996
   51DOPE   H6X 6543   1.893   1.560  12.412  1.2082 -0.6306 -1.2811
   51DOPE   H6Y 6544   1.980   1.715  12.467 -0.5812  0.6760 -0.7146
   51DOPE   C37 6545   2.106   1.543  12.402  0.6078 -0.6301 -0.0165
   51DOPE   H7X 6546   2.105   1.472  12.316 -1.2077  0.3912 -0.9092
   51DOPE   H7Y 6547   2.196   1.608  12.406  0.4308 -0.2707 -1.2612
   51DOPE   C38 6548   2.106   1.454  12.537  0.0621 -0.1971  0.6982
   51DOPE   H8X 6549   2.198   1.392  12.550 -0.5851 -0.8586  2.3877
   51DOPE   H8Y 6550   2.028   1.375  12.534  1.3040 -1.7261  3.7282
   51DOPE   C39 6551   2.083   1.538  12.659 -0.1102  0.2428  0.7527
   51DOPE   H9X 6552   2.110   1.644  12.651 -0.7136  0.2260 -2.5955
   51DOPE  C310 6553   2.027   1.503  12.772  0.0980 -0.1842  0.2162
   51DOPE  H10X 6554   2.017   1.584  12.846  0.0994  1.4924 -1.5449
   51DOPE  C311 6555   1.997   1.364  12.824 -0.5457  0.3767  0.5372
   51DOPE  H11X 6556   1.922   1.306  12.766 -0.8466  0.6726  0.6300
   51DOPE  H11Y 6557   2.087   1.300  12.809  1.2869  2.9811 -0.2167
   51DOPE  C312 6558   1.957   1.364  12.976 -0.0710  0.0554  0.1500
   51DOPE  H12X 6559   1.943   1.255  12.994 -1.2477  0.0562 -0.6366
   51DOPE  H12Y 6560   1.856   1.409  12.985 -0.4095 -0.1556 -1.9390
   51DOPE  C313 6561   2.065   1.425  13.069 -0.8709  0.4703  0.2066
   51DOPE  H13X 6562   2.167   1.390  13.041 -0.4522  1.8049  0.0291
   51DOPE  H13Y 6563   2.075   1.534  13.052 -0.5559  0.4261  0.1092
   51DOPE  C314 6564   2.039   1.410  13.218  0.2586 -0.1241  0.3783
   51DOPE  H14X 6565   2.044   1.304  13.253 -0.7835 -0.1448  0.5198
   51DOPE  H14Y 6566   1.934   1.446  13.225  0.6583  1.6819 -1.8197
   51DOPE  C315 6567   2.126   1.499  13.319  1.2076  0.3079 -0.3513
   51DOPE  H15X 6568   2.122   1.605  13.286  0.9155  0.1333 -0.8735
   51DOPE  H15Y 6569   2.232   1.471  13.303  1.1967  0.2990 -0.4085
   51DOPE  C316 6570   2.086   1.478  13.471  0.5183 -0.3095 -0.5151
   51DOPE  H16X 6571   2.079   1.370  13.494 -0.0211 -0.6785 -2.2377
   51DOPE  H16Y 6572   1.991   1.534  13.484  1.3703  1.0078  0.1854
   51DOPE  C317 6573   2.192   1.528  13.567  0.4638 -0.5210 -0.0368
   51DOPE  H17X 6574   2.286   1.470  13.557  1.0893  0.6813 -1.6917
   51DOPE  H17Y 6575   2.208   1.636  13.543  1.4746 -1.2084 -2.8408
   51DOPE  C318 6576   2.134   1.527  13.706 -0.9385  0.3452  0.5768
   51DOPE  H18X 6577   2.112   1.423  13.738 -2.5492  0.0194 -1.4094
   51DOPE  H18Y 6578   2.197   1.597  13.765 -1.5573 -0.7522  2.6387
   51DOPE  H18Z 6579   2.048   1.598  13.703 -1.3054 -0.1272 -0.5198
   52DOPE     N 6580   5.575   4.830  10.635  0.1010  0.1191 -0.0504
   52DOPE   HN1 6581   5.528   4.782  10.555 -0.4248  2.5721 -1.3011
   52DOPE   HN2 6582   5.541   4.928  10.642 -0.1696 -0.0457  1.0908
   52DOPE   HN3 6583   5.677   4.840  10.619  0.3146  2.3541  2.1132
   52DOPE   C12 6584   5.569   4.766  10.766  0.1563 -0.4188 -0.4181
   52DOPE  H12A 6585   5.660   4.703  10.778  1.0780  0.6660 -1.4872
   52DOPE  H12B 6586   5.481   4.699  10.763 -0.4771  0.4162 -0.8873
   52DOPE   C11 6587   5.554   4.852  10.897  0.4508  0.3688  0.5432
   52DOPE  H11A 6588   5.649   4.909  10.911  0.4548  0.9804 -1.6765
   52DOPE  H11B 6589   5.545   4.776  10.977  1.7444  0.2746  0.6206
   52DOPE     P 6590   5.431   5.085  10.846  0.4047  0.0904 -0.5520
   52DOPE   O13 6591   5.287   5.126  10.858 -0.5095 -0.0671  0.2513
   52DOPE   O14 6592   5.481   5.077  10.711  0.1796  0.5933  0.1320
   52DOPE   O11 6593   5.528   5.175  10.938  0.5166  0.0683 -0.0725
   52DOPE   O12 6594   5.444   4.941  10.911 -0.1298 -0.0611  0.9181
   52DOPE    C1 6595   5.507   5.155  11.083  0.6257  0.4608  0.2256
   52DOPE    HA 6596   5.408   5.114  11.111  0.3708 -0.2872 -1.5884
   52DOPE    HB 6597   5.511   5.255  11.131  0.1704 -0.6426  2.6990
   52DOPE    C2 6598   5.612   5.073  11.163  0.1073 -0.1147 -0.4130
   52DOPE    HS 6599   5.584   4.965  11.155 -1.8593  0.4000 -0.9698
   52DOPE   O21 6600   5.595   5.116  11.300  0.3750  0.3604  0.1775
   52DOPE   C21 6601   5.497   5.053  11.363 -0.2239 -0.0781 -0.5822
   52DOPE   O22 6602   5.422   4.976  11.308  0.2189 -0.1142  0.3219
   52DOPE   C22 6603   5.503   5.086  11.508 -0.2644  0.4965 -0.2821
   52DOPE   H2R 6604   5.432   5.170  11.518  0.1716  1.1214 -2.1025
   52DOPE   H2S 6605   5.608   5.109  11.537  0.8235 -3.2907 -0.6884
   52DOPE    C3 6606   5.756   5.095  11.120  0.1260 -0.0540 -0.1033
   52DOPE    HX 6607   5.776   5.204  11.134  1.4565 -0.2031 -0.7212
   52DOPE    HY 6608   5.755   5.074  11.011  0.6004 -0.7880  0.0274
   52DOPE   O31 6609   5.853   5.028  11.207  0.0356 -0.1737 -0.0762
   52DOPE   C31 6610   5.925   4.938  11.147 -0.5976 -0.3648  0.1775
   52DOPE   O32 6611   5.899   4.888  11.039 -0.1456 -0.1929  0.4721
   52DOPE   C32 6612   6.048   4.900  11.233 -0.3869 -0.0257 -0.0937
   52DOPE   H2X 6613   6.122   4.849  11.168 -1.0086 -2.8202  1.2558
   52DOPE   H2Y 6614   6.099   4.995  11.262  1.2110 -0.0027 -2.6302
   52DOPE   C23 6615   5.462   4.974  11.608  0.0507  0.2480  0.2060
   52DOPE   H3R 6616   5.519   4.881  11.588  1.3388  0.3382  2.9170
   52DOPE   H3S 6617   5.353   4.960  11.592  0.2687 -0.1049 -1.0679
   52DOPE   C24 6618   5.506   5.016  11.754  0.0885  0.2490  0.2775
   52DOPE   H4R 6619   5.616   5.030  11.751  0.3026 -1.3436 -0.3174
   52DOPE   H4S 6620   5.481   4.937  11.828  3.3780  0.1224  1.4068
   52DOPE   C25 6621   5.439   5.150  11.804  0.4031  0.6910 -0.2929
   52DOPE   H5R 6622   5.336   5.154  11.762 -0.3048 -0.5424  1.2121
   52DOPE   H5S 6623   5.499   5.232  11.759  0.5668  1.5420  1.3780
   52DOPE   C26 6624   5.446   5.169  11.954 -0.4879  0.3516  0.5069
   52DOPE   H6R 6625   5.546   5.146  11.996 -0.5135  1.8545  1.4851
   52DOPE   H6S 6626   5.377   5.098  12.005  0.8038 -1.0306  0.4084
   52DOPE   C27 6627   5.419   5.311  12.011  0.2028 -0.4130  0.7022
   52DOPE   H7R 6628   5.333   5.361  11.960 -0.4647 -0.9979  1.2484
   52DOPE   H7S 6629   5.503   5.376  11.979 -1.4338  1.9654  0.9392
   52DOPE   C28 6630   5.404   5.304  12.161 -0.1676 -0.6349 -0.2014
   52DOPE   H8R 6631   5.446   5.402  12.192  1.9314 -1.7858  0.8178
   52DOPE   H8S 6632   5.476   5.234  12.207  1.0345  0.6007 -0.1353
   52DOPE   C29 6633   5.258   5.295  12.209  0.3243  0.1342 -0.4715
   52DOPE   H9R 6634   5.192   5.356  12.147 -1.4398 -0.4420  0.7695
   52DOPE  C210 6635   5.214   5.251  12.335 -0.0828 -0.3743 -0.2918
   52DOPE  H10R 6636   5.105   5.236  12.340 -0.4945  2.3343 -0.1130
   52DOPE  C211 6637   5.293   5.166  12.432 -0.1723 -0.1521  0.3575
   52DOPE  H11R 6638   5.402   5.163  12.413 -0.3282  0.9141 -0.7775
   52DOPE  H11S 6639   5.260   5.060  12.427  0.3602 -0.2458 -2.8158
   52DOPE  C212 6640   5.283   5.216  12.580  0.1913  0.0704  0.3532
   52DOPE  H12R 6641   5.179   5.215  12.620  0.3659 -0.0818  0.8153
   52DOPE  H12S 6642   5.322   5.320  12.582  2.6207 -0.6593 -2.2479
   52DOPE  C213 6643   5.377   5.128  12.666  0.1913 -0.4797 -0.5357
   52DOPE  H13R 6644   5.476   5.151  12.621  0.6061 -1.0838  0.0536
   52DOPE  H13S 6645   5.351   5.022  12.646 -1.9897 -0.3690  1.2992
   52DOPE  C214 6646   5.369   5.141  12.815  0.5114 -0.8594  0.0066
   52DOPE  H14R 6647   5.422   5.053  12.856  0.5497 -1.0242 -0.3893
   52DOPE  H14S 6648   5.263   5.125  12.844  0.7037 -2.1592  0.0493
   52DOPE  C215 6649   5.409   5.278  12.881 -0.0328  0.6892 -0.2748
   52DOPE  H15R 6650   5.351   5.354  12.825 -0.3601  1.3324  0.8883
   52DOPE  H15S 6651   5.514   5.301  12.853 -0.1478 -0.1882 -1.4913
   52DOPE  C216 6652   5.381   5.275  13.033  0.5145  0.2571  0.5650
   52DOPE  H16R 6653   5.451   5.207  13.085 -0.7121 -0.8340  0.8314
   52DOPE  H16S 6654   5.282   5.229  13.052  0.6839 -0.8182 -0.9524
   52DOPE  C217 6655   5.385   5.417  13.098  0.3366 -0.2173  0.9191
   52DOPE  H17R 6656   5.309   5.473  13.040  1.2957 -2.0355 -2.3725
   52DOPE  H17S 6657   5.484   5.456  13.068 -0.6035  0.2970 -1.8170
   52DOPE  C218 6658   5.359   5.425  13.250  0.3857 -0.1764 -0.6689
   52DOPE  H18R 6659   5.383   5.523  13.297 -1.5751  0.4925 -0.9806
   52DOPE  H18S 6660   5.255   5.400  13.279  0.6900 -0.6611  0.0321
   52DOPE  H18T 6661   5.429   5.353  13.298  1.2486 -1.1709 -3.2398
   52DOPE   C33 6662   6.021   4.811  11.348  0.6853 -0.2327 -0.4178
   52DOPE   H3X 6663   6.118   4.789  11.398  1.1442  2.1224 -0.1716
   52DOPE   H3Y 6664   5.965   4.720  11.316  0.0829  0.4199 -1.2710
   52DOPE   C34 6665   5.940   4.882  11.464  0.3089  0.6081 -0.3621
   52DOPE   H4X 6666   5.983   4.983  11.479 -0.8010  1.2471 -1.3560
   52DOPE   H4Y 6667   5.839   4.888  11.417  0.6911 -0.7206 -1.4293
   52DOPE   C35 6668   5.933   4.809  11.598  0.6774 -0.4077 -0.1161
   52DOPE   H5X 6669   6.036   4.815  11.638 -0.4234  0.8109  2.7972
   52DOPE   H5Y 6670   5.917   4.700  11.582 -0.3288 -0.1246 -1.2438
   52DOPE   C36 6671   5.812   4.850  11.683  0.1846  0.3308 -0.0443
   52DOPE   H6X 6672   5.722   4.806  11.636 -0.8693  2.1938  0.1104
   52DOPE   H6Y 6673   5.807   4.961  11.675  2.0374  0.5013  0.6820
   52DOPE   C37 6674   5.802   4.808  11.833  1.4189  0.3880 -0.8013
   52DOPE   H7X 6675   5.703   4.844  11.870  0.8510 -2.5388  0.8449
   52DOPE   H7Y 6676   5.798   4.697  11.842  1.3026  0.4164 -0.4810
   52DOPE   C38 6677   5.912   4.865  11.918 -0.6319 -0.2457  0.0495
   52DOPE   H8X 6678   5.939   4.959  11.866 -1.5538  0.7445  1.2715
   52DOPE   H8Y 6679   5.998   4.796  11.906 -0.2325  0.3862 -0.7761
   52DOPE   C39 6680   5.887   4.895  12.061  0.0675 -0.6176  0.4119
   52DOPE   H9X 6681   5.823   4.983  12.076 -0.7752 -0.5936 -2.5446
   52DOPE  C310 6682   5.936   4.837  12.169  0.7380 -0.0972 -0.3040
   52DOPE  H10X 6683   5.881   4.859  12.262  1.0224 -0.3764 -0.0668
   52DOPE  C311 6684   6.028   4.715  12.175 -1.0004  0.1072  0.5101
   52DOPE  H11X 6685   6.062   4.696  12.071 -2.0222 -0.3197  0.2422
   52DOPE  H11Y 6686   6.125   4.735  12.226  0.8582 -0.1560 -2.6486
   52DOPE  C312 6687   5.970   4.578  12.224 -0.0715 -0.1381 -0.1431
   52DOPE  H12X 6688   5.919   4.614  12.316 -1.8757  0.2735 -1.2619
   52DOPE  H12Y 6689   6.051   4.511  12.259 -0.0164 -0.0383 -0.0811
   52DOPE  C313 6690   5.871   4.506  12.123 -0.0122  0.7020 -0.0873
   52DOPE  H13X 6691   5.807   4.435  12.179 -1.0996  2.1526  0.5628
   52DOPE  H13Y 6692   5.808   4.589  12.084 -1.6422 -1.0698 -1.3776
   52DOPE  C314 6693   5.940   4.446  11.999 -0.0049 -0.0259  0.1166
   52DOPE  H14X 6694   6.020   4.380  12.039 -0.1647 -0.1572  0.2183
   52DOPE  H14Y 6695   5.988   4.535  11.953 -0.3822  0.2699  0.2871
   52DOPE  C315 6696   5.854   4.373  11.900  0.1435  0.2403  1.2470
   52DOPE  H15X 6697   5.761   4.422  11.864  0.3189 -0.3057 -0.0091
   52DOPE  H15Y 6698   5.819   4.279  11.948  1.1326 -0.2550  1.0360
   52DOPE  C316 6699   5.932   4.335  11.772 -0.2536 -0.4092  0.6624
   52DOPE  H16X 6700   5.867   4.264  11.716 -0.3534 -1.6467  2.2639
   52DOPE  H16Y 6701   6.025   4.287  11.807 -0.2515  0.2762  1.6005
   52DOPE  C317 6702   5.963   4.458  11.680  0.2115  0.1467  0.4500
   52DOPE  H17X 6703   5.876   4.525  11.669  1.2686  1.6304  0.7477
   52DOPE  H17Y 6704   6.047   4.508  11.733 -0.1885  1.2518  0.0779
   52DOPE  C318 6705   5.996   4.408  11.537 -0.1615 -0.2465 -0.2081
   52DOPE  H18X 6706   5.926   4.326  11.511 -1.2840  0.6432 -0.0731
   52DOPE  H18Y 6707   5.993   4.491  11.463 -0.2214  0.2863  0.3815
   52DOPE  H18Z 6708   6.101   4.372  11.537  0.1649  0.6520  0.5453
   53DOPE     N 6709   3.326   0.583  10.520 -0.0829  0.4468  0.1076
   53DOPE   HN1 6710   3.258   0.524  10.468 -1.6598  1.7173  0.6542
   53DOPE   HN2 6711   3.407   0.519  10.526 -0.7849 -0.3291  2.4614
   53DOPE   HN3 6712   3.286   0.586  10.616  1.3756 -4.6559  1.1636
   53DOPE   C12 6713   3.349   0.717  10.464 -0.0203  0.1520  0.6184
   53DOPE  H12A 6714   3.269   0.716  10.387 -0.0259 -1.7040  0.6222
   53DOPE  H12B 6715   3.446   0.725  10.412 -0.8607  2.9415 -0.7339
   53DOPE   C11 6716   3.345   0.817  10.579 -0.3834 -0.2929  0.4839
   53DOPE  H11A 6717   3.372   0.917  10.541  0.2605 -0.7217 -0.2065
   53DOPE  H11B 6718   3.424   0.797  10.656  0.6901  1.9979  0.0710
   53DOPE     P 6719   3.177   0.932  10.740 -0.4493  0.1158  0.1101
   53DOPE   O13 6720   3.061   0.883  10.811  0.0021  0.4963 -0.0734
   53DOPE   O14 6721   3.155   1.062  10.670 -0.1049  0.0768  0.5443
   53DOPE   O11 6722   3.308   0.938  10.829  0.1952 -0.0889 -0.0207
   53DOPE   O12 6723   3.213   0.818  10.634 -0.3356  0.1994 -0.6097
   53DOPE    C1 6724   3.325   0.867  10.951  0.4290  0.1746 -0.2491
   53DOPE    HA 6725   3.430   0.832  10.955  0.4559  0.1509 -1.0593
   53DOPE    HB 6726   3.255   0.781  10.961 -0.3959  0.7261 -1.0947
   53DOPE    C2 6727   3.317   0.956  11.079  0.1614 -0.7785 -0.5034
   53DOPE    HS 6728   3.416   1.003  11.097  0.0314 -1.0875  1.1215
   53DOPE   O21 6729   3.266   0.881  11.192  0.4823  0.4683  0.3566
   53DOPE   C21 6730   3.356   0.802  11.239  0.0749 -0.0603 -0.0086
   53DOPE   O22 6731   3.470   0.783  11.195  0.1803 -0.4430  0.0845
   53DOPE   C22 6732   3.299   0.745  11.366  0.6941 -0.3524 -0.1436
   53DOPE   H2R 6733   3.219   0.670  11.347 -0.0843  0.3002  0.5107
   53DOPE   H2S 6734   3.239   0.823  11.417 -0.2159 -0.3341 -1.2150
   53DOPE    C3 6735   3.215   1.069  11.059 -0.0338 -0.4193  0.4203
   53DOPE    HX 6736   3.119   1.019  11.033  0.5433 -1.1803 -0.3067
   53DOPE    HY 6737   3.248   1.129  10.971 -1.0857 -0.9732 -0.3779
   53DOPE   O31 6738   3.207   1.163  11.165 -0.2154 -0.3114 -0.6761
   53DOPE   C31 6739   3.096   1.158  11.238  0.2133 -0.3044  0.5398
   53DOPE   O32 6740   3.002   1.087  11.219  0.0025  0.4283 -0.0864
   53DOPE   C32 6741   3.110   1.266  11.349  0.3325 -0.3810  0.2247
   53DOPE   H2X 6742   3.133   1.363  11.299 -1.3129  0.0376  0.2407
   53DOPE   H2Y 6743   3.014   1.264  11.404  0.4179 -0.3502  0.3782
   53DOPE   C23 6744   3.399   0.677  11.454 -0.8025  0.2835 -0.3254
   53DOPE   H3R 6745   3.486   0.742  11.479 -0.7606  0.2814 -0.4656
   53DOPE   H3S 6746   3.439   0.595  11.391  0.5706  0.1843  0.6058
   53DOPE   C24 6747   3.337   0.640  11.593  0.3848 -0.1284  0.0833
   53DOPE   H4R 6748   3.256   0.569  11.566 -0.7481  1.3762 -0.6200
   53DOPE   H4S 6749   3.294   0.731  11.641  1.7449  2.7056 -3.5686
   53DOPE   C25 6750   3.424   0.563  11.700  0.2281 -0.2420 -0.0273
   53DOPE   H5R 6751   3.466   0.483  11.636 -0.9502 -0.3888 -0.6564
   53DOPE   H5S 6752   3.350   0.526  11.774 -0.4636  1.2643  0.0672
   53DOPE   C26 6753   3.524   0.653  11.768 -0.5608  0.0410 -0.0909
   53DOPE   H6R 6754   3.604   0.680  11.696 -0.0732  0.6229  0.6426
   53DOPE   H6S 6755   3.566   0.588  11.848  3.0357  2.5994  0.3733
   53DOPE   C27 6756   3.485   0.780  11.837  0.3386 -0.2305  0.4821
   53DOPE   H7R 6757   3.446   0.853  11.763 -1.0407 -2.8738 -1.5815
   53DOPE   H7S 6758   3.581   0.819  11.877 -0.5086  2.9929 -0.3428
   53DOPE   C28 6759   3.385   0.757  11.946 -0.0793  0.6330 -0.2262
   53DOPE   H8R 6760   3.407   0.683  12.025 -2.0673  0.6410  0.3739
   53DOPE   H8S 6761   3.293   0.715  11.901 -1.0991  2.2131  0.2988
   53DOPE   C29 6762   3.356   0.893  12.015  0.5308 -0.1344  0.2053
   53DOPE   H9R 6763   3.345   0.973  11.940 -1.0175  1.0549  1.6283
   53DOPE  C210 6764   3.340   0.919  12.148 -0.1344  0.1991  0.3067
   53DOPE  H10R 6765   3.339   1.024  12.181  1.3245  0.4325 -0.2680
   53DOPE  C211 6766   3.339   0.813  12.255 -0.1869  0.2993  0.2444
   53DOPE  H11R 6767   3.371   0.708  12.234  2.2169  0.4149  2.7017
   53DOPE  H11S 6768   3.237   0.816  12.299 -0.9510 -1.2664 -1.2854
   53DOPE  C212 6769   3.446   0.839  12.359 -0.6914 -0.9842 -0.2958
   53DOPE  H12R 6770   3.421   0.935  12.409  0.0841 -1.3366  0.8226
   53DOPE  H12S 6771   3.543   0.837  12.304 -0.0844 -0.4385  0.7146
   53DOPE  C213 6772   3.471   0.738  12.468 -0.1654 -0.2439 -0.4035
   53DOPE  H13R 6773   3.514   0.646  12.423 -2.9850 -2.4286  1.0043
   53DOPE  H13S 6774   3.374   0.711  12.515 -0.0476  0.7183  0.4393
   53DOPE  C214 6775   3.567   0.790  12.580  0.4608  0.4144 -0.2773
   53DOPE  H14R 6776   3.510   0.850  12.655 -0.3854 -1.1847  0.3998
   53DOPE  H14S 6777   3.648   0.856  12.543  2.7867 -2.1220 -0.0397
   53DOPE  C215 6778   3.622   0.673  12.661  0.2992 -0.2008 -0.8617
   53DOPE  H15R 6779   3.680   0.610  12.589  1.2852  0.1249 -0.3734
   53DOPE  H15S 6780   3.528   0.622  12.692 -0.5485  0.4680 -2.2535
   53DOPE  C216 6781   3.711   0.723  12.780 -0.1638  0.5408  0.6616
   53DOPE  H16R 6782   3.752   0.635  12.834  1.0979  0.2185 -0.7561
   53DOPE  H16S 6783   3.631   0.765  12.845 -0.5410 -1.0516  1.2690
   53DOPE  C217 6784   3.826   0.819  12.747  0.1048 -0.9476 -0.0467
   53DOPE  H17R 6785   3.892   0.821  12.837 -0.6707  3.4377  0.6489
   53DOPE  H17S 6786   3.773   0.916  12.740  0.3460 -0.9055 -1.4988
   53DOPE  C218 6787   3.914   0.774  12.627  0.0245  0.5425  0.1538
   53DOPE  H18R 6788   3.977   0.860  12.595  1.6301 -0.3219  0.8726
   53DOPE  H18S 6789   3.848   0.732  12.549 -0.7306  1.4572  0.2908
   53DOPE  H18T 6790   3.986   0.697  12.663  1.1888  1.1131 -0.8911
   53DOPE   C33 6791   3.226   1.245  11.441  0.0609  0.0940  0.1422
   53DOPE   H3X 6792   3.231   1.334  11.508 -1.6835  0.8307 -0.6392
   53DOPE   H3Y 6793   3.317   1.230  11.379 -1.3873 -1.9175 -1.6400
   53DOPE   C34 6794   3.215   1.122  11.520  0.1049 -0.2071 -0.1698
   53DOPE   H4X 6795   3.117   1.117  11.572 -0.3644 -1.1247 -1.1200
   53DOPE   H4Y 6796   3.223   1.031  11.457  2.7187  0.1897 -0.5167
   53DOPE   C35 6797   3.330   1.094  11.616  0.2377  0.5781  0.1729
   53DOPE   H5X 6798   3.422   1.090  11.554 -0.7829  0.5832 -1.4138
   53DOPE   H5Y 6799   3.326   0.994  11.664 -0.6009  1.9854  3.2706
   53DOPE   C36 6800   3.353   1.193  11.728  0.0656  0.2458 -0.1523
   53DOPE   H6X 6801   3.365   1.289  11.674 -0.6700 -0.5888 -1.8992
   53DOPE   H6Y 6802   3.450   1.176  11.779 -0.8654 -0.5151  1.4685
   53DOPE   C37 6803   3.240   1.209  11.827 -0.4838  0.6636 -0.2660
   53DOPE   H7X 6804   3.147   1.229  11.771  0.3873  0.0933 -1.9928
   53DOPE   H7Y 6805   3.232   1.111  11.880 -0.3813  0.4739 -0.5966
   53DOPE   C38 6806   3.268   1.319  11.926  1.6272 -0.4115 -0.1108
   53DOPE   H8X 6807   3.174   1.340  11.982  2.3665  1.3136  0.5456
   53DOPE   H8Y 6808   3.293   1.408  11.865  2.0282  1.3622  2.5118
   53DOPE   C39 6809   3.376   1.287  12.022 -0.3082  0.0869  0.2174
   53DOPE   H9X 6810   3.474   1.277  11.973  0.2196  2.1554  0.7244
   53DOPE  C310 6811   3.383   1.282  12.155 -0.4197  0.4186  0.4638
   53DOPE  H10X 6812   3.469   1.228  12.197 -1.0160 -1.0428 -0.1365
   53DOPE  C311 6813   3.281   1.313  12.260 -0.1019 -0.0629 -1.0384
   53DOPE  H11X 6814   3.225   1.402  12.222  1.3526  0.6597 -1.5914
   53DOPE  H11Y 6815   3.211   1.227  12.269  0.4283 -0.3603  0.6558
   53DOPE  C312 6816   3.351   1.339  12.408  0.2981  0.4180 -0.6606
   53DOPE  H12X 6817   3.430   1.412  12.381 -1.2081  2.0876 -0.7495
   53DOPE  H12Y 6818   3.390   1.239  12.435 -3.3561 -0.9690  0.0785
   53DOPE  C313 6819   3.257   1.395  12.521  0.3457 -0.0936 -0.4585
   53DOPE  H13X 6820   3.219   1.492  12.486  0.0773  0.1858  0.5571
   53DOPE  H13Y 6821   3.167   1.333  12.541  0.6832 -0.7394 -0.8996
   53DOPE  C314 6822   3.329   1.421  12.658 -0.2971 -1.0828 -0.0551
   53DOPE  H14X 6823   3.255   1.461  12.732  0.4899  2.4350 -0.9781
   53DOPE  H14Y 6824   3.405   1.499  12.636 -2.2676  0.8910 -0.2631
   53DOPE  C315 6825   3.399   1.305  12.727  0.4434  0.4359 -0.0232
   53DOPE  H15X 6826   3.418   1.345  12.829  1.7791  0.9211 -0.4386
   53DOPE  H15Y 6827   3.497   1.282  12.680  0.3467 -0.5616  0.2490
   53DOPE  C316 6828   3.316   1.179  12.727  0.2669  0.1385  0.2527
   53DOPE  H16X 6829   3.299   1.136  12.626 -0.9544  2.5501 -0.6448
   53DOPE  H16Y 6830   3.214   1.202  12.763 -0.3874 -0.0015 -1.4493
   53DOPE  C317 6831   3.378   1.073  12.825  0.1489 -0.0517  0.0190
   53DOPE  H17X 6832   3.470   1.056  12.765 -0.5154  2.1070 -1.7359
   53DOPE  H17Y 6833   3.404   1.118  12.923 -1.2605  0.2654  0.2669
   53DOPE  C318 6834   3.294   0.950  12.853  0.3089 -0.2400  0.0355
   53DOPE  H18X 6835   3.247   0.928  12.754  0.5858 -0.3404 -0.0771
   53DOPE  H18Y 6836   3.356   0.866  12.893 -1.3023 -0.0598  3.1267
   53DOPE  H18Z 6837   3.222   0.957  12.937  1.3105 -1.8848  1.1004
   54DOPE     N 6838   6.690   3.779  11.208 -0.1016  0.2178  0.7741
   54DOPE   HN1 6839   6.760   3.742  11.275 -0.5946 -2.7238 -0.2023
   54DOPE   HN2 6840   6.635   3.695  11.182 -1.3782  1.2790 -0.0436
   54DOPE   HN3 6841   6.752   3.815  11.133  1.6995 -2.1811  0.9846
   54DOPE   C12 6842   6.621   3.890  11.289 -0.2400  0.6304 -0.5574
   54DOPE  H12A 6843   6.532   3.912  11.225 -0.0406  0.9662 -0.7258
   54DOPE  H12B 6844   6.694   3.972  11.308 -0.5314  1.0742 -1.2599
   54DOPE   C11 6845   6.567   3.846  11.424  1.0265  0.1975  0.1398
   54DOPE  H11A 6846   6.491   3.916  11.464  0.8520 -0.2250  0.5522
   54DOPE  H11B 6847   6.651   3.870  11.493 -0.3505  0.3027  1.8418
   54DOPE     P 6848   6.378   3.677  11.394  0.0112 -0.3851 -0.3939
   54DOPE   O13 6849   6.359   3.534  11.409 -0.4556  0.0047 -0.2423
   54DOPE   O14 6850   6.345   3.731  11.262  0.2487 -0.0124  0.0916
   54DOPE   O11 6851   6.295   3.753  11.498 -0.0578  0.4664 -0.2363
   54DOPE   O12 6852   6.526   3.713  11.440 -0.4312  0.1292 -0.0416
   54DOPE    C1 6853   6.314   3.727  11.639 -0.2760 -0.3677 -1.0657
   54DOPE    HA 6854   6.422   3.738  11.659 -0.3685  0.0246 -0.7618
   54DOPE    HB 6855   6.274   3.627  11.667  1.9985 -1.2756 -0.9017
   54DOPE    C2 6856   6.253   3.842  11.728  0.5246  0.4718 -0.1140
   54DOPE    HS 6857   6.151   3.868  11.693  0.1640 -0.3329  0.3068
   54DOPE   O21 6858   6.344   3.946  11.741 -1.0402  0.4296 -0.3507
   54DOPE   C21 6859   6.296   4.068  11.749  0.2442  0.5972  0.0871
   54DOPE   O22 6860   6.180   4.094  11.745  0.2265  0.2510  0.6052
   54DOPE   C22 6861   6.396   4.181  11.771 -0.6453  0.8333  0.1186
   54DOPE   H2R 6862   6.429   4.210  11.668  1.6260 -1.3237  0.1429
   54DOPE   H2S 6863   6.482   4.139  11.828 -1.4759 -0.4891  0.4369
   54DOPE    C3 6864   6.226   3.784  11.874  0.1595 -0.3435  0.0855
   54DOPE    HX 6865   6.194   3.871  11.936  1.5046 -0.3077  0.7630
   54DOPE    HY 6866   6.327   3.755  11.911  0.9302  0.6560 -1.1497
   54DOPE   O31 6867   6.141   3.667  11.878  0.2340  0.1699 -0.3972
   54DOPE   C31 6868   6.067   3.653  11.985 -0.3972 -0.5146  0.1504
   54DOPE   O32 6869   6.076   3.717  12.088  0.0003  0.0897  0.3712
   54DOPE   C32 6870   5.954   3.552  11.961 -0.6447 -0.0052  0.1138
   54DOPE   H2X 6871   5.876   3.611  11.908 -0.1184  1.7535  1.1933
   54DOPE   H2Y 6872   5.987   3.466  11.899  0.2288 -1.5051  2.5258
   54DOPE   C23 6873   6.336   4.306  11.834  0.4700 -0.6831 -0.2076
   54DOPE   H3R 6874   6.243   4.330  11.779  1.5365  0.9460 -1.3824
   54DOPE   H3S 6875   6.401   4.395  11.824 -1.1439  0.5092 -0.3717
   54DOPE   C24 6876   6.299   4.292  11.981  0.0419 -0.3850 -1.0554
   54DOPE   H4R 6877   6.238   4.203  12.008  1.4626 -0.5414  2.1166
   54DOPE   H4S 6878   6.239   4.377  12.019  0.5910  0.0754 -1.2017
   54DOPE   C25 6879   6.420   4.279  12.076 -0.7200 -0.4270  0.3163
   54DOPE   H5R 6880   6.491   4.364  12.063  0.4203 -1.3571  0.3560
   54DOPE   H5S 6881   6.480   4.189  12.054 -1.7569 -1.3828  1.2795
   54DOPE   C26 6882   6.379   4.265  12.224  0.5948  0.0015 -0.3785
   54DOPE   H6R 6883   6.321   4.170  12.231 -0.0497  0.3942 -0.3020
   54DOPE   H6S 6884   6.317   4.353  12.252 -1.4902 -1.7579  0.8669
   54DOPE   C27 6885   6.504   4.256  12.310 -0.6460 -0.2543 -0.2859
   54DOPE   H7R 6886   6.581   4.327  12.272  0.3945 -1.1306  0.1153
   54DOPE   H7S 6887   6.552   4.156  12.298  1.5316  0.6811  0.0288
   54DOPE   C28 6888   6.488   4.277  12.458  0.2066 -0.4950 -0.3840
   54DOPE   H8R 6889   6.587   4.270  12.510  0.4132 -0.0809 -0.7134
   54DOPE   H8S 6890   6.417   4.203  12.499 -0.7233  1.5746  2.0082
   54DOPE   C29 6891   6.429   4.418  12.481  0.3557  0.1134  0.5002
   54DOPE   H9R 6892   6.392   4.478  12.396  0.0586 -1.7578 -0.7551
   54DOPE  C210 6893   6.443   4.487  12.594  0.3087  0.3410 -0.6061
   54DOPE  H10R 6894   6.423   4.593  12.618  1.6638  0.2098  1.3783
   54DOPE  C211 6895   6.520   4.419  12.714  0.3262  0.1175  0.2190
   54DOPE  H11R 6896   6.630   4.414  12.699  0.1011 -1.0930 -1.2109
   54DOPE  H11S 6897   6.487   4.314  12.731  1.1495 -0.0089  1.2141
   54DOPE  C212 6898   6.487   4.490  12.845  0.2662 -0.1049  0.0197
   54DOPE  H12R 6899   6.381   4.473  12.876  1.0846 -1.7149  2.1908
   54DOPE  H12S 6900   6.504   4.599  12.831 -1.5855  0.1362 -0.7011
   54DOPE  C213 6901   6.579   4.442  12.958  0.7636  0.0477 -0.0732
   54DOPE  H13R 6902   6.682   4.462  12.924  0.6752  3.5256  1.3556
   54DOPE  H13S 6903   6.572   4.332  12.972 -1.5197  0.2272  0.5974
   54DOPE  C214 6904   6.548   4.519  13.084  0.1880 -0.5571 -0.1087
   54DOPE  H14R 6905   6.522   4.622  13.050  2.4838  0.0654 -0.1518
   54DOPE  H14S 6906   6.633   4.537  13.154 -1.0049  0.7610  1.0776
   54DOPE  C215 6907   6.426   4.483  13.172  0.2118 -0.9150 -0.5347
   54DOPE  H15R 6908   6.332   4.479  13.112  0.2598 -1.1737 -0.5962
   54DOPE  H15S 6909   6.403   4.566  13.242 -2.8391 -0.3005 -2.0861
   54DOPE  C216 6910   6.450   4.355  13.240 -0.1063  0.5410  0.4790
   54DOPE  H16R 6911   6.556   4.353  13.273  0.5013 -0.3573 -1.3789
   54DOPE  H16S 6912   6.438   4.265  13.176 -1.0172  0.5350  0.6530
   54DOPE  C217 6913   6.342   4.335  13.351 -0.3965 -0.7619  0.1221
   54DOPE  H17R 6914   6.371   4.414  13.424 -0.4578 -0.1668 -0.4924
   54DOPE  H17S 6915   6.360   4.239  13.405  0.3283  0.4772  2.1893
   54DOPE  C218 6916   6.195   4.337  13.310 -0.1983 -0.2697  0.4216
   54DOPE  H18R 6917   6.182   4.256  13.235  2.1986  0.9186 -1.4493
   54DOPE  H18S 6918   6.160   4.435  13.270 -0.2550 -0.1129  0.8530
   54DOPE  H18T 6919   6.130   4.317  13.397 -2.4323  1.9968 -0.6051
   54DOPE   C33 6920   5.909   3.501  12.091 -0.0230  0.1015  0.2332
   54DOPE   H3X 6921   5.828   3.429  12.067 -0.5505  0.6832  0.2440
   54DOPE   H3Y 6922   5.855   3.585  12.140  2.8506  2.6744 -0.6725
   54DOPE   C34 6923   6.018   3.426  12.170 -0.8961 -0.4475 -0.7016
   54DOPE   H4X 6924   6.059   3.350  12.100  2.2995 -0.1593  0.7056
   54DOPE   H4Y 6925   6.104   3.491  12.196 -2.1943 -0.1467  3.5749
   54DOPE   C35 6926   5.963   3.360  12.301  0.1621  0.0403 -0.3821
   54DOPE   H5X 6927   5.867   3.310  12.276  0.8278 -0.5510 -1.8590
   54DOPE   H5Y 6928   5.952   3.439  12.378  1.5710  1.4215 -1.5217
   54DOPE   C36 6929   6.066   3.251  12.338  0.2112 -0.2233  0.5487
   54DOPE   H6X 6930   6.167   3.294  12.354 -0.6669  1.9342  0.5904
   54DOPE   H6Y 6931   6.062   3.185  12.249  0.2566  1.4245 -0.7103
   54DOPE   C37 6932   6.030   3.179  12.463  0.5457  0.3983  0.1052
   54DOPE   H7X 6933   6.040   3.257  12.542 -0.0280  1.1760 -0.5769
   54DOPE   H7Y 6934   5.926   3.141  12.456  0.2219  1.0806  1.0224
   54DOPE   C38 6935   6.116   3.058  12.498  0.4701 -0.1711 -0.0552
   54DOPE   H8X 6936   6.219   3.096  12.515  1.0213 -1.7123  0.2234
   54DOPE   H8Y 6937   6.128   2.998  12.405 -1.2314  2.1914 -1.9078
   54DOPE   C39 6938   6.067   2.975  12.617 -0.6264 -0.0274  0.1055
   54DOPE   H9X 6939   5.968   2.930  12.601 -1.2673  0.5879  2.1137
   54DOPE  C310 6940   6.121   2.981  12.741  0.6580  0.6826  0.7759
   54DOPE  H10X 6941   6.068   2.917  12.814  0.0586  0.5282  0.2129
   54DOPE  C311 6942   6.227   3.071  12.795  0.5068 -0.0057  0.3772
   54DOPE  H11X 6943   6.303   3.018  12.856  0.1577 -1.0479 -0.0657
   54DOPE  H11Y 6944   6.298   3.115  12.722 -2.1743 -0.3240 -2.6588
   54DOPE  C312 6945   6.164   3.184  12.887 -0.4452 -0.4757 -0.0324
   54DOPE  H12X 6946   6.086   3.239  12.829  0.4395  1.3258  0.4184
   54DOPE  H12Y 6947   6.242   3.257  12.915 -0.9812  0.1272 -0.0795
   54DOPE  C313 6948   6.101   3.128  13.019  0.3689 -0.2150  0.2376
   54DOPE  H13X 6949   6.066   3.215  13.078  1.4906  0.4885 -0.1091
   54DOPE  H13Y 6950   6.011   3.067  12.999 -2.0255  2.9430  0.7159
   54DOPE  C314 6951   6.200   3.049  13.106 -0.5961 -0.5029  0.1548
   54DOPE  H14X 6952   6.308   3.067  13.084 -0.3791  0.4198  1.7774
   54DOPE  H14Y 6953   6.174   2.944  13.081  0.3215 -0.1522 -2.6321
   54DOPE  C315 6954   6.172   3.065  13.258  0.3053 -1.1209  1.0606
   54DOPE  H15X 6955   6.061   3.076  13.260  0.3187 -0.4625 -0.5567
   54DOPE  H15Y 6956   6.230   3.148  13.302  0.0811 -0.8509  0.8509
   54DOPE  C316 6957   6.210   2.935  13.329  0.2315 -0.2095  0.4175
   54DOPE  H16X 6958   6.315   2.914  13.298 -0.0837 -0.9148 -0.2016
   54DOPE  H16Y 6959   6.157   2.852  13.277  0.1077 -0.1088  0.3814
   54DOPE  C317 6960   6.204   2.928  13.484 -0.1803 -0.2744 -0.4084
   54DOPE  H17X 6961   6.100   2.936  13.521  0.0276 -0.8252  0.3177
   54DOPE  H17Y 6962   6.251   2.830  13.508  0.9298  0.5123  0.7108
   54DOPE  C318 6963   6.287   3.040  13.546  0.1424  0.6945  0.1247
   54DOPE  H18X 6964   6.290   3.014  13.654  0.5063 -2.9536 -0.6310
   54DOPE  H18Y 6965   6.393   3.041  13.512  0.9456 -0.8375  2.3616
   54DOPE  H18Z 6966   6.239   3.137  13.523 -1.8679 -0.3973 -0.5461
   55DOPE     N 6967   5.915   0.043  11.134  0.2096 -0.2629 -0.3686
   55DOPE   HN1 6968   5.946  -0.047  11.092 -1.6211 -1.4389  0.6535
   55DOPE   HN2 6969   5.861   0.102  11.067 -0.6512  0.5026  0.9480
   55DOPE   HN3 6970   5.997   0.099  11.163 -0.8886  0.3840  1.6520
   55DOPE   C12 6971   5.832   0.016  11.258  0.4523  0.1507 -0.5762
   55DOPE  H12A 6972   5.795   0.115  11.292 -2.7452 -1.5302  1.3028
   55DOPE  H12B 6973   5.897  -0.025  11.338 -1.6166 -0.7232  0.7389
   55DOPE   C11 6974   5.720  -0.083  11.217 -0.9318 -0.1750  0.0583
   55DOPE  H11A 6975   5.643  -0.034  11.153 -0.0191 -1.3375 -2.0411
   55DOPE  H11B 6976   5.664  -0.103  11.311 -1.0025 -1.7157 -0.2880
   55DOPE     P 6977   5.804  -0.338  11.230 -0.0178 -0.0348 -0.0439
   55DOPE   O13 6978   5.946  -0.349  11.256 -0.8872 -0.0826 -0.4220
   55DOPE   O14 6979   5.730  -0.442  11.158  0.3988 -0.0510  0.1162
   55DOPE   O11 6980   5.740  -0.330  11.379  0.2327  0.3400  0.4458
   55DOPE   O12 6981   5.769  -0.204  11.157  0.2186 -0.2561 -0.1193
   55DOPE    C1 6982   5.625  -0.416  11.409  0.0878 -0.4789 -0.0957
   55DOPE    HA 6983   5.651  -0.519  11.379  0.0935 -0.5807  0.2495
   55DOPE    HB 6984   5.530  -0.383  11.362 -0.4194  1.0020  1.7904
   55DOPE    C2 6985   5.590  -0.394  11.557 -0.1176  0.2673 -0.1000
   55DOPE    HS 6986   5.488  -0.434  11.575  0.7335 -1.4723  1.0926
   55DOPE   O21 6987   5.592  -0.266  11.614 -0.2446 -0.3951  0.2456
   55DOPE   C21 6988   5.517  -0.173  11.556 -0.1644 -0.2760 -0.3196
   55DOPE   O22 6989   5.433  -0.198  11.472  0.1008 -0.0224 -0.0411
   55DOPE   C22 6990   5.540  -0.030  11.602 -0.2908 -0.2505  0.0565
   55DOPE   H2R 6991   5.445   0.027  11.591 -0.9467 -1.2813  0.2224
   55DOPE   H2S 6992   5.616   0.015  11.535  0.3531  0.2025  1.0740
   55DOPE    C3 6993   5.687  -0.486  11.638 -0.5860  0.2094 -0.0128
   55DOPE    HX 6994   5.789  -0.464  11.599  0.7848 -0.9788  2.6538
   55DOPE    HY 6995   5.648  -0.588  11.617 -1.3408  0.5866 -0.5203
   55DOPE   O31 6996   5.684  -0.470  11.784 -0.1523  0.3988 -0.1330
   55DOPE   C31 6997   5.772  -0.383  11.832 -0.2384 -0.4142 -0.7035
   55DOPE   O32 6998   5.858  -0.324  11.773  0.4474  0.4465  0.3669
   55DOPE   C32 6999   5.755  -0.361  11.978  0.5689  0.0158 -0.2330
   55DOPE   H2X 7000   5.828  -0.285  12.012 -1.1554  1.8777 -0.5383
   55DOPE   H2Y 7001   5.654  -0.322  12.001  0.1772 -1.6379  1.0806
   55DOPE   C23 7002   5.606  -0.020  11.740  0.9903  0.8561  0.5013
   55DOPE   H3R 7003   5.651   0.081  11.745  1.0415  0.8012  1.1428
   55DOPE   H3S 7004   5.695  -0.084  11.757  0.1747 -0.4794 -0.0690
   55DOPE   C24 7005   5.515  -0.047  11.857  0.0868 -0.0211  0.2455
   55DOPE   H4R 7006   5.480  -0.152  11.847  2.3742 -0.6107 -3.7446
   55DOPE   H4S 7007   5.427   0.021  11.848  1.6361  1.9154 -1.3797
   55DOPE   C25 7008   5.587  -0.016  11.993 -0.3585 -0.7545  0.3363
   55DOPE   H5R 7009   5.612   0.092  12.003 -1.3433 -0.6872  2.8052
   55DOPE   H5S 7010   5.686  -0.065  11.986 -0.4424 -0.8185 -0.5039
   55DOPE   C26 7011   5.522  -0.059  12.119  0.2404  0.1292  0.0081
   55DOPE   H6R 7012   5.494  -0.166  12.109  2.5930 -0.3840 -2.6256
   55DOPE   H6S 7013   5.422  -0.012  12.124 -0.1366 -0.7788  1.6860
   55DOPE   C27 7014   5.597  -0.024  12.251  0.5672 -0.5060  0.3711
   55DOPE   H7R 7015   5.610   0.086  12.250 -1.1230 -0.2617 -1.7292
   55DOPE   H7S 7016   5.702  -0.060  12.252  1.0052  0.7293  0.6046
   55DOPE   C28 7017   5.514  -0.053  12.375  0.3503 -0.5658 -0.3535
   55DOPE   H8R 7018   5.414  -0.006  12.362 -0.4470 -1.6984  1.4120
   55DOPE   H8S 7019   5.565   0.004  12.456 -0.9126 -2.5682  1.9991
   55DOPE   C29 7020   5.504  -0.190  12.422 -0.3444  0.1595 -0.1759
   55DOPE   H9R 7021   5.469  -0.261  12.345 -0.2880 -2.9229  2.4342
   55DOPE  C210 7022   5.533  -0.247  12.543  0.3890  0.2582 -0.1316
   55DOPE  H10R 7023   5.522  -0.356  12.556  3.6642 -0.2096 -0.5490
   55DOPE  C211 7024   5.585  -0.171  12.661 -0.0206 -0.1367  0.2779
   55DOPE  H11R 7025   5.619  -0.068  12.637  1.0388 -0.7733 -1.0997
   55DOPE  H11S 7026   5.671  -0.227  12.704 -0.6427 -1.4522 -0.1358
   55DOPE  C212 7027   5.463  -0.162  12.759 -0.0547  0.0112 -0.8626
   55DOPE  H12R 7028   5.442  -0.260  12.807  1.7566 -0.9194 -1.8369
   55DOPE  H12S 7029   5.373  -0.126  12.704 -1.3222  0.4572  1.4126
   55DOPE  C213 7030   5.500  -0.060  12.865 -0.5459  0.0988  0.4552
   55DOPE  H13R 7031   5.535   0.036  12.820 -0.3586  1.0277  2.5103
   55DOPE  H13S 7032   5.584  -0.098  12.928 -1.3943  0.2827  1.7208
   55DOPE  C214 7033   5.379  -0.034  12.952  0.6281  0.3144 -0.2322
   55DOPE  H14R 7034   5.360  -0.136  12.991 -1.8925  0.8656  0.1996
   55DOPE  H14S 7035   5.294   0.001  12.889  0.9723 -0.2039 -0.9901
   55DOPE  C215 7036   5.410   0.063  13.062  0.1041  0.3352 -0.7506
   55DOPE  H15R 7037   5.456   0.154  13.018  0.4097  0.3326 -0.4378
   55DOPE  H15S 7038   5.483   0.020  13.133 -1.0717  2.4934  1.9364
   55DOPE  C216 7039   5.283   0.102  13.148 -0.7401 -0.1722 -0.1429
   55DOPE  H16R 7040   5.244   0.029  13.222  0.3423  1.1094  1.7634
   55DOPE  H16S 7041   5.209   0.123  13.067 -1.6442 -0.2485  0.6468
   55DOPE  C217 7042   5.319   0.225  13.228  0.1447  0.1449 -0.0757
   55DOPE  H17R 7043   5.376   0.283  13.152  0.8462 -1.4908 -0.8481
   55DOPE  H17S 7044   5.394   0.207  13.308  0.7352 -3.9973 -1.3353
   55DOPE  C218 7045   5.201   0.298  13.289 -0.0562  0.2636  1.1285
   55DOPE  H18R 7046   5.150   0.228  13.359 -0.8290  0.0680  0.3995
   55DOPE  H18S 7047   5.143   0.340  13.204  1.2393  0.8701  0.5341
   55DOPE  H18T 7048   5.226   0.387  13.349 -0.1488 -0.1043  1.7230
   55DOPE   C33 7049   5.771  -0.484  12.059  0.5075  0.2359  0.7033
   55DOPE   H3X 7050   5.879  -0.508  12.065  0.8062  1.6002  1.2732
   55DOPE   H3Y 7051   5.710  -0.565  12.015  2.0875 -0.6733  0.1061
   55DOPE   C34 7052   5.739  -0.467  12.209  0.8191  0.3028  0.0487
   55DOPE   H4X 7053   5.804  -0.384  12.244 -0.4230  1.3370 -0.0633
   55DOPE   H4Y 7054   5.632  -0.442  12.202  0.7204 -0.6194 -2.8313
   55DOPE   C35 7055   5.757  -0.581  12.310 -0.7901  0.0178  0.1860
   55DOPE   H5X 7056   5.855  -0.633  12.304 -1.9894 -2.2827 -0.5070
   55DOPE   H5Y 7057   5.687  -0.665  12.289 -0.0410 -1.2613  2.4515
   55DOPE   C36 7058   5.730  -0.529  12.452  0.2580 -0.6701 -0.9037
   55DOPE   H6X 7059   5.628  -0.486  12.448  1.5411  2.6348 -1.5156
   55DOPE   H6Y 7060   5.800  -0.451  12.488 -1.0173 -0.6252  1.7030
   55DOPE   C37 7061   5.730  -0.641  12.565 -0.0600  0.1428 -0.2018
   55DOPE   H7X 7062   5.790  -0.728  12.529 -0.0358 -0.4161  1.1445
   55DOPE   H7Y 7063   5.777  -0.603  12.658 -0.6688 -1.2420  0.7046
   55DOPE   C38 7064   5.587  -0.696  12.597 -0.5590  0.4980  0.3508
   55DOPE   H8X 7065   5.562  -0.756  12.506  0.7274 -1.5291  1.2523
   55DOPE   H8Y 7066   5.525  -0.604  12.598 -1.3884 -0.0465 -0.1493
   55DOPE   C39 7067   5.583  -0.791  12.711  0.4485  0.7605  0.8090
   55DOPE   H9X 7068   5.640  -0.884  12.703 -0.4381  0.2887 -0.4299
   55DOPE  C310 7069   5.511  -0.770  12.821 -0.0734 -0.0505  0.5389
   55DOPE  H10X 7070   5.503  -0.848  12.898  0.0256 -0.3933  0.2068
   55DOPE  C311 7071   5.412  -0.658  12.844 -0.0606 -0.2890  0.2701
   55DOPE  H11X 7072   5.388  -0.594  12.756 -1.2259  0.3919  1.0480
   55DOPE  H11Y 7073   5.318  -0.710  12.874 -0.8775  0.1412 -1.4499
   55DOPE  C312 7074   5.462  -0.574  12.960  0.2673  0.7239  0.5173
   55DOPE  H12X 7075   5.498  -0.635  13.046 -0.9136 -0.0834  0.4705
   55DOPE  H12Y 7076   5.387  -0.497  12.988 -0.2256  1.0998 -1.6776
   55DOPE  C313 7077   5.593  -0.501  12.916 -0.7573  0.0946 -0.2887
   55DOPE  H13X 7078   5.670  -0.569  12.875 -0.4625  0.4998 -0.4158
   55DOPE  H13Y 7079   5.571  -0.435  12.829  1.5350  0.8119 -0.3876
   55DOPE  C314 7080   5.650  -0.423  13.033 -0.2046 -0.3325 -0.3096
   55DOPE  H14X 7081   5.669  -0.491  13.119  2.7131  1.8095  0.9187
   55DOPE  H14Y 7082   5.574  -0.350  13.070  0.6229  1.1566 -1.4255
   55DOPE  C315 7083   5.773  -0.338  13.000 -0.2261  0.7171 -0.1654
   55DOPE  H15X 7084   5.746  -0.276  12.912  0.1443  2.5069  0.9312
   55DOPE  H15Y 7085   5.852  -0.412  12.977  0.3881  0.8785  1.3460
   55DOPE  C316 7086   5.825  -0.251  13.114 -0.1172 -0.2057  0.4203
   55DOPE  H16X 7087   5.747  -0.175  13.137  1.5149  0.8154  3.0777
   55DOPE  H16Y 7088   5.925  -0.212  13.085 -0.6387 -0.9414 -2.7548
   55DOPE  C317 7089   5.849  -0.327  13.247 -0.2144 -0.0351 -0.2512
   55DOPE  H17X 7090   5.749  -0.353  13.287  0.3154 -0.4138  0.8878
   55DOPE  H17Y 7091   5.910  -0.415  13.219  0.7687 -0.2037  2.1193
   55DOPE  C318 7092   5.932  -0.239  13.341  0.2443  0.0709  0.2457
   55DOPE  H18X 7093   6.035  -0.213  13.310  0.5565 -0.0645  1.1282
   55DOPE  H18Y 7094   5.877  -0.143  13.342  1.6477  0.9923  3.4419
   55DOPE  H18Z 7095   5.930  -0.286  13.442 -2.3865 -0.8261 -0.1341
   56DOPE     N 7096   5.463   6.718  10.807  0.2927 -0.0479  0.7424
   56DOPE   HN1 7097   5.483   6.804  10.753 -0.3107  0.9849  2.1027
   56DOPE   HN2 7098   5.555   6.685  10.845 -0.2375 -2.4546  0.1099
   56DOPE   HN3 7099   5.433   6.640  10.745  2.1318  0.3633 -0.7707
   56DOPE   C12 7100   5.369   6.759  10.920 -0.4750  0.6089  0.0300
   56DOPE  H12A 7101   5.393   6.700  11.010  0.9974 -1.2061 -1.4545
   56DOPE  H12B 7102   5.263   6.741  10.892 -0.0920  0.0884 -1.1637
   56DOPE   C11 7103   5.390   6.912  10.950 -0.2943 -0.0902 -0.6061
   56DOPE  H11A 7104   5.317   6.933  11.031 -0.2483 -2.3622  0.0956
   56DOPE  H11B 7105   5.365   6.980  10.866 -0.0849  0.8648  0.0914
   56DOPE     P 7106   5.643   7.006  10.922  0.0114 -0.0177  0.2248
   56DOPE   O13 7107   5.614   6.973  10.780 -0.2547 -0.2322  0.0347
   56DOPE   O14 7108   5.778   6.967  10.974  0.3631 -0.0795 -0.1763
   56DOPE   O11 7109   5.619   7.158  10.961  0.3929 -0.7966 -0.1662
   56DOPE   O12 7110   5.518   6.936  11.002 -0.9416  0.4272 -0.2985
   56DOPE    C1 7111   5.694   7.223  11.059 -0.3407 -0.5390  0.0255
   56DOPE    HA 7112   5.646   7.321  11.082 -0.0763 -0.7787  1.6920
   56DOPE    HB 7113   5.799   7.247  11.034 -0.6922  0.8432 -0.2287
   56DOPE    C2 7114   5.682   7.158  11.197 -0.1078 -0.0540  0.0425
   56DOPE    HS 7115   5.741   7.065  11.215 -0.4010  0.0671  1.8090
   56DOPE   O21 7116   5.548   7.143  11.225  0.2278  0.6472  0.5864
   56DOPE   C21 7117   5.513   7.048  11.315 -0.5013 -0.8102  0.6194
   56DOPE   O22 7118   5.591   6.969  11.363 -0.4269  0.4485 -0.2133
   56DOPE   C22 7119   5.360   7.052  11.344 -0.0418 -0.6385  0.3439
   56DOPE   H2R 7120   5.338   6.958  11.400  1.1264 -2.2918 -1.7745
   56DOPE   H2S 7121   5.310   7.056  11.245 -0.6300 -1.3948  0.5996
   56DOPE    C3 7122   5.747   7.260  11.300 -0.2868 -0.1582 -0.6314
   56DOPE    HX 7123   5.675   7.344  11.292 -1.4061 -1.1029 -0.7196
   56DOPE    HY 7124   5.843   7.280  11.248 -0.8118 -0.3893 -1.7240
   56DOPE   O31 7125   5.756   7.212  11.437  0.2418  1.0117  0.0910
   56DOPE   C31 7126   5.855   7.124  11.458  0.0522 -0.1140 -0.3461
   56DOPE   O32 7127   5.962   7.112  11.398  0.3420 -0.2972  0.0852
   56DOPE   C32 7128   5.829   7.044  11.586 -0.2518  0.0176 -0.1337
   56DOPE   H2X 7129   5.722   7.015  11.587 -0.4579  0.7131  1.3945
   56DOPE   H2Y 7130   5.889   6.950  11.580 -1.6199 -0.8448 -0.8454
   56DOPE   C23 7131   5.342   7.177  11.438  0.4608  0.8408  0.2968
   56DOPE   H3R 7132   5.233   7.180  11.456  0.7521 -0.2742  2.5323
   56DOPE   H3S 7133   5.371   7.271  11.386  0.5661 -0.0767 -1.3882
   56DOPE   C24 7134   5.407   7.155  11.575 -0.1585 -0.8943  0.1899
   56DOPE   H4R 7135   5.516   7.174  11.562 -0.2036 -1.0925 -0.5335
   56DOPE   H4S 7136   5.391   7.053  11.618  0.7829 -0.9997  0.3233
   56DOPE   C25 7137   5.357   7.262  11.676  0.5224  0.0474 -1.1372
   56DOPE   H5R 7138   5.247   7.276  11.683  0.5943 -0.1056  1.1141
   56DOPE   H5S 7139   5.392   7.354  11.624  0.7394  1.0215  0.6422
   56DOPE   C26 7140   5.419   7.263  11.817 -0.1887 -0.0494 -0.1691
   56DOPE   H6R 7141   5.389   7.356  11.869  0.7590  0.8197 -1.1296
   56DOPE   H6S 7142   5.528   7.254  11.801  0.0927 -1.1273  1.9332
   56DOPE   C27 7143   5.374   7.141  11.899 -0.3745  0.1961 -0.0873
   56DOPE   H7R 7144   5.435   7.059  11.857  0.5714 -0.1804  1.9092
   56DOPE   H7S 7145   5.265   7.120  11.897 -0.2797 -1.7131  4.1856
   56DOPE   C28 7146   5.403   7.175  12.050 -0.5398  0.2512  0.0109
   56DOPE   H8R 7147   5.490   7.244  12.040 -0.8547  0.7670  0.7676
   56DOPE   H8S 7148   5.429   7.080  12.101  0.2516  1.3790  1.7713
   56DOPE   C29 7149   5.309   7.249  12.139  0.5265 -0.5115 -0.2311
   56DOPE   H9R 7150   5.221   7.293  12.090 -0.5559 -1.4727  0.7772
   56DOPE  C210 7151   5.329   7.259  12.269 -0.0608  0.6636  0.0437
   56DOPE  H10R 7152   5.249   7.299  12.333 -0.7430 -2.1783  1.1377
   56DOPE  C211 7153   5.435   7.187  12.348  0.2580  0.6827  0.0029
   56DOPE  H11R 7154   5.457   7.246  12.439  0.0136  0.8701 -0.0600
   56DOPE  H11S 7155   5.528   7.193  12.287  0.2609  0.4510 -0.0174
   56DOPE  C212 7156   5.414   7.041  12.403  0.1210  0.4002  0.3044
   56DOPE  H12R 7157   5.500   6.986  12.447 -0.8686  0.4065  2.3831
   56DOPE  H12S 7158   5.394   6.974  12.316 -0.1000 -0.4709  1.0010
   56DOPE  C213 7159   5.295   7.028  12.505 -0.4277 -0.0829  0.3041
   56DOPE  H13R 7160   5.256   6.930  12.474  2.3640 -0.1278 -3.8671
   56DOPE  H13S 7161   5.214   7.102  12.493  0.0112  0.8910  2.6422
   56DOPE  C214 7162   5.334   7.024  12.656  0.0943  0.0404  0.1185
   56DOPE  H14R 7163   5.419   6.957  12.684  0.0518  0.5989  1.7108
   56DOPE  H14S 7164   5.243   6.992  12.712  1.6281  0.0490  2.8168
   56DOPE  C215 7165   5.363   7.160  12.716  0.0726  0.1686  0.6767
   56DOPE  H15R 7166   5.301   7.237  12.665  0.3934  0.4714  0.7403
   56DOPE  H15S 7167   5.468   7.185  12.691 -0.6413  1.9010 -0.7660
   56DOPE  C216 7168   5.346   7.157  12.870  0.5524 -0.3647  0.2567
   56DOPE  H16R 7169   5.408   7.084  12.927  0.5706 -1.0760 -0.6463
   56DOPE  H16S 7170   5.242   7.142  12.906  0.2269  1.0922 -0.0061
   56DOPE  C217 7171   5.391   7.297  12.927 -0.1667  0.3568  0.0403
   56DOPE  H17R 7172   5.344   7.380  12.870  0.2606  0.3251 -0.3619
   56DOPE  H17S 7173   5.498   7.322  12.914 -0.4756  1.6769 -0.1178
   56DOPE  C218 7174   5.347   7.307  13.072 -0.6098  0.1811  0.3897
   56DOPE  H18R 7175   5.348   7.407  13.121 -0.0045  1.2147 -1.6081
   56DOPE  H18S 7176   5.400   7.236  13.138  1.1641  1.6392  0.6141
   56DOPE  H18T 7177   5.246   7.263  13.086  0.6018 -3.6914 -1.5651
   56DOPE   C33 7178   5.857   7.117  11.719 -0.6086  0.4532 -0.3495
   56DOPE   H3X 7179   5.815   7.220  11.715 -1.4514  0.0868 -3.1742
   56DOPE   H3Y 7180   5.967   7.127  11.725 -0.2158 -2.2269 -1.3756
   56DOPE   C34 7181   5.820   7.036  11.845 -0.2218  0.1493 -0.1961
   56DOPE   H4X 7182   5.709   7.029  11.854 -0.3614  0.9821 -1.0632
   56DOPE   H4Y 7183   5.855   6.930  11.844 -1.6399 -0.3554  0.1751
   56DOPE   C35 7184   5.865   7.105  11.982  0.0145  0.5233  0.1584
   56DOPE   H5X 7185   5.839   7.211  11.967  1.3538  0.9335  0.6128
   56DOPE   H5Y 7186   5.976   7.107  11.982  0.1431 -2.0547  1.6954
   56DOPE   C36 7187   5.807   7.052  12.118  0.0474  0.1526  0.7734
   56DOPE   H6X 7188   5.828   6.943  12.109  0.8961  0.4554 -1.8494
   56DOPE   H6Y 7189   5.696   7.055  12.115  0.0339 -0.3175 -2.1136
   56DOPE   C37 7190   5.871   7.133  12.230 -0.0406 -0.1241 -0.4340
   56DOPE   H7X 7191   5.981   7.121  12.237 -0.1152 -0.6209 -0.1103
   56DOPE   H7Y 7192   5.850   7.239  12.204 -2.0993 -0.6053 -0.9683
   56DOPE   C38 7193   5.813   7.124  12.371 -0.2305 -0.7966 -0.4085
   56DOPE   H8X 7194   5.705   7.141  12.358  0.0354  0.7118 -0.8210
   56DOPE   H8Y 7195   5.848   7.205  12.440 -0.4316  0.3687 -1.6284
   56DOPE   C39 7196   5.830   6.987  12.431  0.4009  0.0281 -0.2322
   56DOPE   H9X 7197   5.833   6.906  12.357 -0.4622 -1.6165  1.4531
   56DOPE  C310 7198   5.839   6.951  12.565 -0.2061 -0.7932  0.0744
   56DOPE  H10X 7199   5.844   6.847  12.599 -1.0655 -0.3931  1.4966
   56DOPE  C311 7200   5.823   7.055  12.668  0.1880 -0.3112 -0.3413
   56DOPE  H11X 7201   5.912   7.110  12.704 -0.1357  1.7000 -2.4037
   56DOPE  H11Y 7202   5.754   7.136  12.635  1.9374  1.1027 -0.6496
   56DOPE  C312 7203   5.756   6.992  12.791 -0.0389 -0.3383 -0.0911
   56DOPE  H12X 7204   5.679   6.915  12.768 -0.2143 -0.1164 -0.2532
   56DOPE  H12Y 7205   5.712   7.073  12.853 -0.2442  1.9578 -3.0071
   56DOPE  C313 7206   5.860   6.906  12.878  0.6675  0.3753  0.3383
   56DOPE  H13X 7207   5.800   6.856  12.956 -0.6599 -0.6218 -1.2452
   56DOPE  H13Y 7208   5.901   6.829  12.809  2.3591  1.4037  0.1504
   56DOPE  C314 7209   5.973   6.999  12.932  0.2328  0.2114  0.6737
   56DOPE  H14X 7210   6.043   7.040  12.857 -0.0868  1.7101  1.1687
   56DOPE  H14Y 7211   6.035   6.937  13.000 -0.0346 -1.9865 -0.9752
   56DOPE  C315 7212   5.919   7.104  13.033  0.2883  0.1258 -0.3215
   56DOPE  H15X 7213   5.873   7.181  12.967 -1.3313 -1.5555 -1.2455
   56DOPE  H15Y 7214   6.013   7.142  13.079  1.3224 -3.7523  1.0919
   56DOPE  C316 7215   5.825   7.060  13.142  0.1863 -0.2943 -0.0247
   56DOPE  H16X 7216   5.747   6.989  13.107 -0.7785  0.6073  0.2376
   56DOPE  H16Y 7217   5.762   7.142  13.183 -2.6806 -2.7892  0.9308
   56DOPE  C317 7218   5.903   7.003  13.268 -0.4525  0.0108  0.0169
   56DOPE  H17X 7219   5.984   6.938  13.229  1.6515  0.5522  3.1874
   56DOPE  H17Y 7220   5.956   7.083  13.323  0.5521 -1.9533  2.0463
   56DOPE  C318 7221   5.814   6.917  13.359 -0.4964 -0.2427 -0.2805
   56DOPE  H18X 7222   5.740   6.987  13.403  1.1541  1.0512  0.5481
   56DOPE  H18Y 7223   5.768   6.832  13.303  1.2258 -1.8676  0.6660
   56DOPE  H18Z 7224   5.874   6.868  13.439  1.5524 -0.4403 -1.8514
   57DOPE     N 7225   0.497   3.613  11.754 -0.3402  0.6895 -0.5538
   57DOPE   HN1 7226   0.581   3.622  11.814 -1.6528 -0.9775  1.7207
   57DOPE   HN2 7227   0.451   3.706  11.751 -2.3729 -0.2830 -2.5967
   57DOPE   HN3 7228   0.432   3.550  11.805  1.5273  1.3940  3.0639
   57DOPE   C12 7229   0.522   3.558  11.621 -0.4692 -0.6461  0.0868
   57DOPE  H12A 7230   0.579   3.463  11.627 -2.0330 -1.5613  1.3202
   57DOPE  H12B 7231   0.575   3.639  11.566 -1.9529  0.9486  0.8800
   57DOPE   C11 7232   0.395   3.511  11.538  0.1558  0.1069 -0.2656
   57DOPE  H11A 7233   0.366   3.411  11.576 -1.6877  0.5908 -0.3025
   57DOPE  H11B 7234   0.442   3.486  11.440  1.4526  0.1178  0.3276
   57DOPE     P 7235   0.146   3.559  11.486  0.5743  0.3913 -0.0264
   57DOPE   O13 7236   0.141   3.409  11.457  0.1023 -0.7169 -0.1849
   57DOPE   O14 7237   0.098   3.658  11.383  0.9108 -0.5515  0.3775
   57DOPE   O11 7238   0.055   3.585  11.615 -0.2160 -0.5906 -0.2084
   57DOPE   O12 7239   0.292   3.602  11.525  0.2843 -1.0204 -0.1224
   57DOPE    C1 7240   0.082   3.683  11.710 -0.0167  0.5454  0.7041
   57DOPE    HA 7241   0.040   3.781  11.678 -0.0476  0.5223  0.6730
   57DOPE    HB 7242   0.191   3.706  11.718 -0.1321  1.1089  0.7207
   57DOPE    C2 7243   0.032   3.649  11.852 -0.4645 -0.6165  0.0633
   57DOPE    HS 7244   0.090   3.717  11.917 -0.5999  0.0227 -0.4700
   57DOPE   O21 7245   0.046   3.512  11.885 -0.2720 -0.2417 -0.4841
   57DOPE   C21 7246   0.171   3.479  11.928  0.3550 -0.2853  0.1526
   57DOPE   O22 7247   0.275   3.554  11.920  0.1166  0.4750  0.3049
   57DOPE   C22 7248   0.183   3.346  11.998  0.1310 -0.2853 -0.1797
   57DOPE   H2R 7249   0.204   3.272  11.918 -0.1730  1.1483 -1.6538
   57DOPE   H2S 7250   0.083   3.329  12.043  0.0686  1.1476  0.2849
   57DOPE    C3 7251  -0.115   3.692  11.863  0.0152  0.0437  0.4367
   57DOPE    HX 7252  -0.177   3.604  11.833 -0.2200  0.1633  0.5648
   57DOPE    HY 7253  -0.132   3.773  11.789  1.4747  0.2641  0.3316
   57DOPE   O31 7254  -0.153   3.726  11.996 -0.1424 -0.2459  0.5705
   57DOPE   C31 7255  -0.183   3.847  12.031 -0.0212  0.0008 -0.1405
   57DOPE   O32 7256  -0.181   3.951  11.969 -0.7376 -0.1160 -0.2229
   57DOPE   C32 7257  -0.228   3.853  12.179 -0.6841 -0.9565  0.1957
   57DOPE   H2X 7258  -0.164   3.776  12.227 -0.0932  0.5335  1.9346
   57DOPE   H2Y 7259  -0.186   3.948  12.219 -3.0753 -0.0595  0.7201
   57DOPE   C23 7260   0.295   3.347  12.101 -0.3691  0.9075 -0.0614
   57DOPE   H3R 7261   0.392   3.365  12.049 -0.9156 -0.8393 -1.8172
   57DOPE   H3S 7262   0.296   3.245  12.145  1.1502  1.6703  1.8352
   57DOPE   C24 7263   0.277   3.434  12.224  0.0561 -0.8833  0.3819
   57DOPE   H4R 7264   0.293   3.537  12.185 -2.1180 -1.5053 -2.4421
   57DOPE   H4S 7265   0.364   3.412  12.290 -1.5686  0.7136  3.2813
   57DOPE   C25 7266   0.145   3.430  12.292 -0.5370 -0.2557  0.3257
   57DOPE   H5R 7267   0.122   3.326  12.324 -0.8781  0.1490  1.4410
   57DOPE   H5S 7268   0.063   3.463  12.224 -0.2602 -1.8689 -0.8462
   57DOPE   C26 7269   0.146   3.522  12.422  0.7653 -0.5149  0.3472
   57DOPE   H6R 7270   0.040   3.536  12.451  1.2086  0.8054  1.4567
   57DOPE   H6S 7271   0.179   3.624  12.393  0.3689 -0.5559 -0.2721
   57DOPE   C27 7272   0.217   3.462  12.548 -0.3881 -0.7598 -0.1943
   57DOPE   H7R 7273   0.327   3.471  12.541 -0.2287  0.7711  2.6792
   57DOPE   H7S 7274   0.182   3.358  12.561  0.2985 -1.1208 -1.1360
   57DOPE   C28 7275   0.179   3.530  12.677 -0.1791  0.5616 -0.4731
   57DOPE   H8R 7276   0.198   3.457  12.759  0.4394  1.6583  0.3763
   57DOPE   H8S 7277   0.069   3.540  12.684 -0.0128  2.2591 -0.0010
   57DOPE   C29 7278   0.235   3.669  12.695 -0.4490  0.0368 -0.1261
   57DOPE   H9R 7279   0.236   3.732  12.605  0.1580 -0.1509 -0.2573
   57DOPE  C210 7280   0.259   3.727  12.816  0.5838  0.0311  0.0896
   57DOPE  H10R 7281   0.294   3.831  12.814 -1.1017  0.6215 -1.5325
   57DOPE  C211 7282   0.233   3.669  12.952  0.0129 -0.4051 -0.9795
   57DOPE  H11R 7283   0.333   3.643  12.994  0.1961 -1.0601 -1.7964
   57DOPE  H11S 7284   0.185   3.569  12.946 -0.8393  0.0288 -1.5153
   57DOPE  C212 7285   0.166   3.770  13.045  0.0941  0.0087  0.9438
   57DOPE  H12R 7286   0.071   3.813  13.008  0.9154  0.4262 -0.8012
   57DOPE  H12S 7287   0.238   3.853  13.067  0.8475 -0.6317  0.9531
   57DOPE  C213 7288   0.135   3.705  13.186  0.2494  0.1638  0.4779
   57DOPE  H13R 7289   0.204   3.619  13.196  0.9075  0.8207  1.9581
   57DOPE  H13S 7290   0.027   3.679  13.181  0.2506 -0.1549  1.7469
   57DOPE  C214 7291   0.175   3.796  13.300  0.6264 -0.1727 -0.1725
   57DOPE  H14R 7292   0.128   3.895  13.279 -0.9992 -1.2198 -1.7862
   57DOPE  H14S 7293   0.285   3.813  13.298  1.1601 -3.0756  0.6945
   57DOPE  C215 7294   0.133   3.736  13.435 -0.4074  0.0379 -0.1305
   57DOPE  H15R 7295   0.181   3.637  13.448 -0.1467  0.5325  3.6030
   57DOPE  H15S 7296   0.022   3.737  13.430 -0.4589  2.3067  0.1653
   57DOPE  C216 7297   0.182   3.828  13.543  0.0870 -0.6650 -0.0897
   57DOPE  H16R 7298   0.160   3.934  13.520  0.5746 -0.5403  0.0019
   57DOPE  H16S 7299   0.293   3.825  13.549  0.1434  0.1974 -0.5375
   57DOPE  C217 7300   0.134   3.786  13.681 -0.5078 -0.8954  0.0976
   57DOPE  H17R 7301   0.167   3.870  13.747  1.3130 -2.4250  1.2566
   57DOPE  H17S 7302   0.188   3.693  13.707  0.0338 -1.0741 -1.5880
   57DOPE  C218 7303  -0.017   3.776  13.699 -0.3524 -0.0380 -0.1938
   57DOPE  H18R 7304  -0.074   3.871  13.693 -1.6051 -0.7002  0.8707
   57DOPE  H18S 7305  -0.037   3.736  13.801  1.0264  1.1275  0.5858
   57DOPE  H18T 7306  -0.066   3.715  13.621  0.5065 -2.3447  0.9533
   57DOPE   C33 7307  -0.383   3.853  12.191 -0.8173 -0.2978 -0.0480
   57DOPE   H3X 7308  -0.428   3.768  12.135 -2.1312  1.0975 -1.2034
   57DOPE   H3Y 7309  -0.420   3.936  12.128 -2.9336 -1.7083 -0.7917
   57DOPE   C34 7310  -0.458   3.858  12.322 -0.3422  0.0296 -0.0965
   57DOPE   H4X 7311  -0.408   3.947  12.367 -0.7251  0.8532 -1.2388
   57DOPE   H4Y 7312  -0.566   3.885  12.315 -0.9173 -2.0046  0.3542
   57DOPE   C35 7313  -0.452   3.725  12.397  0.5508 -0.3264 -0.3798
   57DOPE   H5X 7314  -0.351   3.679  12.394 -0.4694 -2.7193 -0.8302
   57DOPE   H5Y 7315  -0.515   3.648  12.348  0.3812  0.3116 -1.1851
   57DOPE   C36 7316  -0.506   3.733  12.546 -0.7627 -0.4583  0.6628
   57DOPE   H6X 7317  -0.512   3.841  12.573 -0.1852  0.3799 -2.2399
   57DOPE   H6Y 7318  -0.425   3.687  12.606 -0.2208 -0.7467 -0.2672
   57DOPE   C37 7319  -0.637   3.652  12.570 -0.2933 -0.1861 -0.3281
   57DOPE   H7X 7320  -0.717   3.705  12.514  1.0833  2.7011  0.2554
   57DOPE   H7Y 7321  -0.628   3.549  12.530 -0.5172 -0.2392 -0.2425
   57DOPE   C38 7322  -0.680   3.652  12.718 -0.1177  0.5147 -0.5515
   57DOPE   H8X 7323  -0.784   3.613  12.720  0.6194 -1.6317 -1.4786
   57DOPE   H8Y 7324  -0.672   3.753  12.763 -1.4971 -0.3337  1.7791
   57DOPE   C39 7325  -0.599   3.552  12.802 -0.1484 -0.2055  0.1604
   57DOPE   H9X 7326  -0.538   3.475  12.753  2.5890  0.9502  1.4804
   57DOPE  C310 7327  -0.578   3.552  12.935  0.0450 -0.3760 -0.1615
   57DOPE  H10X 7328  -0.489   3.496  12.967  1.1214 -0.4362 -2.9362
   57DOPE  C311 7329  -0.626   3.656  13.027 -0.1759 -0.6401 -0.3156
   57DOPE  H11X 7330  -0.539   3.719  13.053  1.2092 -1.4875 -2.5638
   57DOPE  H11Y 7331  -0.699   3.731  12.988  0.2582  0.8707  1.6496
   57DOPE  C312 7332  -0.692   3.615  13.161  0.3292  0.3232  0.1411
   57DOPE  H12X 7333  -0.697   3.711  13.216  2.0883  0.2201  0.5207
   57DOPE  H12Y 7334  -0.631   3.539  13.214  0.1309 -1.1479 -1.6458
   57DOPE  C313 7335  -0.835   3.564  13.145 -0.4174  0.3148 -0.1820
   57DOPE  H13X 7336  -0.901   3.644  13.105  0.2532  1.3761  0.7809
   57DOPE  H13Y 7337  -0.835   3.477  13.076 -0.8778  1.5883 -1.8294
   57DOPE  C314 7338  -0.896   3.516  13.279  0.5998 -0.1011  0.0628
   57DOPE  H14X 7339  -0.847   3.420  13.306 -2.0148 -2.3464 -2.4696
   57DOPE  H14Y 7340  -1.001   3.487  13.258  0.4637 -0.1443  0.7567
   57DOPE  C315 7341  -0.907   3.627  13.390  0.4654 -0.0315  0.1431
   57DOPE  H15X 7342  -0.974   3.711  13.361  1.9547  1.5320  1.0228
   57DOPE  H15Y 7343  -0.805   3.669  13.402  0.1542  0.2267  2.0570
   57DOPE  C316 7344  -0.953   3.575  13.530 -0.4582  0.0392  0.5450
   57DOPE  H16X 7345  -0.897   3.488  13.570 -3.1397 -0.8890  2.5847
   57DOPE  H16Y 7346  -1.056   3.537  13.512 -0.5539  1.0366 -1.1812
   57DOPE  C317 7347  -0.954   3.676  13.643  1.0422 -0.1786 -0.4386
   57DOPE  H17X 7348  -0.850   3.708  13.665  0.6349  1.1402 -0.2914
   57DOPE  H17Y 7349  -1.016   3.764  13.614  0.6575 -0.1774  0.3529
   57DOPE  C318 7350  -1.012   3.622  13.780 -0.5906 -0.5443  0.8177
   57DOPE  H18X 7351  -1.015   3.717  13.837  0.2805  0.1950 -0.3075
   57DOPE  H18Y 7352  -1.110   3.573  13.765 -0.4750 -0.6499  0.3620
   57DOPE  H18Z 7353  -0.933   3.552  13.815  1.0918  0.9691  0.2700
   58DOPE     N 7354   5.366   5.729  10.866  0.0228  0.3767 -0.2317
   58DOPE   HN1 7355   5.295   5.750  10.793 -0.3647  3.4551  0.8757
   58DOPE   HN2 7356   5.453   5.717  10.811 -0.7419 -0.7100 -1.2432
   58DOPE   HN3 7357   5.345   5.631  10.895  0.7411  0.1164 -0.5693
   58DOPE   C12 7358   5.375   5.839  10.967  0.5007  0.4191  0.4993
   58DOPE  H12A 7359   5.456   5.800  11.032  2.0625 -0.9157 -2.0823
   58DOPE  H12B 7360   5.279   5.837  11.023  0.4185 -2.2501  0.3625
   58DOPE   C11 7361   5.405   5.979  10.912  0.7519 -0.1637  0.1054
   58DOPE  H11A 7362   5.497   5.977  10.849  2.0671  2.2247  1.7843
   58DOPE  H11B 7363   5.425   6.048  10.996 -0.7364 -0.4894  0.7499
   58DOPE     P 7364   5.160   6.077  10.882  0.0057  0.0343  0.3339
   58DOPE   O13 7365   5.064   5.966  10.847  0.0406 -0.5765 -0.5333
   58DOPE   O14 7366   5.130   6.214  10.832  0.0594 -0.1865 -0.4139
   58DOPE   O11 7367   5.181   6.077  11.041  0.0174  0.4797 -0.2687
   58DOPE   O12 7368   5.302   6.027  10.827 -0.0693  0.2818  0.1473
   58DOPE    C1 7369   5.145   6.191  11.121  0.6928  0.6845  0.4459
   58DOPE    HA 7370   5.036   6.181  11.138  0.6586 -1.2764 -0.7100
   58DOPE    HB 7371   5.169   6.283  11.063 -0.0549  0.4435 -0.2693
   58DOPE    C2 7372   5.220   6.199  11.246 -0.2153  0.5044 -0.4295
   58DOPE    HS 7373   5.318   6.249  11.231 -0.6268  2.2482  2.0664
   58DOPE   O21 7374   5.240   6.064  11.298 -0.0189 -0.6640  0.0907
   58DOPE   C21 7375   5.360   6.031  11.343 -0.1526 -0.2092 -0.5995
   58DOPE   O22 7376   5.464   6.091  11.329 -0.5863  0.2989  0.1699
   58DOPE   C22 7377   5.345   5.897  11.414  0.3510 -0.1862 -0.2293
   58DOPE   H2R 7378   5.447   5.852  11.421 -0.2013 -1.5983 -0.8680
   58DOPE   H2S 7379   5.274   5.832  11.359  1.3781 -1.7074  0.1679
   58DOPE    C3 7380   5.144   6.285  11.357  0.4999 -0.0916  0.0234
   58DOPE    HX 7381   5.040   6.245  11.356 -0.9162  3.2309 -1.2399
   58DOPE    HY 7382   5.144   6.389  11.317  1.5587 -0.2858 -0.5338
   58DOPE   O31 7383   5.194   6.280  11.491 -0.3640  0.5388 -0.3156
   58DOPE   C31 7384   5.115   6.349  11.579  0.0499  0.0568  0.2578
   58DOPE   O32 7385   5.021   6.419  11.547 -0.0339 -0.9964 -0.9855
   58DOPE   C32 7386   5.171   6.329  11.722  0.2764 -0.4772 -1.0335
   58DOPE   H2X 7387   5.099   6.256  11.764  1.6154 -1.2785 -0.0589
   58DOPE   H2Y 7388   5.264   6.272  11.740 -0.2259 -0.5751  1.7165
   58DOPE   C23 7389   5.294   5.904  11.560  0.5438 -0.0720  0.7502
   58DOPE   H3R 7390   5.281   5.797  11.586  2.6756 -0.6959 -0.4875
   58DOPE   H3S 7391   5.193   5.951  11.565  1.5254  2.5851 -1.5202
   58DOPE   C24 7392   5.398   5.982  11.648  0.3024 -0.4261  0.7005
   58DOPE   H4R 7393   5.402   6.088  11.614  1.4384 -0.5448  0.4224
   58DOPE   H4S 7394   5.498   5.935  11.634 -0.0710 -1.2725  0.8231
   58DOPE   C25 7395   5.371   5.971  11.792  0.4427  0.7002  0.1531
   58DOPE   H5R 7396   5.351   5.866  11.821 -1.6123  0.8006 -0.7601
   58DOPE   H5S 7397   5.282   6.033  11.815  0.2926  1.2969 -1.8501
   58DOPE   C26 7398   5.491   6.030  11.879  0.2614  0.3073  0.0905
   58DOPE   H6R 7399   5.522   6.128  11.837  1.4852 -0.1715 -0.1783
   58DOPE   H6S 7400   5.583   5.968  11.882 -0.1363 -0.2588  2.0701
   58DOPE   C27 7401   5.447   6.064  12.023  0.1128 -0.5714 -0.3950
   58DOPE   H7R 7402   5.352   6.121  12.012  1.1898  1.2945 -0.5381
   58DOPE   H7S 7403   5.518   6.133  12.072 -0.1689 -1.7382  1.7767
   58DOPE   C28 7404   5.418   5.943  12.109 -0.7160  1.0289 -0.4127
   58DOPE   H8R 7405   5.339   5.871  12.077  1.9005 -3.9750  2.9745
   58DOPE   H8S 7406   5.387   5.975  12.211  1.5188  0.2208  0.5835
   58DOPE   C29 7407   5.538   5.853  12.126 -0.0056 -0.4276 -0.1187
   58DOPE   H9R 7408   5.614   5.881  12.200 -1.5846 -1.8979  2.1979
   58DOPE  C210 7409   5.553   5.732  12.066  0.4025 -0.0258 -0.2105
   58DOPE  H10R 7410   5.635   5.663  12.092 -0.1024 -0.7951 -0.6172
   58DOPE  C211 7411   5.448   5.663  11.986 -0.6681 -0.3881  0.5113
   58DOPE  H11R 7412   5.358   5.725  11.964  1.0810  3.0050  2.3105
   58DOPE  H11S 7413   5.420   5.570  12.041 -2.1171 -1.0344 -1.2081
   58DOPE  C212 7414   5.524   5.627  11.857  0.0354 -0.2797 -0.5784
   58DOPE  H12R 7415   5.608   5.559  11.882  0.7569  0.5894 -0.5952
   58DOPE  H12S 7416   5.575   5.719  11.821  0.5238  1.1615  3.3511
   58DOPE  C213 7417   5.432   5.580  11.755 -0.0656  0.8344  0.1714
   58DOPE  H13R 7418   5.350   5.653  11.744 -1.7943 -1.2350 -1.5288
   58DOPE  H13S 7419   5.387   5.484  11.787  1.8113 -0.1695 -0.0510
   58DOPE  C214 7420   5.499   5.545  11.621 -0.3297  0.2932  1.3469
   58DOPE  H14R 7421   5.560   5.453  11.637  0.5195  0.2425 -1.6127
   58DOPE  H14S 7422   5.559   5.627  11.577 -0.1469 -0.3761  0.3264
   58DOPE  C215 7423   5.393   5.506  11.513  0.0901  0.7956  0.2313
   58DOPE  H15R 7424   5.320   5.589  11.502  0.4935  1.1314  0.0688
   58DOPE  H15S 7425   5.334   5.416  11.541 -1.1523  0.9202 -1.7809
   58DOPE  C216 7426   5.458   5.470  11.372  0.1981  0.8169 -0.4625
   58DOPE  H16R 7427   5.491   5.364  11.370 -0.4306  0.5228  2.0288
   58DOPE  H16S 7428   5.551   5.529  11.357  1.7857 -2.1838 -4.1748
   58DOPE  C217 7429   5.365   5.510  11.263  0.2805 -0.4552  0.5028
   58DOPE  H17R 7430   5.407   5.503  11.161 -1.6868 -1.5243 -0.2941
   58DOPE  H17S 7431   5.342   5.619  11.269 -3.2604 -0.9678 -1.3214
   58DOPE  C218 7432   5.236   5.431  11.268 -0.8609  0.0465  0.0663
   58DOPE  H18R 7433   5.176   5.462  11.357 -0.3029  0.5608  0.2639
   58DOPE  H18S 7434   5.253   5.322  11.279  2.1825  0.6317  2.4016
   58DOPE  H18T 7435   5.192   5.469  11.174  1.1885  0.7636 -0.6536
   58DOPE   C33 7436   5.174   6.459  11.812  0.1950  0.3514  0.6041
   58DOPE   H3X 7437   5.067   6.482  11.833 -0.5736  1.0744 -3.2871
   58DOPE   H3Y 7438   5.214   6.545  11.753  1.3504  0.5779  1.6790
   58DOPE   C34 7439   5.269   6.447  11.932  0.1318 -0.0534  0.4019
   58DOPE   H4X 7440   5.369   6.406  11.905  0.2026  0.4199 -0.0772
   58DOPE   H4Y 7441   5.285   6.545  11.981  0.8809  0.1409 -0.1946
   58DOPE   C35 7442   5.197   6.361  12.036  0.0609 -0.3634 -0.2207
   58DOPE   H5X 7443   5.202   6.260  11.989 -0.4861  0.6026 -2.5286
   58DOPE   H5Y 7444   5.093   6.390  12.059 -0.5056 -0.6894 -2.1505
   58DOPE   C36 7445   5.280   6.363  12.172  0.3577  0.1198 -0.1224
   58DOPE   H6X 7446   5.288   6.468  12.207  1.3155  0.1013 -0.2634
   58DOPE   H6Y 7447   5.386   6.332  12.160  1.0048  1.3157  2.0580
   58DOPE   C37 7448   5.214   6.274  12.277  0.0660  0.6978  0.2025
   58DOPE   H7X 7449   5.112   6.314  12.292 -0.4229  0.9216 -3.1225
   58DOPE   H7Y 7450   5.195   6.173  12.234 -0.6446  0.6072  0.7096
   58DOPE   C38 7451   5.300   6.244  12.406  0.0474 -0.4679 -0.1562
   58DOPE   H8X 7452   5.316   6.346  12.446 -0.2304 -0.5955  0.2878
   58DOPE   H8Y 7453   5.393   6.192  12.373  0.2123 -0.5797  0.4723
   58DOPE   C39 7454   5.237   6.150  12.508 -0.6316  0.0948  0.2281
   58DOPE   H9X 7455   5.263   6.044  12.521 -0.7264  0.2367  1.7054
   58DOPE  C310 7456   5.149   6.196  12.597 -0.6947  0.4624 -0.9760
   58DOPE  H10X 7457   5.125   6.122  12.675 -0.7976 -0.3127 -1.7369
   58DOPE  C311 7458   5.104   6.338  12.618 -0.2441 -0.1480  0.2784
   58DOPE  H11X 7459   5.138   6.400  12.532  1.0205 -2.1717 -0.7533
   58DOPE  H11Y 7460   4.993   6.345  12.620 -0.2730  0.4052 -1.4765
   58DOPE  C312 7461   5.153   6.395  12.754 -0.1448 -0.5691 -0.5958
   58DOPE  H12X 7462   5.136   6.505  12.761 -3.7924 -1.1090  1.3699
   58DOPE  H12Y 7463   5.263   6.384  12.766 -0.0268  0.1432 -0.9704
   58DOPE  C313 7464   5.096   6.327  12.880 -0.1142  0.5723  0.2519
   58DOPE  H13X 7465   4.988   6.313  12.858 -0.1268  1.7330 -0.5246
   58DOPE  H13Y 7466   5.141   6.226  12.888 -0.5120  0.0301 -2.9895
   58DOPE  C314 7467   5.119   6.394  13.013 -0.3531 -0.4056  0.0915
   58DOPE  H14X 7468   5.063   6.488  12.999 -2.0720 -1.6346 -1.9315
   58DOPE  H14Y 7469   5.225   6.429  13.012 -1.0041  1.7404  1.4835
   58DOPE  C315 7470   5.069   6.312  13.134  0.0353  0.0613 -0.7700
   58DOPE  H15X 7471   5.128   6.219  13.121  2.8565  1.4523  1.0137
   58DOPE  H15Y 7472   4.963   6.278  13.133  0.2647 -0.6453 -1.2501
   58DOPE  C316 7473   5.105   6.371  13.271  0.2202 -0.1745  0.2446
   58DOPE  H16X 7474   5.046   6.463  13.289 -0.3128 -0.5428  0.4020
   58DOPE  H16Y 7475   5.209   6.408  13.263 -0.0674  0.7601  0.6783
   58DOPE  C317 7476   5.098   6.268  13.386 -0.1528 -0.3707 -0.2736
   58DOPE  H17X 7477   5.005   6.209  13.372 -1.2151  1.1914 -0.0937
   58DOPE  H17Y 7478   5.189   6.205  13.379  1.6763  1.9538  0.9287
   58DOPE  C318 7479   5.079   6.344  13.525  0.5711  0.4208  0.4659
   58DOPE  H18X 7480   5.042   6.284  13.610  0.4164 -1.3644 -0.8010
   58DOPE  H18Y 7481   5.176   6.394  13.550  2.5717 -1.5802 -2.5856
   58DOPE  H18Z 7482   5.006   6.427  13.509 -0.2567 -0.2682  0.6397
   59DOPE     N 7483   5.510   2.274  11.166  0.8156 -0.1865 -0.1417
   59DOPE   HN1 7484   5.588   2.227  11.117  0.6423  0.3374 -0.9334
   59DOPE   HN2 7485   5.418   2.253  11.123  1.2402 -0.0292 -1.1586
   59DOPE   HN3 7486   5.518   2.376  11.149  2.1280 -0.6026 -2.3557
   59DOPE   C12 7487   5.524   2.233  11.310 -0.1036 -0.3144  0.2303
   59DOPE  H12A 7488   5.497   2.126  11.327 -0.1819  0.0133  2.3891
   59DOPE  H12B 7489   5.449   2.284  11.375 -1.0862 -1.4042 -0.0085
   59DOPE   C11 7490   5.662   2.271  11.362  0.4698 -0.3337 -0.1695
   59DOPE  H11A 7491   5.658   2.251  11.472  0.2765 -1.0118 -0.2922
   59DOPE  H11B 7492   5.667   2.381  11.347 -1.3280 -0.1711  0.1961
   59DOPE     P 7493   5.811   2.061  11.315 -0.1629 -0.2806 -0.1878
   59DOPE   O13 7494   5.953   2.032  11.275 -0.3683 -0.2448 -0.1130
   59DOPE   O14 7495   5.705   1.977  11.259 -0.5275  0.7393  0.0643
   59DOPE   O11 7496   5.779   2.036  11.468 -0.8121  0.7761  0.1409
   59DOPE   O12 7497   5.776   2.215  11.303  0.0595  0.1601  0.3529
   59DOPE    C1 7498   5.865   2.069  11.575 -0.6322  0.1184  0.4861
   59DOPE    HA 7499   5.812   2.119  11.658 -0.1302  1.2365  0.1452
   59DOPE    HB 7500   5.947   2.137  11.544  0.8978 -0.7355  2.3900
   59DOPE    C2 7501   5.938   1.950  11.638 -0.3842  0.1176  0.2415
   59DOPE    HS 7502   5.989   1.895  11.556  2.6988  0.0466  2.0476
   59DOPE   O21 7503   5.850   1.866  11.718 -0.1896 -0.1460 -0.2040
   59DOPE   C21 7504   5.901   1.741  11.734 -0.2136 -0.9911  0.0773
   59DOPE   O22 7505   5.985   1.692  11.664 -0.0325  0.3536 -0.7574
   59DOPE   C22 7506   5.829   1.674  11.847  0.4831  0.2420  0.2156
   59DOPE   H2R 7507   5.767   1.591  11.808  3.0371 -1.4850 -0.4237
   59DOPE   H2S 7508   5.761   1.748  11.895  0.1782 -0.9341  1.6858
   59DOPE    C3 7509   6.068   1.993  11.716 -0.4588  0.5027 -0.2461
   59DOPE    HX 7510   6.125   2.071  11.662 -1.6906  1.9023  0.4029
   59DOPE    HY 7511   6.133   1.904  11.735  1.2400  1.3919 -1.6473
   59DOPE   O31 7512   6.031   2.044  11.849  0.0195  0.2845  0.0767
   59DOPE   C31 7513   6.026   2.174  11.862 -0.3037  0.2949 -0.6104
   59DOPE   O32 7514   6.050   2.257  11.779  0.2526  0.2993  0.2806
   59DOPE   C32 7515   5.976   2.208  12.004 -0.4468  0.2963 -0.5671
   59DOPE   H2X 7516   5.866   2.226  11.999 -0.7667 -1.0774  0.9043
   59DOPE   H2Y 7517   5.991   2.118  12.066 -3.3425 -0.2219 -0.5053
   59DOPE   C23 7518   5.936   1.607  11.939 -0.0047 -1.0837 -0.8886
   59DOPE   H3R 7519   6.003   1.536  11.885  2.8000 -0.6371  1.7568
   59DOPE   H3S 7520   5.880   1.551  12.016  0.9909  1.1164  1.5954
   59DOPE   C24 7521   6.023   1.716  12.014 -0.2958 -0.2376  0.5749
   59DOPE   H4R 7522   6.065   1.785  11.938  2.5752  0.7864  2.8918
   59DOPE   H4S 7523   6.113   1.661  12.047 -0.1920 -0.2090  0.3406
   59DOPE   C25 7524   5.974   1.796  12.133  0.4623  0.2573 -0.2825
   59DOPE   H5R 7525   5.892   1.863  12.100  0.4063  1.8768  2.7935
   59DOPE   H5S 7526   6.051   1.872  12.158 -0.7615  0.6937  2.4853
   59DOPE   C26 7527   5.938   1.696  12.255  0.2689  0.5949  0.3998
   59DOPE   H6R 7528   6.027   1.629  12.266 -0.0216 -0.4311 -2.4592
   59DOPE   H6S 7529   5.854   1.634  12.216  1.0155 -0.8663  1.0037
   59DOPE   C27 7530   5.896   1.751  12.390  0.4272  0.0909  0.0803
   59DOPE   H7R 7531   5.800   1.803  12.372 -1.1353 -2.7533 -0.3794
   59DOPE   H7S 7532   5.965   1.820  12.444 -1.1065  1.2877  0.5936
   59DOPE   C28 7533   5.871   1.636  12.492 -0.0641  0.2861  0.3485
   59DOPE   H8R 7534   5.973   1.604  12.522 -0.0767  0.1118  0.2075
   59DOPE   H8S 7535   5.821   1.550  12.442  1.0554  0.2535 -0.7565
   59DOPE   C29 7536   5.793   1.679  12.613  0.5018 -0.2503  0.0549
   59DOPE   H9R 7537   5.692   1.714  12.589  0.1455 -0.2704  1.4759
   59DOPE  C210 7538   5.833   1.677  12.743 -0.0286  0.0451  0.4576
   59DOPE  H10R 7539   5.757   1.701  12.819 -1.3700 -0.5724 -0.6341
   59DOPE  C211 7540   5.959   1.624  12.797 -0.1925  0.0816  0.1176
   59DOPE  H11R 7541   6.024   1.586  12.716  0.1372  0.1120  0.3664
   59DOPE  H11S 7542   5.934   1.547  12.873  1.9714 -1.4884 -0.7034
   59DOPE  C212 7543   6.027   1.742  12.865  0.1531 -0.3155  0.0247
   59DOPE  H12R 7544   6.029   1.837  12.807 -1.3908  1.2982  2.4068
   59DOPE  H12S 7545   6.135   1.720  12.881 -0.1013 -1.3032  0.4294
   59DOPE  C213 7546   5.969   1.788  13.004 -0.0838 -0.2708 -0.4209
   59DOPE  H13R 7547   5.861   1.811  12.993 -0.0590  0.5659  0.8419
   59DOPE  H13S 7548   6.017   1.875  13.053  1.4149 -1.1215 -0.3034
   59DOPE  C214 7549   5.973   1.673  13.106  0.0686  0.0241  0.2937
   59DOPE  H14R 7550   6.067   1.616  13.092 -1.4746 -2.7794  0.8322
   59DOPE  H14S 7551   5.899   1.594  13.084  0.3436 -1.1294  3.1440
   59DOPE  C215 7552   5.965   1.720  13.257 -0.5158 -0.5041  0.5166
   59DOPE  H15R 7553   5.869   1.775  13.264  0.2147  1.2090 -1.7777
   59DOPE  H15S 7554   6.036   1.802  13.282 -3.2300  1.7233  1.3569
   59DOPE  C216 7555   5.968   1.611  13.367 -0.1385 -0.3119  0.5049
   59DOPE  H16R 7556   5.894   1.531  13.344  0.6634 -0.2645 -2.7010
   59DOPE  H16S 7557   5.922   1.660  13.456 -1.3413  0.0920 -0.3103
   59DOPE  C217 7558   6.104   1.547  13.378 -0.4242  0.0280  0.7164
   59DOPE  H17R 7559   6.183   1.625  13.388  0.7800 -0.4677 -3.0918
   59DOPE  H17S 7560   6.126   1.507  13.276  1.2810 -2.1601  1.8725
   59DOPE  C218 7561   6.112   1.439  13.477  0.3776  0.5862 -0.1041
   59DOPE  H18R 7562   6.024   1.373  13.461  1.6425 -1.6040  1.3167
   59DOPE  H18S 7563   6.106   1.476  13.582  1.1646  1.6266 -0.4148
   59DOPE  H18T 7564   6.200   1.372  13.465 -0.5041 -0.6220 -0.0267
   59DOPE   C33 7565   6.062   2.326  12.070 -0.0407  0.0031  0.0478
   59DOPE   H3X 7566   6.046   2.412  12.001  1.2894 -0.3687 -0.7763
   59DOPE   H3Y 7567   6.170   2.298  12.069  0.3134  1.3155  0.3712
   59DOPE   C34 7568   6.018   2.347  12.221 -0.0195 -0.6875  0.2350
   59DOPE   H4X 7569   5.908   2.363  12.230  0.1027  0.6114 -0.2938
   59DOPE   H4Y 7570   6.025   2.251  12.276  1.7230  0.7914  2.7706
   59DOPE   C35 7571   6.100   2.448  12.305 -0.3782  0.2651  0.7446
   59DOPE   H5X 7572   6.101   2.550  12.261  0.2409 -1.0771 -2.6793
   59DOPE   H5Y 7573   6.203   2.407  12.310 -0.5460 -0.3844 -0.5273
   59DOPE   C36 7574   6.058   2.448  12.454  0.1939  1.1893 -0.2047
   59DOPE   H6X 7575   6.072   2.348  12.501 -0.1953 -0.1358 -2.7146
   59DOPE   H6Y 7576   5.953   2.484  12.467  0.4073  1.9810 -0.6151
   59DOPE   C37 7577   6.152   2.543  12.535 -0.0202 -0.2250  0.0720
   59DOPE   H7X 7578   6.250   2.538  12.483 -0.0440  0.5601 -0.0491
   59DOPE   H7Y 7579   6.123   2.648  12.515  0.9843  0.1774  0.6308
   59DOPE   C38 7580   6.162   2.513  12.682  1.1423  0.2627 -0.1950
   59DOPE   H8X 7581   6.059   2.509  12.723  1.6673  1.4486  1.3276
   59DOPE   H8Y 7582   6.211   2.605  12.720  2.0444 -0.2214 -0.1503
   59DOPE   C39 7583   6.237   2.391  12.726 -0.2267  0.7029 -0.1032
   59DOPE   H9X 7584   6.218   2.301  12.666  2.0200 -0.6267  1.0304
   59DOPE  C310 7585   6.299   2.374  12.844 -0.2011  0.3992 -0.2247
   59DOPE  H10X 7586   6.341   2.275  12.866 -2.3662  0.1090  3.2978
   59DOPE  C311 7587   6.318   2.468  12.956 -0.0081 -0.9451 -0.5259
   59DOPE  H11X 7588   6.427   2.467  12.978  0.1104 -1.8296 -1.0704
   59DOPE  H11Y 7589   6.296   2.570  12.919  3.4208 -0.6848 -2.3056
   59DOPE  C312 7590   6.242   2.439  13.088  0.3774  0.5363 -0.9436
   59DOPE  H12X 7591   6.286   2.352  13.141 -0.9481  0.5049  0.1649
   59DOPE  H12Y 7592   6.135   2.423  13.067  0.2793  2.2284 -1.9328
   59DOPE  C313 7593   6.257   2.557  13.195 -0.2155  0.2077 -0.1107
   59DOPE  H13X 7594   6.359   2.553  13.238 -0.2714  1.4947  0.1806
   59DOPE  H13Y 7595   6.238   2.656  13.148 -3.4440 -0.6048 -0.7965
   59DOPE  C314 7596   6.171   2.538  13.317  0.5758  0.7329 -0.1072
   59DOPE  H14X 7597   6.069   2.516  13.281  0.8797 -0.8698 -0.0704
   59DOPE  H14Y 7598   6.164   2.625  13.386 -0.3914 -2.1565  3.7227
   59DOPE  C315 7599   6.224   2.425  13.411  0.4975  0.3516 -0.1318
   59DOPE  H15X 7600   6.320   2.444  13.463 -0.3385 -0.8146  1.9590
   59DOPE  H15Y 7601   6.246   2.330  13.357  0.8913  0.4425 -0.1355
   59DOPE  C316 7602   6.135   2.399  13.531 -0.0894 -0.0592 -0.7823
   59DOPE  H16X 7603   6.032   2.366  13.507 -0.1717  0.7101 -1.5593
   59DOPE  H16Y 7604   6.117   2.500  13.575 -0.1989  0.0022 -0.9647
   59DOPE  C317 7605   6.199   2.304  13.632 -0.5120 -0.3045 -0.0334
   59DOPE  H17X 7606   6.198   2.200  13.593 -2.2165 -0.0686 -0.6773
   59DOPE  H17Y 7607   6.305   2.337  13.648  0.5081 -2.2676 -2.1806
   59DOPE  C318 7608   6.145   2.294  13.773  0.4412 -0.0238 -0.7684
   59DOPE  H18X 7609   6.215   2.243  13.843 -0.2087 -0.4855 -0.4365
   59DOPE  H18Y 7610   6.138   2.396  13.817  1.6749 -0.0031 -0.5816
   59DOPE  H18Z 7611   6.046   2.244  13.781  0.5133 -0.0712 -0.0296
   60DOPE     N 7612   4.371   0.588  10.857 -0.2210  0.2879 -0.2658
   60DOPE   HN1 7613   4.313   0.502  10.868 -1.1421  0.7474 -1.3366
   60DOPE   HN2 7614   4.343   0.637  10.770  0.9218 -0.8060 -1.3066
   60DOPE   HN3 7615   4.467   0.550  10.839  0.2547  2.6310 -3.5425
   60DOPE   C12 7616   4.376   0.671  10.976  0.6193 -0.3261 -0.3143
   60DOPE  H12A 7617   4.440   0.613  11.047  1.8141 -1.5791 -2.3163
   60DOPE  H12B 7618   4.272   0.687  11.013  0.4392 -3.7127  1.0755
   60DOPE   C11 7619   4.449   0.797  10.938 -0.6384 -0.7845  0.4213
   60DOPE  H11A 7620   4.456   0.861  11.028  0.5612  1.6787 -1.2888
   60DOPE  H11B 7621   4.389   0.858  10.867  0.6472  1.5751  1.2442
   60DOPE     P 7622   4.682   0.889  10.845  0.1665  0.0185 -0.4699
   60DOPE   O13 7623   4.636   0.972  10.730 -0.7146  0.2165  0.2802
   60DOPE   O14 7624   4.812   0.825  10.838 -0.1433  0.2610 -0.3179
   60DOPE   O11 7625   4.663   0.991  10.967 -0.7491  0.2465 -0.6624
   60DOPE   O12 7626   4.578   0.774  10.877 -0.3539 -0.3311 -0.1427
   60DOPE    C1 7627   4.775   1.014  11.053  0.4954  0.6477 -0.1002
   60DOPE    HA 7628   4.790   1.118  11.088  1.5300  0.6849 -0.6341
   60DOPE    HB 7629   4.870   0.985  11.004  0.2253  1.8542 -1.3996
   60DOPE    C2 7630   4.766   0.924  11.177  0.1903  0.0697 -0.4159
   60DOPE    HS 7631   4.776   0.817  11.150  1.6116  0.2606 -0.7319
   60DOPE   O21 7632   4.639   0.955  11.244  0.1165  0.0492  0.4566
   60DOPE   C21 7633   4.579   0.850  11.295  0.2261 -0.1822  0.1916
   60DOPE   O22 7634   4.619   0.735  11.296 -0.2050 -0.3350 -0.2541
   60DOPE   C22 7635   4.443   0.902  11.344  0.4085  0.3792  0.2605
   60DOPE   H2R 7636   4.380   0.892  11.253 -0.9857  0.4770  1.1874
   60DOPE   H2S 7637   4.451   1.010  11.370 -0.3388  0.3674  0.5741
   60DOPE    C3 7638   4.883   0.957  11.274  0.1283  0.6955 -0.6678
   60DOPE    HX 7639   4.874   1.067  11.290 -0.0283  0.5232  0.5217
   60DOPE    HY 7640   4.976   0.929  11.220  0.3267  0.1184 -0.0415
   60DOPE   O31 7641   4.863   0.901  11.404  0.2878  0.2542  0.3754
   60DOPE   C31 7642   4.912   0.781  11.422  0.0866  0.5718 -0.1112
   60DOPE   O32 7643   4.993   0.723  11.345 -0.1064  0.5989 -0.4074
   60DOPE   C32 7644   4.866   0.736  11.553 -0.2728 -0.1982 -0.0916
   60DOPE   H2X 7645   4.907   0.804  11.631  1.4137  0.5875 -1.6140
   60DOPE   H2Y 7646   4.755   0.740  11.561 -0.3237  1.3353 -1.1633
   60DOPE   C23 7647   4.384   0.804  11.448 -0.8006  0.2034  0.0817
   60DOPE   H3R 7648   4.383   0.705  11.398  1.1053  0.4925 -0.6461
   60DOPE   H3S 7649   4.278   0.834  11.461 -0.7810 -0.0001  0.7225
   60DOPE   C24 7650   4.459   0.800  11.582  0.5074  0.6152  0.2973
   60DOPE   H4R 7651   4.503   0.897  11.614  0.8131  1.1119 -1.5528
   60DOPE   H4S 7652   4.542   0.727  11.570 -0.5612 -1.2251  2.9795
   60DOPE   C25 7653   4.368   0.737  11.684  0.7531  0.3427 -0.4868
   60DOPE   H5R 7654   4.313   0.657  11.632 -0.8993  1.3951 -0.4180
   60DOPE   H5S 7655   4.290   0.805  11.725  0.3533 -0.9282  0.9791
   60DOPE   C26 7656   4.443   0.669  11.802  0.1661 -0.7214 -0.0416
   60DOPE   H6R 7657   4.500   0.746  11.858 -0.2076 -0.9269  0.6294
   60DOPE   H6S 7658   4.513   0.593  11.761 -1.4051 -1.4364 -1.5337
   60DOPE   C27 7659   4.343   0.623  11.909  0.3255 -0.1237  0.3897
   60DOPE   H7R 7660   4.268   0.554  11.865 -1.3751  1.0915  1.2585
   60DOPE   H7S 7661   4.292   0.715  11.945 -0.1702  0.3502 -1.4371
   60DOPE   C28 7662   4.414   0.559  12.033 -0.3938  0.6433 -0.2708
   60DOPE   H8R 7663   4.496   0.629  12.060 -0.8085  1.0498 -0.0508
   60DOPE   H8S 7664   4.471   0.471  11.997 -0.5033  0.6161 -0.3785
   60DOPE   C29 7665   4.310   0.519  12.141 -0.0349  0.1905  0.0523
   60DOPE   H9R 7666   4.231   0.450  12.108 -0.4759  1.2150 -1.1297
   60DOPE  C210 7667   4.296   0.566  12.265  0.2223  0.1814 -0.7147
   60DOPE  H10R 7668   4.208   0.542  12.327 -0.2549  1.2798 -0.9397
   60DOPE  C211 7669   4.393   0.663  12.330  0.3197 -0.0215  0.0873
   60DOPE  H11R 7670   4.352   0.766  12.327  0.7781  0.1387 -1.0808
   60DOPE  H11S 7671   4.485   0.666  12.268  0.3930  0.2634  0.2102
   60DOPE  C212 7672   4.451   0.643  12.468 -0.6211 -0.3500  0.6845
   60DOPE  H12R 7673   4.535   0.716  12.476 -2.5407  2.3879 -1.8736
   60DOPE  H12S 7674   4.501   0.548  12.495  1.4689  0.6461  0.4750
   60DOPE  C213 7675   4.348   0.694  12.578  0.4294  0.5367  0.1444
   60DOPE  H13R 7676   4.279   0.610  12.600 -2.7075  3.2621  1.5189
   60DOPE  H13S 7677   4.288   0.784  12.555  0.1134  0.5841  1.1128
   60DOPE  C214 7678   4.429   0.725  12.704  0.1158  0.6094  0.6627
   60DOPE  H14R 7679   4.491   0.812  12.672  0.2182  1.3638  2.7644
   60DOPE  H14S 7680   4.491   0.637  12.728 -1.6890 -0.3129  2.2389
   60DOPE  C215 7681   4.349   0.780  12.819  0.8131  0.2792 -0.6691
   60DOPE  H15R 7682   4.307   0.880  12.795  1.3000  1.0183  1.3064
   60DOPE  H15S 7683   4.411   0.811  12.907  0.4704  3.6387 -1.4524
   60DOPE  C216 7684   4.244   0.684  12.862  0.2308 -0.2580 -0.3675
   60DOPE  H16R 7685   4.288   0.583  12.877 -2.9756 -1.6445  0.6027
   60DOPE  H16S 7686   4.162   0.679  12.787 -2.1096 -1.4639  2.0709
   60DOPE  C217 7687   4.182   0.707  13.002  0.7835  0.5030 -1.2211
   60DOPE  H17R 7688   4.268   0.689  13.069  0.4682 -0.0569 -0.9609
   60DOPE  H17S 7689   4.096   0.645  13.034  1.6497  0.6839  1.7019
   60DOPE  C218 7690   4.137   0.850  13.033  1.0237 -1.1540  0.6203
   60DOPE  H18R 7691   4.103   0.852  13.138  0.2450 -0.8245  0.3659
   60DOPE  H18S 7692   4.046   0.880  12.977  0.6482 -0.4825  1.5636
   60DOPE  H18T 7693   4.219   0.923  13.013 -1.1070  1.7459  1.8161
   60DOPE   C33 7694   4.917   0.596  11.584 -0.3685  0.6017 -0.6466
   60DOPE   H3X 7695   5.026   0.606  11.602 -0.6228  4.6529 -0.2637
   60DOPE   H3Y 7696   4.909   0.522  11.502  0.9103  2.5000 -2.5825
   60DOPE   C34 7697   4.858   0.538  11.716  0.2773  0.2787  0.0018
   60DOPE   H4X 7698   4.754   0.503  11.698 -0.6408  1.9930  1.5934
   60DOPE   H4Y 7699   4.913   0.451  11.758 -0.6168  0.3220  1.3414
   60DOPE   C35 7700   4.855   0.633  11.834 -0.2334  0.6722  0.2773
   60DOPE   H5X 7701   4.765   0.698  11.824 -0.8895 -0.3375 -0.4819
   60DOPE   H5Y 7702   4.945   0.698  11.830 -0.8098  1.4832  0.1821
   60DOPE   C36 7703   4.843   0.554  11.968  0.8092 -0.6459 -0.5194
   60DOPE   H6X 7704   4.921   0.476  11.978  1.8209  0.6299  2.3094
   60DOPE   H6Y 7705   4.745   0.502  11.959  0.4837 -0.1701  0.1980
   60DOPE   C37 7706   4.846   0.639  12.098 -0.0750 -0.2221 -0.2125
   60DOPE   H7X 7707   4.950   0.677  12.110 -0.2385  0.1450  0.0691
   60DOPE   H7Y 7708   4.784   0.729  12.075 -0.0051 -0.8525 -3.4389
   60DOPE   C38 7709   4.773   0.578  12.218 -0.2532  0.4683 -0.4082
   60DOPE   H8X 7710   4.682   0.526  12.181 -0.7015  0.1111  1.1298
   60DOPE   H8Y 7711   4.749   0.652  12.297 -1.2591 -0.3415  0.0761
   60DOPE   C39 7712   4.851   0.460  12.261  0.1125 -0.2119 -0.0834
   60DOPE   H9X 7713   4.844   0.372  12.196  1.1043  1.3547 -2.4856
   60DOPE  C310 7714   4.917   0.446  12.377 -0.3047  0.5943 -0.4262
   60DOPE  H10X 7715   4.971   0.351  12.380  0.6819  1.1007 -1.5281
   60DOPE  C311 7716   4.934   0.541  12.493  0.0622  0.6000 -0.2746
   60DOPE  H11X 7717   5.039   0.577  12.497 -0.5528  2.6449 -1.2691
   60DOPE  H11Y 7718   4.870   0.632  12.487 -2.9063 -1.3686 -1.1773
   60DOPE  C312 7719   4.907   0.480  12.629  0.1683  0.0004 -0.4568
   60DOPE  H12X 7720   4.979   0.396  12.636  1.8733  1.5244  1.3300
   60DOPE  H12Y 7721   4.806   0.442  12.655 -0.3376 -0.9037 -3.3869
   60DOPE  C313 7722   4.965   0.573  12.748  0.0558 -0.1573 -0.3875
   60DOPE  H13X 7723   5.070   0.590  12.718  0.6059  1.4644  2.1608
   60DOPE  H13Y 7724   4.907   0.668  12.750 -1.7746 -1.2172 -0.6611
   60DOPE  C314 7725   4.964   0.499  12.882 -0.1078 -0.4961 -0.1308
   60DOPE  H14X 7726   5.041   0.545  12.948  0.6707 -0.6028 -0.9542
   60DOPE  H14Y 7727   4.981   0.390  12.868 -0.3335 -0.5310 -0.1398
   60DOPE  C315 7728   4.820   0.519  12.952 -0.0730 -0.7399  0.0230
   60DOPE  H15X 7729   4.741   0.492  12.878 -0.7255  0.4496  0.2701
   60DOPE  H15Y 7730   4.796   0.625  12.970 -1.1160 -1.0154  0.3090
   60DOPE  C316 7731   4.800   0.451  13.085 -0.2026  1.0514  0.4051
   60DOPE  H16X 7732   4.868   0.481  13.168 -0.5989 -1.6160  1.7995
   60DOPE  H16Y 7733   4.794   0.343  13.063 -0.8800  0.4889  2.9459
   60DOPE  C317 7734   4.662   0.479  13.147 -0.2924 -0.1304  0.6052
   60DOPE  H17X 7735   4.643   0.391  13.212  0.9536  0.6219  2.0567
   60DOPE  H17Y 7736   4.657   0.570  13.210 -0.5440  0.5932 -0.4248
   60DOPE  C318 7737   4.538   0.492  13.055  0.2944  0.2528  0.5569
   60DOPE  H18X 7738   4.533   0.412  12.978 -0.1052  1.3723 -0.6156
   60DOPE  H18Y 7739   4.444   0.501  13.112 -0.5179  1.7610 -0.9431
   60DOPE  H18Z 7740   4.544   0.580  12.988 -0.8397 -1.8771 -2.5503
   6123SM     N 7741   2.592   4.233  16.595 -0.0223  0.1532  0.4242
   6123SM   C15 7742   2.562   4.104  16.660 -0.1609  0.2918  0.4781
   6123SM  H15A 7743   2.462   4.073  16.634 -0.3215  0.6099  0.6996
   6123SM  H15B 7744   2.569   4.113  16.767 -1.1759  0.7615  0.5110
   6123SM  H15C 7745   2.634   4.028  16.635  0.5884  1.1778 -0.1502
   6123SM   C14 7746   2.519   4.339  16.672  0.7597  0.2353 -0.8903
   6123SM  H14A 7747   2.413   4.317  16.669 -0.1148  3.5540  0.5933
   6123SM  H14B 7748   2.537   4.433  16.621 -0.7436  1.2866  0.3973
   6123SM  H14C 7749   2.547   4.346  16.776  0.2924  1.1158 -0.8063
   6123SM   C13 7750   2.738   4.265  16.621  0.3545 -0.0429  0.5513
   6123SM  H13A 7751   2.807   4.229  16.547 -1.8026  0.4943 -1.8733
   6123SM  H13B 7752   2.758   4.237  16.723 -2.0566 -0.7997  0.8770
   6123SM  H13C 7753   2.756   4.371  16.618 -0.2947  0.0757 -3.0091
   6123SM   C12 7754   2.569   4.234  16.447  0.3104 -0.2034  0.1359
   6123SM  H12A 7755   2.632   4.160  16.401  0.5361  0.1178 -0.0788
   6123SM  H12B 7756   2.595   4.336  16.421 -0.1431  0.3348  1.6897
   6123SM   C11 7757   2.427   4.199  16.401 -0.1412 -0.3354  0.6376
   6123SM  H11A 7758   2.406   4.097  16.438  1.3777 -1.2462 -0.8932
   6123SM  H11B 7759   2.432   4.196  16.290 -1.1593  0.2969  0.5577
   6123SM     P 7760   2.321   4.436  16.373  0.1195 -0.2091  0.0673
   6123SM   O13 7761   2.204   4.507  16.427 -0.4013 -0.3501  0.2414
   6123SM   O14 7762   2.447   4.503  16.395 -0.3933 -0.0208 -0.5236
   6123SM   O11 7763   2.310   4.401  16.222  0.2519 -0.3068 -0.3038
   6123SM   O12 7764   2.327   4.297  16.438 -0.1921 -0.2531 -0.0397
   6123SM   C1S 7765   2.242   4.486  16.132  0.7036 -0.2819 -0.2397
   6123SM   H1S 7766   2.250   4.595  16.152 -0.0671 -0.2090 -0.3006
   6123SM   H1T 7767   2.135   4.463  16.149  1.5298 -2.3483  3.0177
   6123SM    NF 7768   2.177   4.528  15.879  0.5238 -0.2162 -0.2739
   6123SM   HNF 7769   2.127   4.478  15.809  1.4209 -0.6511 -0.6217
   6123SM   C2S 7770   2.266   4.456  15.972  0.2217  0.2127 -0.6866
   6123SM   H2S 7771   2.371   4.491  15.965  0.6605 -0.3472  1.8824
   6123SM   C3S 7772   2.268   4.306  15.956 -0.0908  0.3519 -0.3180
   6123SM   H3S 7773   2.167   4.269  15.986 -0.9380  0.3266 -2.9272
   6123SM    O3 7774   2.355   4.225  16.043 -0.0958 -0.0966  0.4931
   6123SM   HO3 7775   2.386   4.284  16.111 -0.4882  0.6932  0.0036
   6123SM   C4S 7776   2.291   4.257  15.815 -0.1071  0.3927 -0.2083
   6123SM   H4S 7777   2.204   4.231  15.754  1.3004 -1.7975 -1.4173
   6123SM   C5S 7778   2.413   4.249  15.754 -0.5931 -0.1544 -0.5471
   6123SM   H5S 7779   2.509   4.271  15.803 -0.6348  1.8682 -1.2564
   6123SM   C6S 7780   2.428   4.223  15.609 -0.8668 -0.1521  0.0819
   6123SM   H6S 7781   2.342   4.171  15.562 -0.6762 -0.5771  0.2000
   6123SM   H6T 7782   2.516   4.156  15.595 -2.4012 -2.4221  0.6672
   6123SM   C7S 7783   2.460   4.362  15.545 -0.5459  0.5878  0.0115
   6123SM   H7S 7784   2.555   4.395  15.591 -1.1110 -1.5037  2.9739
   6123SM   H7T 7785   2.385   4.439  15.575 -2.9705 -1.6819  0.1165
   6123SM   C8S 7786   2.461   4.368  15.389 -0.3392 -1.0982  0.2936
   6123SM   H8S 7787   2.474   4.474  15.361 -0.6211 -1.2268 -0.3515
   6123SM   H8T 7788   2.361   4.353  15.342  0.5181  1.2273 -2.5785
   6123SM   C9S 7789   2.561   4.270  15.320 -0.1429  0.1969 -0.0798
   6123SM   H9S 7790   2.555   4.173  15.374  1.7214 -1.1045 -2.0824
   6123SM   H9T 7791   2.668   4.298  15.322  0.1550 -0.5020 -2.7742
   6123SM  C10S 7792   2.526   4.256  15.174  0.4091  0.7284 -0.2457
   6123SM  H10S 7793   2.573   4.340  15.118  0.0373  1.7441  0.9247
   6123SM  H10T 7794   2.418   4.253  15.151 -0.0257 -4.1240  1.3366
   6123SM  C11S 7795   2.581   4.123  15.115 -0.3833 -0.4077  0.4225
   6123SM  H11S 7796   2.522   4.035  15.148  1.0365 -1.8980 -0.7999
   6123SM  H11T 7797   2.690   4.114  15.137 -0.3948 -1.9221 -0.0398
   6123SM  C12S 7798   2.565   4.107  14.961  0.3092  0.3024 -0.2809
   6123SM  H12S 7799   2.481   4.169  14.923  0.3899  0.7327  0.2254
   6123SM  H12T 7800   2.546   4.000  14.939  0.4284  0.6821 -2.4327
   6123SM  C13S 7801   2.685   4.161  14.884  0.7616 -0.4151 -0.3923
   6123SM  H13S 7802   2.774   4.102  14.913  0.6115 -0.2187  0.4977
   6123SM  H13T 7803   2.719   4.255  14.932  0.7238 -1.1874  1.2206
   6123SM  C14S 7804   2.666   4.188  14.737 -0.0981 -0.0586  0.3667
   6123SM  H14S 7805   2.753   4.245  14.697  0.0962 -1.5548 -1.4819
   6123SM  H14T 7806   2.581   4.259  14.729 -0.4581 -0.2397  2.2525
   6123SM  C15S 7807   2.647   4.066  14.647 -0.6352 -0.4553 -0.1732
   6123SM  H15S 7808   2.561   4.004  14.681 -0.3290 -0.9324 -0.2695
   6123SM  H15T 7809   2.726   3.992  14.669 -2.2811 -1.9587  1.0077
   6123SM  C16S 7810   2.632   4.099  14.502  0.0353  0.0583 -0.3590
   6123SM  H16S 7811   2.725   4.144  14.460 -1.3528  1.8847 -1.6248
   6123SM  H16T 7812   2.553   4.173  14.480 -1.0567 -0.6159  1.1793
   6123SM  C17S 7813   2.601   3.971  14.423  0.1383  0.9867  0.1942
   6123SM  H17S 7814   2.529   3.906  14.477 -1.0707  0.9010 -1.4435
   6123SM  H17T 7815   2.696   3.912  14.420 -0.8109 -0.5447 -0.9855
   6123SM  C18S 7816   2.554   3.999  14.279 -0.1527 -0.8012 -0.7580
   6123SM  H18S 7817   2.454   4.047  14.268  0.5577  0.2274 -3.5834
   6123SM  H18T 7818   2.549   3.904  14.222  1.5335 -0.3626 -1.7017
   6123SM  H18U 7819   2.626   4.073  14.239 -0.6001  2.1781  3.2493
   6123SM   C1F 7820   2.160   4.665  15.890 -0.5660  0.6947 -0.0701
   6123SM    OF 7821   2.235   4.739  15.950  0.4977  0.0616 -0.6799
   6123SM   C2F 7822   2.037   4.719  15.809 -0.1001  0.1569 -0.8240
   6123SM   H2F 7823   1.979   4.795  15.866 -1.3586  1.5847 -3.7849
   6123SM   H2G 7824   1.974   4.628  15.803 -0.0401  0.0627 -0.1092
   6123SM   C3F 7825   2.081   4.762  15.670  0.4394  0.0429  0.1476
   6123SM   H3F 7826   2.167   4.831  15.684  0.7625 -0.2241 -0.4922
   6123SM   H3G 7827   1.993   4.815  15.627  1.7967  0.2777 -2.5154
   6123SM   C4F 7828   2.122   4.653  15.581  0.5373 -0.1455  1.0222
   6123SM   H4F 7829   2.051   4.568  15.582  0.1393  0.1287 -0.8884
   6123SM   H4G 7830   2.223   4.618  15.610 -0.4681 -1.7907  2.8330
   6123SM   C5F 7831   2.124   4.697  15.430 -0.6638  0.4246 -0.4103
   6123SM   H5F 7832   2.167   4.800  15.428 -0.1720  0.2422  0.5527
   6123SM   H5G 7833   2.021   4.714  15.392 -0.8528  3.1187  1.1005
   6123SM   C6F 7834   2.201   4.602  15.334 -0.3483  0.0697  0.1202
   6123SM   H6F 7835   2.182   4.492  15.334  0.1136 -0.0150 -0.5160
   6123SM   H6G 7836   2.307   4.610  15.364 -0.4220 -1.5456  0.9148
   6123SM   C7F 7837   2.207   4.664  15.191  0.0177 -0.0054 -0.4924
   6123SM   H7F 7838   2.246   4.767  15.202 -0.3106 -0.1429  3.1395
   6123SM   H7G 7839   2.101   4.664  15.156 -0.1224  0.1984 -0.0669
   6123SM   C8F 7840   2.294   4.570  15.103  0.2884  0.0653  0.8838
   6123SM   H8F 7841   2.277   4.461  15.112 -1.7818  0.1355 -1.2698
   6123SM   H8G 7842   2.399   4.595  15.130  1.5136 -0.3033 -2.8693
   6123SM   C9F 7843   2.274   4.599  14.952 -0.2729  0.0041 -0.0590
   6123SM   H9F 7844   2.296   4.704  14.925  1.0987  0.0056  0.9871
   6123SM   H9G 7845   2.166   4.576  14.936 -0.2945  0.4410 -0.5865
   6123SM  C10F 7846   2.366   4.517  14.858  0.4409 -0.4055 -0.4847
   6123SM  H10F 7847   2.365   4.410  14.886  1.1042  0.1369  1.8719
   6123SM  H10G 7848   2.466   4.544  14.897  1.2881 -3.0437 -0.6361
   6123SM  C11F 7849   2.343   4.548  14.712  0.6046 -0.0116  0.6354
   6123SM  H11F 7850   2.366   4.657  14.714 -0.1992  0.2044 -0.5591
   6123SM  H11G 7851   2.236   4.530  14.685  1.0391  1.4908 -2.6336
   6123SM  C12F 7852   2.423   4.471  14.603 -0.3025 -0.2971 -0.0759
   6123SM  H12F 7853   2.396   4.363  14.600  1.6575 -0.8021 -1.1227
   6123SM  H12G 7854   2.525   4.467  14.646 -0.3414 -2.3074 -0.0582
   6123SM  C13F 7855   2.412   4.524  14.462 -0.5586  0.5336 -0.9486
   6123SM  H13F 7856   2.307   4.536  14.427 -0.6376  2.2544 -0.1961
   6123SM  H13G 7857   2.466   4.447  14.403 -2.0995  0.1205 -1.8907
   6123SM  C14F 7858   2.479   4.660  14.449  0.3095  0.7863 -0.2888
   6123SM  H14F 7859   2.575   4.645  14.503  1.0902  0.5005 -1.7024
   6123SM  H14G 7860   2.414   4.736  14.497 -0.2179  0.3341 -0.2727
   6123SM  C15F 7861   2.524   4.697  14.305  0.3374  0.0705  0.0628
   6123SM  H15F 7862   2.597   4.631  14.254  2.7071  2.5370  0.0331
   6123SM  H15G 7863   2.572   4.797  14.294  0.5007 -0.2726 -3.6546
   6123SM  C16F 7864   2.406   4.729  14.213  0.0989  0.0788 -0.3092
   6123SM  H16F 7865   2.343   4.811  14.255 -1.2218 -1.4039  0.6975
   6123SM  H16G 7866   2.342   4.639  14.224 -0.3082  0.4502  0.4963
   6123SM  C17F 7867   2.440   4.779  14.069  0.2135  0.5671  0.1223
   6123SM  H17F 7868   2.503   4.708  14.012  2.0615  0.9082  1.6276
   6123SM  H17G 7869   2.511   4.864  14.072  2.0871 -0.8997 -0.5577
   6123SM  C18F 7870   2.320   4.809  13.985  0.4249  0.6547 -0.4678
   6123SM  H18F 7871   2.259   4.885  14.038 -2.2369 -0.2098 -2.0789
   6123SM  H18G 7872   2.254   4.720  13.980 -0.6049  0.9969  3.7030
   6123SM  C19F 7873   2.363   4.873  13.846 -0.2284 -0.1894 -0.2018
   6123SM  H19F 7874   2.413   4.789  13.792  4.5604  1.1548  1.5796
   6123SM  H19G 7875   2.447   4.946  13.858 -0.8570  0.7166 -1.1582
   6123SM  C20F 7876   2.247   4.925  13.769  0.3557 -0.8026  0.5373
   6123SM  H20F 7877   2.290   5.000  13.699  0.5036 -1.5403 -0.1858
   6123SM  H20G 7878   2.169   4.980  13.826  0.6947 -0.1842  0.4232
   6123SM  C21F 7879   2.176   4.837  13.663  0.3092  0.0940  0.2827
   6123SM  H21F 7880   2.246   4.808  13.582 -0.5740 -1.0499 -0.1012
   6123SM  H21G 7881   2.091   4.887  13.611  0.4919  2.5974  2.1632
   6123SM  C22F 7882   2.119   4.714  13.738  0.0823  0.8885 -0.1164
   6123SM  H22F 7883   2.091   4.745  13.841 -2.5633  1.8363 -1.0163
   6123SM  H22G 7884   2.201   4.640  13.748 -1.1821 -0.4970  0.3930
   6123SM  C23F 7885   1.990   4.654  13.669  0.1257 -0.0485 -0.2324
   6123SM  H23F 7886   2.029   4.612  13.575  2.6013  1.5250  0.0048
   6123SM  H23G 7887   1.908   4.728  13.658  0.1230  0.0449  0.3937
   6123SM  H23H 7888   1.957   4.563  13.723  0.8817  0.3711  0.9902
   6223SM     N 7889   2.195   3.665  17.077 -0.4389 -0.3076  0.1129
   6223SM   C15 7890   2.230   3.776  17.172  0.4336  0.9970  0.0008
   6223SM  H15A 7891   2.265   3.735  17.266  0.2828  0.6380 -0.0965
   6223SM  H15B 7892   2.142   3.835  17.194 -1.0353 -0.8237 -0.6789
   6223SM  H15C 7893   2.304   3.842  17.130  1.6828 -1.3954 -1.8094
   6223SM   C14 7894   2.075   3.595  17.134 -1.2052  0.2111 -0.0597
   6223SM  H14A 7895   1.990   3.658  17.153 -0.8297  0.5173  0.6753
   6223SM  H14B 7896   2.101   3.539  17.223  1.4786  0.9374 -0.3041
   6223SM  H14C 7897   2.043   3.528  17.056 -0.2320  0.5658 -0.7902
   6223SM   C13 7898   2.167   3.719  16.943  0.6180 -0.6148 -0.3402
   6223SM  H13A 7899   2.087   3.791  16.946 -1.3819 -2.7668  1.6834
   6223SM  H13B 7900   2.140   3.644  16.870  1.6487 -0.6511 -0.7011
   6223SM  H13C 7901   2.260   3.757  16.903 -0.2069 -1.0134 -2.8062
   6223SM   C12 7902   2.316   3.571  17.072  0.0680 -0.4124 -0.1406
   6223SM  H12A 7903   2.323   3.527  17.171  0.7577 -1.1316 -0.5030
   6223SM  H12B 7904   2.404   3.630  17.053 -0.9145  1.0458 -0.3898
   6223SM   C11 7905   2.298   3.453  16.977 -0.0747  0.1887 -0.3090
   6223SM  H11A 7906   2.257   3.488  16.880 -1.1326 -0.0469  0.0371
   6223SM  H11B 7907   2.222   3.380  17.013  1.2250 -1.2642 -0.3956
   6223SM     P 7908   2.423   3.233  16.923 -0.2769 -0.5383  0.0759
   6223SM   O13 7909   2.517   3.156  17.003  0.0215 -0.0864 -0.5240
   6223SM   O14 7910   2.283   3.181  16.916 -0.7663 -0.6675 -0.3502
   6223SM   O11 7911   2.481   3.250  16.768  0.3086 -0.2600 -0.3678
   6223SM   O12 7912   2.423   3.386  16.971  0.1656  0.4400 -0.4073
   6223SM   C1S 7913   2.379   3.275  16.673 -0.3413 -0.3648  0.0179
   6223SM   H1S 7914   2.329   3.373  16.687  2.6527  1.2394  0.3359
   6223SM   H1T 7915   2.300   3.197  16.671  0.3965 -1.1467  0.6469
   6223SM    NF 7916   2.310   3.305  16.445  0.2588  0.2887 -0.2884
   6223SM   HNF 7917   2.272   3.232  16.388  2.4083 -1.2875  0.1730
   6223SM   C2S 7918   2.432   3.284  16.528  0.3729  0.0737  0.2847
   6223SM   H2S 7919   2.501   3.370  16.516  1.9720 -1.3722 -1.4714
   6223SM   C3S 7920   2.514   3.161  16.487  0.2453  0.3281 -0.1148
   6223SM   H3S 7921   2.440   3.078  16.481 -1.2850  1.7158 -3.1822
   6223SM    O3 7922   2.609   3.123  16.583  0.2463 -0.6849 -0.4235
   6223SM   HO3 7923   2.566   3.158  16.661 -0.1756 -0.5472 -0.7111
   6223SM   C4S 7924   2.563   3.161  16.340 -0.1890  0.6832  0.4092
   6223SM   H4S 7925   2.504   3.101  16.270  0.0897  1.8985 -0.9197
   6223SM   C5S 7926   2.677   3.222  16.300 -0.6112  0.7169  0.1634
   6223SM   H5S 7927   2.737   3.266  16.381  2.1363 -2.2864  0.0099
   6223SM   C6S 7928   2.737   3.206  16.158  0.2556 -0.1804 -0.4938
   6223SM   H6S 7929   2.682   3.142  16.086 -1.2589  1.9926 -1.3841
   6223SM   H6T 7930   2.841   3.169  16.156  1.2681  2.3784  0.5296
   6223SM   C7S 7931   2.732   3.347  16.091 -0.7476 -0.2466 -0.2356
   6223SM   H7S 7932   2.786   3.417  16.159  0.4323 -1.2278 -0.1387
   6223SM   H7T 7933   2.631   3.392  16.080  0.0814  2.1175  1.0865
   6223SM   C8S 7934   2.794   3.347  15.949  0.4968 -0.1698  0.0647
   6223SM   H8S 7935   2.742   3.273  15.885 -2.6043  1.4479  0.4909
   6223SM   H8T 7936   2.903   3.326  15.952  0.9250  1.2701 -2.5443
   6223SM   C9S 7937   2.792   3.476  15.879  0.2587 -0.5264  0.0663
   6223SM   H9S 7938   2.792   3.562  15.950  0.1066 -1.1707  0.8676
   6223SM   H9T 7939   2.693   3.488  15.831  0.0521 -1.3354  0.2724
   6223SM  C10S 7940   2.890   3.487  15.764  0.4848 -1.2280  0.4820
   6223SM  H10S 7941   2.994   3.498  15.801 -0.0126  1.5741  1.2735
   6223SM  H10T 7942   2.864   3.577  15.704 -0.8160  0.0919  2.8820
   6223SM  C11S 7943   2.902   3.374  15.662  0.1942 -0.8690 -0.2305
   6223SM  H11S 7944   2.801   3.352  15.621 -0.1231 -0.7702  0.4965
   6223SM  H11T 7945   2.937   3.279  15.708 -0.3433  0.0199  2.1713
   6223SM  C12S 7946   2.996   3.429  15.552  0.3493  0.8239 -0.3433
   6223SM  H12S 7947   3.102   3.437  15.585 -0.1723 -1.9605  2.5565
   6223SM  H12T 7948   2.962   3.530  15.523  2.0406  1.3383 -0.6214
   6223SM  C13S 7949   2.977   3.351  15.422 -0.0161  0.3162  0.5075
   6223SM  H13S 7950   2.897   3.399  15.361  1.3253 -1.1483 -2.6089
   6223SM  H13T 7951   2.943   3.249  15.449 -2.5457  0.4532 -1.7201
   6223SM  C14S 7952   3.091   3.353  15.316  0.5551  0.6778 -0.4617
   6223SM  H14S 7953   3.191   3.335  15.360  1.2881 -1.0528 -2.6739
   6223SM  H14T 7954   3.089   3.456  15.275 -1.6925  0.8752 -0.0051
   6223SM  C15S 7955   3.069   3.244  15.219 -0.3503 -0.4019 -0.1152
   6223SM  H15S 7956   2.960   3.246  15.195 -0.2774  0.1735 -0.4200
   6223SM  H15T 7957   3.093   3.142  15.256  1.6903  0.2438  0.4358
   6223SM  C16S 7958   3.140   3.275  15.092 -0.3577  0.5349  0.8261
   6223SM  H16S 7959   3.121   3.182  15.034 -2.5647  0.6965  1.1894
   6223SM  H16T 7960   3.248   3.289  15.113 -0.3118  0.8984  0.3759
   6223SM  C17S 7961   3.084   3.379  14.992  0.2833 -0.2769  0.7577
   6223SM  H17S 7962   3.079   3.479  15.040  0.9930  0.2078 -0.1536
   6223SM  H17T 7963   2.982   3.349  14.959  0.8185  0.4066 -1.7629
   6223SM  C18S 7964   3.171   3.403  14.865 -0.0648 -0.4919  0.3803
   6223SM  H18S 7965   3.275   3.435  14.886  1.8209 -3.4466 -3.1742
   6223SM  H18T 7966   3.119   3.479  14.803 -1.5903 -0.5355  1.5477
   6223SM  H18U 7967   3.178   3.308  14.807  1.1632 -0.2484  0.0932
   6223SM   C1F 7968   2.261   3.436  16.432 -0.5986 -0.2332 -0.3046
   6223SM    OF 7969   2.313   3.533  16.487  0.0168  0.2118 -0.3384
   6223SM   C2F 7970   2.146   3.459  16.345 -0.5884  0.0558  0.4521
   6223SM   H2F 7971   2.054   3.459  16.407  0.6003 -2.7363  2.4115
   6223SM   H2G 7972   2.138   3.383  16.264  1.0328  0.7458 -0.3971
   6223SM   C3F 7973   2.147   3.602  16.278  0.1375  0.7590  0.3734
   6223SM   H3F 7974   2.176   3.677  16.354 -1.9449  0.3109  1.7027
   6223SM   H3G 7975   2.049   3.634  16.237  0.0465  0.0897  0.0647
   6223SM   C4F 7976   2.258   3.610  16.177 -0.7535  0.1732 -0.3049
   6223SM   H4F 7977   2.353   3.581  16.226 -2.1821 -2.0033  1.3413
   6223SM   H4G 7978   2.268   3.714  16.138  1.6124 -1.5941 -5.3455
   6223SM   C5F 7979   2.246   3.515  16.056 -0.3305 -0.2203  0.5692
   6223SM   H5F 7980   2.138   3.518  16.029  0.4461 -1.0613 -3.3666
   6223SM   H5G 7981   2.276   3.411  16.080 -0.0298 -0.2987 -0.1136
   6223SM   C6F 7982   2.335   3.557  15.935  0.3010  0.3830  0.1187
   6223SM   H6F 7983   2.445   3.546  15.949  0.7730 -0.9179 -3.4833
   6223SM   H6G 7984   2.318   3.665  15.912 -0.9120 -0.2594 -2.3675
   6223SM   C7F 7985   2.321   3.470  15.816  0.3383 -0.7400 -0.3980
   6223SM   H7F 7986   2.219   3.453  15.775 -0.0256 -1.6705  0.8457
   6223SM   H7G 7987   2.357   3.365  15.823  0.0849 -0.8224 -0.3108
   6223SM   C8F 7988   2.411   3.505  15.696 -0.0217 -0.7388  0.9018
   6223SM   H8F 7989   2.510   3.508  15.747 -0.3543  1.3774  1.5217
   6223SM   H8G 7990   2.385   3.605  15.654 -0.1006 -0.7853  0.8396
   6223SM   C9F 7991   2.429   3.387  15.600  0.4360  0.5195  0.2879
   6223SM   H9F 7992   2.322   3.376  15.572  1.3974  0.5842 -4.0229
   6223SM   H9G 7993   2.483   3.308  15.656  0.2218 -0.6482 -1.1021
   6223SM  C10F 7994   2.509   3.427  15.475  0.2648  0.2882 -0.0526
   6223SM  H10F 7995   2.615   3.451  15.499  0.0179  2.0481 -0.5662
   6223SM  H10G 7996   2.449   3.514  15.441 -1.7773 -0.6727  0.9365
   6223SM  C11F 7997   2.508   3.316  15.368 -0.3087  0.0647 -0.6483
   6223SM  H11F 7998   2.403   3.297  15.335 -1.0512  2.0108  0.4210
   6223SM  H11G 7999   2.532   3.217  15.413 -1.4756  0.0631  0.0065
   6223SM  C12F 8000   2.592   3.355  15.245 -0.2275 -1.0909 -0.1101
   6223SM  H12F 8001   2.693   3.386  15.280  0.0167 -0.7349 -1.0888
   6223SM  H12G 8002   2.538   3.444  15.208  0.2664 -0.2729  1.0971
   6223SM  C13F 8003   2.601   3.245  15.133  0.0947  0.2854 -0.4439
   6223SM  H13F 8004   2.498   3.212  15.112  0.6308 -0.1575 -2.6102
   6223SM  H13G 8005   2.665   3.169  15.184  1.6666  2.6326  1.3438
   6223SM  C14F 8006   2.656   3.321  15.008  0.5777  0.3033  0.2315
   6223SM  H14F 8007   2.747   3.378  15.037 -0.1350  1.1813  0.8137
   6223SM  H14G 8008   2.579   3.396  14.981 -0.1615 -0.0115  1.3857
   6223SM  C15F 8009   2.697   3.218  14.903 -1.2564 -0.4524 -0.0788
   6223SM  H15F 8010   2.624   3.134  14.904  0.2335 -1.7959 -0.3117
   6223SM  H15G 8011   2.796   3.179  14.932 -1.0555  1.2726  1.7605
   6223SM  C16F 8012   2.694   3.284  14.768 -0.1163  0.3504  0.2922
   6223SM  H16F 8013   2.768   3.365  14.754  1.1371 -0.7441  0.4064
   6223SM  H16G 8014   2.589   3.321  14.765  0.6724  3.0075  2.5577
   6223SM  C17F 8015   2.708   3.177  14.656  0.2046  0.3569 -0.1098
   6223SM  H17F 8016   2.627   3.103  14.675  2.6774 -1.7424  3.6574
   6223SM  H17G 8017   2.810   3.132  14.660 -0.6151 -1.5678  2.6120
   6223SM  C18F 8018   2.692   3.244  14.512 -0.2127  0.5328 -0.4637
   6223SM  H18F 8019   2.784   3.306  14.501 -0.8685  2.2966  2.7576
   6223SM  H18G 8020   2.610   3.319  14.504  0.6137  1.3985 -1.1918
   6223SM  C19F 8021   2.698   3.150  14.395 -0.1073  0.4221 -0.2498
   6223SM  H19F 8022   2.636   3.058  14.403  2.6932 -1.5260  0.3333
   6223SM  H19G 8023   2.798   3.101  14.387  0.1140  0.9155 -0.5532
   6223SM  C20F 8024   2.673   3.212  14.261  0.4257 -0.1647  0.0862
   6223SM  H20F 8025   2.724   3.310  14.250 -0.7943  0.3514 -1.3504
   6223SM  H20G 8026   2.564   3.228  14.247  0.7400  1.2294 -1.0009
   6223SM  C21F 8027   2.707   3.128  14.139  0.0755  0.0761 -0.3961
   6223SM  H21F 8028   2.638   3.152  14.055  0.2370 -0.1385 -0.5919
   6223SM  H21G 8029   2.686   3.021  14.162  1.0184 -0.2631 -1.0574
   6223SM  C22F 8030   2.852   3.144  14.092  0.2198 -0.3673  0.4104
   6223SM  H22F 8031   2.924   3.135  14.177  0.2932  0.1263  0.4074
   6223SM  H22G 8032   2.850   3.245  14.046 -1.7326 -0.0449  1.0956
   6223SM  C23F 8033   2.880   3.044  13.981  0.0037  0.6208  0.2500
   6223SM  H23F 8034   2.902   2.950  14.037  2.5921  2.1304  2.0129
   6223SM  H23G 8035   2.974   3.056  13.922 -1.7923 -0.5692 -3.1106
   6223SM  H23H 8036   2.792   3.022  13.917  0.8322 -0.0506 -0.6811
   6323SM     N 8037   2.466   4.972  16.210 -0.7002  0.1702 -0.3096
   6323SM   C15 8038   2.422   5.031  16.079  0.6961  0.0508  0.0132
   6323SM  H15A 8039   2.316   5.017  16.065  0.4682  1.8736 -0.2908
   6323SM  H15B 8040   2.491   4.990  16.007  1.8786  0.9649  0.5814
   6323SM  H15C 8041   2.452   5.135  16.078  3.1453 -0.5807 -1.0916
   6323SM   C14 8042   2.594   5.032  16.255 -0.1302  0.1912 -0.5679
   6323SM  H14A 8043   2.618   4.991  16.352 -1.9405 -0.3538 -0.3100
   6323SM  H14B 8044   2.591   5.138  16.272 -1.3944  0.0215  0.4044
   6323SM  H14C 8045   2.676   5.019  16.186  1.4370  3.0560  0.5749
   6323SM   C13 8046   2.355   4.998  16.302  0.5397 -0.8018 -0.2734
   6323SM  H13A 8047   2.334   5.104  16.293  0.6069 -0.7742 -0.1214
   6323SM  H13B 8048   2.381   4.982  16.405 -1.4587 -1.2906  0.2015
   6323SM  H13C 8049   2.264   4.950  16.269 -1.3369  2.0133  0.3638
   6323SM   C12 8050   2.474   4.826  16.204  0.9005  0.3251 -0.6117
   6323SM  H12A 8051   2.373   4.788  16.201  1.1662 -0.3874 -0.7384
   6323SM  H12B 8052   2.519   4.786  16.294 -0.1222 -1.2102 -0.7496
   6323SM   C11 8053   2.548   4.766  16.081  0.0362  0.5526  0.2527
   6323SM  H11A 8054   2.487   4.779  15.990  0.7316  0.3937 -0.2436
   6323SM  H11B 8055   2.553   4.656  16.097  1.8466  0.4938 -0.5088
   6323SM     P 8056   2.803   4.749  16.015 -0.1642 -0.1851  0.1165
   6323SM   O13 8057   2.928   4.819  16.050  0.1880 -0.1777 -0.0983
   6323SM   O14 8058   2.801   4.607  16.061  0.5061  0.7247  0.4557
   6323SM   O11 8059   2.782   4.736  15.855  0.5934 -0.0322  0.3148
   6323SM   O12 8060   2.676   4.826  16.060 -0.6207 -0.0516 -0.6135
   6323SM   C1S 8061   2.797   4.858  15.776  0.1499  0.1492 -0.2728
   6323SM   H1S 8062   2.891   4.909  15.806  1.4216 -0.2506 -3.2575
   6323SM   H1T 8063   2.706   4.921  15.789  0.3313  0.1440  1.1477
   6323SM    NF 8064   2.859   4.946  15.556 -0.0637 -0.2697  0.4760
   6323SM   HNF 8065   2.789   4.977  15.493  3.1085  1.0582 -2.6962
   6323SM   C2S 8066   2.819   4.824  15.630 -0.6592 -0.4879 -0.2221
   6323SM   H2S 8067   2.901   4.749  15.637  0.7575  1.1239  2.0404
   6323SM   C3S 8068   2.696   4.741  15.574  0.1230  0.2468  0.5989
   6323SM   H3S 8069   2.605   4.806  15.577 -1.3272 -1.2415 -3.4274
   6323SM    O3 8070   2.671   4.622  15.652  0.0119 -0.2707  0.3095
   6323SM   HO3 8071   2.702   4.658  15.735 -1.3978 -0.0187  0.7502
   6323SM   C4S 8072   2.709   4.709  15.428 -0.6312  0.2743  0.7002
   6323SM   H4S 8073   2.656   4.785  15.369  0.1375  0.0196 -0.3508
   6323SM   C5S 8074   2.764   4.601  15.368 -0.2734 -0.0717  0.4060
   6323SM   H5S 8075   2.796   4.522  15.438 -1.6675 -0.2073  0.9180
   6323SM   C6S 8076   2.785   4.569  15.217  0.4222  0.2649 -0.7069
   6323SM   H6S 8077   2.757   4.462  15.201  1.2488 -0.1544  0.5282
   6323SM   H6T 8078   2.894   4.564  15.198  1.3209 -0.2495  3.6418
   6323SM   C7S 8079   2.717   4.673  15.125  0.4117 -0.5226 -0.2508
   6323SM   H7S 8080   2.780   4.765  15.130  2.1586 -1.6515 -0.8243
   6323SM   H7T 8081   2.617   4.692  15.170  0.1195  0.8662 -1.4096
   6323SM   C8S 8082   2.708   4.634  14.980  0.0548 -0.3840  0.7285
   6323SM   H8S 8083   2.633   4.700  14.931  1.2170 -0.9851 -2.0105
   6323SM   H8T 8084   2.665   4.532  14.983  0.3109 -0.5282 -0.2588
   6323SM   C9S 8085   2.833   4.646  14.894 -0.2456  0.3117 -0.8793
   6323SM   H9S 8086   2.905   4.573  14.937 -0.9263  0.3475  0.3682
   6323SM   H9T 8087   2.887   4.743  14.885 -1.7231  1.1585 -0.8994
   6323SM  C10S 8088   2.806   4.617  14.745  0.4451  0.2052  0.3979
   6323SM  H10S 8089   2.723   4.689  14.727  1.1324  0.7383 -0.6868
   6323SM  H10T 8090   2.759   4.517  14.752 -0.6942  0.7985  2.1329
   6323SM  C11S 8091   2.925   4.611  14.651  0.1733  0.0086 -0.4282
   6323SM  H11S 8092   2.995   4.528  14.676 -0.6193 -1.2141 -2.0896
   6323SM  H11T 8093   2.980   4.703  14.680  0.9462 -0.0545 -1.6330
   6323SM  C12S 8094   2.886   4.616  14.506  0.3804  0.0164  0.6098
   6323SM  H12S 8095   2.974   4.635  14.442  0.0819  0.9891  0.4613
   6323SM  H12T 8096   2.815   4.700  14.487  1.8219  0.8136 -1.6170
   6323SM  C13S 8097   2.825   4.481  14.453 -0.4234 -0.1793  0.0284
   6323SM  H13S 8098   2.717   4.501  14.474 -0.4213 -0.4401  0.2951
   6323SM  H13T 8099   2.849   4.384  14.500  1.3790  0.7509  1.1233
   6323SM  C14S 8100   2.842   4.463  14.305 -0.2337  0.2571  0.7578
   6323SM  H14S 8101   2.948   4.449  14.275 -0.0158 -0.2052  1.7203
   6323SM  H14T 8102   2.799   4.553  14.256 -0.6880 -0.8112 -0.8997
   6323SM  C15S 8103   2.766   4.337  14.257 -0.7784 -0.0907  0.0195
   6323SM  H15S 8104   2.666   4.327  14.304 -0.4890  0.5429  0.8004
   6323SM  H15T 8105   2.835   4.253  14.283 -1.0074 -0.4517 -0.5308
   6323SM  C16S 8106   2.751   4.333  14.104  0.5060 -0.9786  0.5922
   6323SM  H16S 8107   2.703   4.427  14.070  1.9227 -0.4608 -0.0903
   6323SM  H16T 8108   2.683   4.252  14.070 -0.3834 -0.4757  1.1445
   6323SM  C17S 8109   2.880   4.320  14.023 -0.0697 -0.3192 -0.1060
   6323SM  H17S 8110   2.959   4.390  14.060  1.0898 -0.2671 -2.5344
   6323SM  H17T 8111   2.848   4.359  13.924  0.6698 -1.8501 -0.9691
   6323SM  C18S 8112   2.933   4.177  13.998  0.1395 -0.2107  0.1146
   6323SM  H18S 8113   2.974   4.131  14.091 -0.7523 -1.0119  0.1246
   6323SM  H18T 8114   3.008   4.173  13.916 -0.5574 -1.8039 -0.4763
   6323SM  H18U 8115   2.845   4.114  13.974 -0.9562  2.0485 -2.2985
   6323SM   C1F 8116   2.958   5.033  15.562  0.3098  0.1303  0.3943
   6323SM    OF 8117   3.059   5.014  15.621 -0.2867  0.5519  0.5357
   6323SM   C2F 8118   2.923   5.162  15.500  0.1897  1.1111 -0.1199
   6323SM   H2F 8119   2.926   5.240  15.579 -0.4567  0.9651  0.0567
   6323SM   H2G 8120   2.823   5.165  15.451  0.6709  0.4791 -1.1736
   6323SM   C3F 8121   3.027   5.194  15.390 -0.7784  0.0033 -0.6263
   6323SM   H3F 8122   3.012   5.134  15.297  4.0156  0.0489 -1.6696
   6323SM   H3G 8123   3.127   5.158  15.423 -1.0364  0.0096  0.2052
   6323SM   C4F 8124   3.032   5.340  15.343 -0.1480  0.9994  1.0490
   6323SM   H4F 8125   3.076   5.398  15.427 -1.0779  0.9511  1.5931
   6323SM   H4G 8126   2.934   5.379  15.310 -1.1558 -2.9485 -1.3335
   6323SM   C5F 8127   3.130   5.373  15.226  0.2455 -0.3202  0.4295
   6323SM   H5F 8128   3.142   5.483  15.218 -0.6915 -0.2990 -1.1193
   6323SM   H5G 8129   3.071   5.347  15.136 -1.0851 -0.9411  1.4350
   6323SM   C6F 8130   3.262   5.294  15.227  0.3880  0.2649 -0.0250
   6323SM   H6F 8131   3.235   5.186  15.221 -0.1060  0.3571  0.4626
   6323SM   H6G 8132   3.316   5.311  15.323  1.2256 -0.0879 -0.4212
   6323SM   C7F 8133   3.350   5.326  15.101  0.0569 -0.3397 -1.0745
   6323SM   H7F 8134   3.408   5.419  15.114 -0.1895 -0.0895 -1.7308
   6323SM   H7G 8135   3.282   5.345  15.015 -1.0035  3.0080  0.3331
   6323SM   C8F 8136   3.442   5.213  15.079 -0.1056  0.8177 -0.2194
   6323SM   H8F 8137   3.395   5.112  15.082 -1.4288  1.4378  1.0985
   6323SM   H8G 8138   3.507   5.213  15.169  0.9380  0.0205 -0.9486
   6323SM   C9F 8139   3.549   5.229  14.972 -0.2937  0.0960  0.0192
   6323SM   H9F 8140   3.617   5.141  14.972 -0.2441  0.0586 -2.7056
   6323SM   H9G 8141   3.620   5.312  14.990  0.8631 -0.9470  0.4263
   6323SM  C10F 8142   3.513   5.221  14.821  1.0681 -0.0022  0.5845
   6323SM  H10F 8143   3.455   5.312  14.794 -0.4782 -1.4336 -1.1708
   6323SM  H10G 8144   3.450   5.132  14.801  1.3690  0.1514 -1.2149
   6323SM  C11F 8145   3.640   5.216  14.733 -0.2553  0.1080  0.3646
   6323SM  H11F 8146   3.711   5.146  14.780  0.2645  0.3601 -0.0255
   6323SM  H11G 8147   3.697   5.310  14.711  1.1475 -0.8698 -0.3434
   6323SM  C12F 8148   3.618   5.154  14.597 -0.1881 -0.1067 -0.5591
   6323SM  H12F 8149   3.570   5.218  14.520  1.1947 -1.4202 -2.6359
   6323SM  H12G 8150   3.568   5.057  14.618 -0.2746  0.1964  0.6923
   6323SM  C13F 8151   3.750   5.094  14.532  0.3446  0.0330 -0.1700
   6323SM  H13F 8152   3.804   5.018  14.591 -0.3735 -0.3015  0.0592
   6323SM  H13G 8153   3.828   5.169  14.507 -0.0256 -0.0369 -1.6295
   6323SM  C14F 8154   3.714   5.027  14.393  0.3399 -0.6012 -1.2501
   6323SM  H14F 8155   3.702   5.117  14.329  1.6251  1.6270  1.4194
   6323SM  H14G 8156   3.614   4.980  14.404 -2.1816  4.3484 -0.5213
   6323SM  C15F 8157   3.810   4.930  14.326 -0.2138 -0.1226 -0.1751
   6323SM  H15F 8158   3.811   4.839  14.390  0.4579 -1.2331 -1.7056
   6323SM  H15G 8159   3.910   4.978  14.328 -1.1071  1.9189 -1.0596
   6323SM  C16F 8160   3.776   4.895  14.176 -0.8029 -0.5455 -0.0322
   6323SM  H16F 8161   3.769   4.985  14.111  0.4754  0.1386  0.7440
   6323SM  H16G 8162   3.669   4.867  14.174 -0.4476 -1.9309 -0.0665
   6323SM  C17F 8163   3.871   4.795  14.105  0.2428  0.0348 -0.1780
   6323SM  H17F 8164   3.901   4.715  14.175  1.1614 -1.0432 -1.7498
   6323SM  H17G 8165   3.968   4.841  14.075 -0.5082  1.2399 -0.8698
   6323SM  C18F 8166   3.815   4.733  13.974 -0.0508  0.1419 -0.1941
   6323SM  H18F 8167   3.829   4.812  13.897  0.0159  0.6102  0.2915
   6323SM  H18G 8168   3.714   4.689  13.990  2.1906 -4.8807  2.4434
   6323SM  C19F 8169   3.902   4.619  13.926 -0.2426 -0.3546  0.1471
   6323SM  H19F 8170   3.896   4.527  13.989  1.4527 -1.6797 -1.4889
   6323SM  H19G 8171   4.010   4.647  13.928 -0.7232  1.6176  2.1934
   6323SM  C20F 8172   3.862   4.561  13.788  0.5189 -0.4465 -0.1367
   6323SM  H20F 8173   3.864   4.638  13.708  1.0729  0.1908  0.4844
   6323SM  H20G 8174   3.756   4.528  13.786  0.5607 -0.5820 -2.3373
   6323SM  C21F 8175   3.938   4.447  13.729 -0.6484 -0.6084 -0.3993
   6323SM  H21F 8176   3.954   4.367  13.805  2.7873 -1.4420 -1.7948
   6323SM  H21G 8177   4.036   4.490  13.702  0.3902 -2.5548  0.0547
   6323SM  C22F 8178   3.873   4.389  13.605  0.2073  0.1247 -0.6727
   6323SM  H22F 8179   3.779   4.336  13.632  0.5967 -0.4485 -0.4243
   6323SM  H22G 8180   3.943   4.313  13.565 -2.2420 -3.7575  1.7259
   6323SM  C23F 8181   3.840   4.501  13.501  0.6449 -0.8076 -0.5239
   6323SM  H23F 8182   3.755   4.562  13.538  0.2613 -2.5346  1.6334
   6323SM  H23G 8183   3.809   4.463  13.402 -2.2814  2.9104 -1.2925
   6323SM  H23H 8184   3.924   4.574  13.491 -1.8328  2.3347 -0.2377
   6423SM     N 8185   4.398   4.449  16.835  0.2394 -0.0899  0.2744
   6423SM   C15 8186   4.273   4.522  16.852  0.2148 -0.4941 -0.5012
   6423SM  H15A 8187   4.248   4.578  16.764  1.6359  0.7570 -0.1514
   6423SM  H15B 8188   4.268   4.593  16.933 -1.2298  0.7366 -1.6171
   6423SM  H15C 8189   4.191   4.452  16.863  2.6353 -3.3710  0.7396
   6423SM   C14 8190   4.510   4.544  16.823 -0.0942  0.7949  0.4823
   6423SM  H14A 8191   4.508   4.605  16.734  0.5184 -1.2567 -1.0094
   6423SM  H14B 8192   4.608   4.497  16.822  0.6605  2.0488 -3.4134
   6423SM  H14C 8193   4.512   4.604  16.913 -0.7781 -1.5454  2.1201
   6423SM   C13 8194   4.423   4.361  16.951 -0.0690  0.1905  0.1912
   6423SM  H13A 8195   4.414   4.427  17.036  1.0300  1.4999 -0.6509
   6423SM  H13B 8196   4.523   4.321  16.957  0.8417  2.4816  2.1598
   6423SM  H13C 8197   4.341   4.294  16.969 -0.4743  0.6442  0.0673
   6423SM   C12 8198   4.394   4.361  16.708  0.3955  0.1753 -0.0465
   6423SM  H12A 8199   4.479   4.295  16.710 -0.8280 -1.4679  0.3853
   6423SM  H12B 8200   4.400   4.421  16.619 -0.3771  0.6983  0.2381
   6423SM   C11 8201   4.277   4.256  16.691  0.5460  0.4675  0.1769
   6423SM  H11A 8202   4.269   4.232  16.582 -0.5369  3.3368 -0.4538
   6423SM  H11B 8203   4.184   4.302  16.729 -0.8728 -1.2118 -1.0834
   6423SM     P 8204   4.424   4.046  16.738 -0.1332  0.2741 -0.1898
   6423SM   O13 8205   4.542   4.120  16.769  0.2330  0.0526 -0.9271
   6423SM   O14 8206   4.403   3.918  16.808 -0.2471 -0.7316  0.2422
   6423SM   O11 8207   4.410   4.030  16.582 -0.1657 -0.2009  0.4339
   6423SM   O12 8208   4.303   4.143  16.772  0.2507 -0.2053 -0.2889
   6423SM   C1S 8209   4.312   3.946  16.525  0.0502 -0.1166  0.2080
   6423SM   H1S 8210   4.207   3.974  16.550  0.9686  2.5936  1.3838
   6423SM   H1T 8211   4.322   3.849  16.578 -1.2348  0.2128  1.1161
   6423SM    NF 8212   4.254   3.813  16.334  0.5481 -0.1009  0.1306
   6423SM   HNF 8213   4.317   3.738  16.314 -0.0589 -0.4688 -0.4424
   6423SM   C2S 8214   4.327   3.932  16.370 -0.6831 -0.1460 -0.0166
   6423SM   H2S 8215   4.279   4.024  16.331  0.1193  1.1825  1.9624
   6423SM   C3S 8216   4.481   3.929  16.331 -0.5601  0.3181  0.0842
   6423SM   H3S 8217   4.534   3.853  16.393  0.4310 -0.0458 -1.1791
   6423SM    O3 8218   4.553   4.052  16.360  0.2779  0.5823  0.5580
   6423SM   HO3 8219   4.517   4.087  16.442 -0.2628  2.1193 -0.2921
   6423SM   C4S 8220   4.503   3.891  16.184 -0.4126  0.1427 -0.7348
   6423SM   H4S 8221   4.519   3.783  16.171  0.2305 -0.3289  2.9861
   6423SM   C5S 8222   4.502   3.972  16.075  0.3939  1.2973 -0.1629
   6423SM   H5S 8223   4.468   4.076  16.084  0.2412  1.3005 -0.7585
   6423SM   C6S 8224   4.507   3.916  15.931 -0.1369  0.0618  0.5800
   6423SM   H6S 8225   4.594   3.963  15.880 -2.4187  2.2754 -1.5389
   6423SM   H6T 8226   4.417   3.968  15.893 -1.1668 -1.1416  1.3249
   6423SM   C7S 8227   4.508   3.765  15.895 -0.0123 -0.2309  0.3830
   6423SM   H7S 8228   4.403   3.734  15.916 -1.2610  1.6344 -2.4784
   6423SM   H7T 8229   4.589   3.710  15.947  0.4662 -0.4909 -0.6098
   6423SM   C8S 8230   4.522   3.747  15.741  0.8876  0.3365  0.0391
   6423SM   H8S 8231   4.627   3.776  15.719  0.6594  0.0844 -1.4571
   6423SM   H8T 8232   4.450   3.811  15.686  1.2264  0.1311 -0.6545
   6423SM   C9S 8233   4.530   3.600  15.684 -0.3772  0.0864  0.8231
   6423SM   H9S 8234   4.426   3.567  15.662 -0.3520 -0.0010  0.8328
   6423SM   H9T 8235   4.575   3.538  15.764 -1.1188 -2.5888 -0.7036
   6423SM  C10S 8236   4.614   3.585  15.552  0.0397  0.1040 -0.2957
   6423SM  H10S 8237   4.617   3.478  15.521  0.9798 -0.0748  0.3551
   6423SM  H10T 8238   4.713   3.628  15.577 -0.1071 -0.0656  0.5920
   6423SM  C11S 8239   4.550   3.657  15.425 -0.1505 -0.2093 -0.0243
   6423SM  H11S 8240   4.544   3.764  15.452  0.0164 -0.3893  0.7671
   6423SM  H11T 8241   4.448   3.619  15.400  0.5404 -2.5122  0.3686
   6423SM  C12S 8242   4.643   3.664  15.299 -0.1850 -0.3981 -0.3509
   6423SM  H12S 8243   4.680   3.566  15.261 -0.8353 -0.8441  0.1502
   6423SM  H12T 8244   4.736   3.723  15.312  1.4882 -2.5408 -1.9286
   6423SM  C13S 8245   4.555   3.713  15.177 -0.0759  0.3162  0.6295
   6423SM  H13S 8246   4.554   3.824  15.189  1.2185  0.3520  0.5075
   6423SM  H13T 8247   4.447   3.688  15.191 -0.1544  0.4366  0.2602
   6423SM  C14S 8248   4.596   3.665  15.041  0.0057  0.1775 -1.1585
   6423SM  H14S 8249   4.608   3.554  15.033 -1.9884 -0.0422 -1.7375
   6423SM  H14T 8250   4.700   3.699  15.023  0.4419 -0.7163 -0.4440
   6423SM  C15S 8251   4.504   3.704  14.921  0.2059 -0.2994 -0.0825
   6423SM  H15S 8252   4.550   3.700  14.820 -2.1419 -0.8442 -1.2197
   6423SM  H15T 8253   4.474   3.809  14.941 -1.1582 -0.3724 -1.5101
   6423SM  C16S 8254   4.370   3.636  14.920  0.7908  0.3081  0.7960
   6423SM  H16S 8255   4.296   3.683  14.988 -1.9277 -0.5347 -1.4081
   6423SM  H16T 8256   4.383   3.527  14.939  1.9945  0.3576  0.3178
   6423SM  C17S 8257   4.304   3.652  14.776 -0.8465 -0.4470  0.6954
   6423SM  H17S 8258   4.385   3.628  14.704 -1.0772 -1.8086  0.8569
   6423SM  H17T 8259   4.262   3.754  14.765  1.5507  0.3721 -1.8609
   6423SM  C18S 8260   4.195   3.545  14.734 -0.5284  0.3539 -0.1591
   6423SM  H18S 8261   4.175   3.543  14.625  1.5491  1.4653 -0.6059
   6423SM  H18T 8262   4.098   3.563  14.785 -0.4333 -1.5934  0.7969
   6423SM  H18U 8263   4.233   3.442  14.754  0.6939  0.4694 -1.6643
   6423SM   C1F 8264   4.121   3.807  16.340  0.6225  0.7407 -0.2531
   6423SM    OF 8265   4.046   3.902  16.380 -0.5904 -0.0614 -1.0212
   6423SM   C2F 8266   4.060   3.679  16.293 -0.6081 -0.1428 -0.5173
   6423SM   H2F 8267   3.971   3.656  16.355 -1.7607  1.1783 -1.6067
   6423SM   H2G 8268   4.129   3.593  16.301 -1.6560 -1.1179 -1.6004
   6423SM   C3F 8269   4.015   3.705  16.145  0.5449 -0.1055 -0.1358
   6423SM   H3F 8270   3.944   3.790  16.145 -2.1174 -2.1307  2.2377
   6423SM   H3G 8271   3.951   3.623  16.106  1.3425 -1.9042  2.1107
   6423SM   C4F 8272   4.123   3.719  16.040  0.1551 -0.3869  1.1848
   6423SM   H4F 8273   4.190   3.632  16.021 -1.7242 -1.3184 -1.8502
   6423SM   H4G 8274   4.194   3.797  16.075  1.9168 -1.7540  0.8235
   6423SM   C5F 8275   4.061   3.752  15.897  0.2333  0.3799  0.1771
   6423SM   H5F 8276   3.991   3.838  15.908 -0.8883 -0.4900 -0.0903
   6423SM   H5G 8277   4.008   3.666  15.852  0.2944  0.5985 -0.3148
   6423SM   C6F 8278   4.168   3.803  15.799  0.1522 -0.1748  0.5571
   6423SM   H6F 8279   4.250   3.729  15.805 -0.0678 -0.4631  0.0741
   6423SM   H6G 8280   4.209   3.900  15.836 -0.5689  0.8059 -1.0867
   6423SM   C7F 8281   4.114   3.814  15.654 -0.1521 -0.4494  0.4505
   6423SM   H7F 8282   4.027   3.883  15.656  0.0178 -0.0951 -1.6216
   6423SM   H7G 8283   4.076   3.722  15.605  1.1664 -0.4200 -0.6809
   6423SM   C8F 8284   4.200   3.890  15.545  0.1335  0.5638  0.1249
   6423SM   H8F 8285   4.286   3.824  15.519 -0.5505 -0.0373 -0.6713
   6423SM   H8G 8286   4.242   3.988  15.575  1.0566  0.5971 -1.1806
   6423SM   C9F 8287   4.124   3.904  15.412 -0.2578 -0.3806 -0.1898
   6423SM   H9F 8288   4.029   3.960  15.429  0.3869  0.6931 -0.0471
   6423SM   H9G 8289   4.084   3.809  15.370 -3.0104  1.0248 -1.0654
   6423SM  C10F 8290   4.205   3.986  15.315 -0.5245  0.1090 -0.6750
   6423SM  H10F 8291   4.301   3.939  15.286  0.1384  1.8180 -1.3189
   6423SM  H10G 8292   4.218   4.088  15.357 -2.6659 -0.1226  0.7138
   6423SM  C11F 8293   4.122   4.001  15.186  0.4352 -0.0247 -0.1074
   6423SM  H11F 8294   4.033   4.067  15.196 -0.3219 -0.6244 -2.2600
   6423SM  H11G 8295   4.079   3.900  15.168  2.7608 -0.7563 -1.9802
   6423SM  C12F 8296   4.202   4.037  15.064 -0.2974  0.4262 -0.0616
   6423SM  H12F 8297   4.305   3.995  15.077 -0.1604  0.8771  0.3340
   6423SM  H12G 8298   4.218   4.147  15.067  0.6851  0.3761 -1.9912
   6423SM  C13F 8299   4.135   4.015  14.928  0.3241 -0.1158 -0.3558
   6423SM  H13F 8300   4.032   4.056  14.926 -0.2690 -0.8677  4.0721
   6423SM  H13G 8301   4.115   3.908  14.907  0.2675 -0.2002  0.1139
   6423SM  C14F 8302   4.216   4.076  14.816 -0.5802  0.2036 -0.1742
   6423SM  H14F 8303   4.319   4.036  14.822  0.9100  3.8997  1.8956
   6423SM  H14G 8304   4.253   4.179  14.837  5.9374 -1.5323 -0.9365
   6423SM  C15F 8305   4.169   4.063  14.669  0.0648  0.0232 -0.1958
   6423SM  H15F 8306   4.063   4.095  14.666  0.0916  0.2714  0.8973
   6423SM  H15G 8307   4.173   3.958  14.632 -2.7119 -0.1010 -0.2829
   6423SM  C16F 8308   4.248   4.157  14.579  0.7166  0.1504  0.0592
   6423SM  H16F 8309   4.355   4.139  14.603  0.2595 -1.0719  1.2518
   6423SM  H16G 8310   4.216   4.262  14.598 -0.5932  0.1077 -1.6555
   6423SM  C17F 8311   4.213   4.125  14.429 -0.0700 -0.6705 -0.2452
   6423SM  H17F 8312   4.104   4.144  14.420 -0.1823 -0.7937  0.7210
   6423SM  H17G 8313   4.238   4.017  14.428  1.3611 -0.3607 -1.9885
   6423SM  C18F 8314   4.305   4.186  14.332 -0.0026 -0.4477 -0.3660
   6423SM  H18F 8315   4.411   4.170  14.360 -0.5768  0.0517  2.3479
   6423SM  H18G 8316   4.299   4.297  14.335  1.5958 -0.3455 -0.0601
   6423SM  C19F 8317   4.277   4.133  14.188  0.1760 -0.0564  0.0010
   6423SM  H19F 8318   4.173   4.151  14.155  0.1993 -0.0292 -0.0600
   6423SM  H19G 8319   4.287   4.022  14.180 -2.2944 -0.3951  0.9470
   6423SM  C20F 8320   4.369   4.184  14.073 -0.0732 -0.0656  0.3764
   6423SM  H20F 8321   4.473   4.161  14.105  0.3217 -1.7020 -1.8960
   6423SM  H20G 8322   4.363   4.295  14.066 -1.8937 -0.0310  1.7886
   6423SM  C21F 8323   4.332   4.126  13.934 -0.2772  0.0570 -0.7967
   6423SM  H21F 8324   4.310   4.018  13.948  3.6880 -0.8504 -0.3098
   6423SM  H21G 8325   4.418   4.130  13.864 -0.7678  0.1095 -1.4005
   6423SM  C22F 8326   4.204   4.182  13.872  0.6986  0.2079  0.1585
   6423SM  H22F 8327   4.230   4.288  13.854 -0.9990  0.8481  1.2497
   6423SM  H22G 8328   4.120   4.176  13.944 -0.3519 -1.5122 -1.1157
   6423SM  C23F 8329   4.144   4.114  13.749 -0.3251  0.0718  0.0206
   6423SM  H23F 8330   4.062   4.176  13.706 -1.7809 -1.7241  0.0724
   6423SM  H23G 8331   4.119   4.006  13.764  0.7214  0.0009  1.4316
   6423SM  H23H 8332   4.224   4.111  13.671 -0.5488 -0.4032 -0.1971
   6523SM     N 8333   4.459   5.611  16.137  0.0966  0.0763  0.3791
   6523SM   C15 8334   4.406   5.479  16.084 -0.3287  0.1655  0.4348
   6523SM  H15A 8335   4.300   5.471  16.065 -0.2547 -3.6426  0.7514
   6523SM  H15B 8336   4.430   5.397  16.151 -0.5895  0.0887  0.4353
   6523SM  H15C 8337   4.458   5.453  15.993 -0.1424  2.1124 -0.0554
   6523SM   C14 8338   4.482   5.712  16.032 -0.1072 -0.1553 -0.1347
   6523SM  H14A 8339   4.485   5.813  16.073 -0.5257  2.2334 -5.2523
   6523SM  H14B 8340   4.395   5.723  15.969 -0.9200  2.9034  1.3036
   6523SM  H14C 8341   4.571   5.701  15.972  0.0478  0.4687 -0.0277
   6523SM   C13 8342   4.352   5.669  16.221  0.6358 -0.2372  0.9799
   6523SM  H13A 8343   4.264   5.689  16.162  1.2545  0.1238  0.1642
   6523SM  H13B 8344   4.384   5.765  16.260  0.3693 -0.3678  1.5337
   6523SM  H13C 8345   4.329   5.598  16.299 -0.3467 -0.8843  0.1208
   6523SM   C12 8346   4.580   5.587  16.219 -0.4435  0.2828 -0.1997
   6523SM  H12A 8347   4.608   5.685  16.255  0.2791 -0.1225  0.3694
   6523SM  H12B 8348   4.663   5.554  16.159  0.2171 -0.7472  1.2215
   6523SM   C11 8349   4.571   5.498  16.349  0.3140  0.0694 -0.2627
   6523SM  H11A 8350   4.492   5.543  16.413  0.8028 -0.9738  1.1187
   6523SM  H11B 8351   4.666   5.514  16.405 -0.1550  1.4262  0.1997
   6523SM     P 8352   4.644   5.272  16.244 -0.1274  0.4208  0.5518
   6523SM   O13 8353   4.779   5.323  16.259  0.0447  0.1939 -0.6358
   6523SM   O14 8354   4.619   5.141  16.302  0.5480 -0.1949  0.3295
   6523SM   O11 8355   4.606   5.272  16.089 -0.0441 -0.7518 -0.4099
   6523SM   O12 8356   4.539   5.362  16.311 -0.1760 -0.0611 -0.4227
   6523SM   C1S 8357   4.639   5.153  16.015  0.5773 -0.1719 -0.1246
   6523SM   H1S 8358   4.585   5.062  16.050 -3.3031  1.3652 -1.5296
   6523SM   H1T 8359   4.746   5.130  16.035  0.2901 -1.9275 -0.4315
   6523SM    NF 8360   4.678   5.034  15.797  0.1490 -0.1066 -0.1829
   6523SM   HNF 8361   4.737   5.053  15.719  0.3217 -1.7281 -0.4927
   6523SM   C2S 8362   4.618   5.152  15.864  0.9075 -0.3355 -0.2308
   6523SM   H2S 8363   4.508   5.154  15.845  0.7797  0.5960  0.5358
   6523SM   C3S 8364   4.669   5.286  15.796 -0.1639 -0.7064  0.3543
   6523SM   H3S 8365   4.779   5.292  15.804  0.0484 -1.1916 -1.7421
   6523SM    O3 8366   4.622   5.397  15.868 -0.0176 -0.0258  0.2117
   6523SM   HO3 8367   4.627   5.361  15.956  1.9018  1.8157  0.9484
   6523SM   C4S 8368   4.625   5.295  15.654  0.7814  0.0147  0.1967
   6523SM   H4S 8369   4.522   5.329  15.637  0.4634 -1.0528 -0.0676
   6523SM   C5S 8370   4.700   5.275  15.546 -0.1990 -0.0721 -0.3142
   6523SM   H5S 8371   4.807   5.250  15.550 -0.1522  0.2927  1.8944
   6523SM   C6S 8372   4.638   5.293  15.408 -0.4648 -0.7787 -0.0716
   6523SM   H6S 8373   4.719   5.341  15.349  0.5834 -0.3771  1.6209
   6523SM   H6T 8374   4.552   5.363  15.411  0.9129  0.9393  2.0137
   6523SM   C7S 8375   4.621   5.161  15.327  0.0561  0.3416 -0.4265
   6523SM   H7S 8376   4.550   5.090  15.375 -0.1472  0.1998 -0.9261
   6523SM   H7T 8377   4.709   5.093  15.321 -0.6577 -0.5928 -0.5035
   6523SM   C8S 8378   4.583   5.178  15.175  0.8547  0.1881 -0.3941
   6523SM   H8S 8379   4.500   5.252  15.180  1.9960  1.4864 -0.1951
   6523SM   H8T 8380   4.539   5.084  15.136 -1.7157  1.5521 -1.0468
   6523SM   C9S 8381   4.695   5.233  15.086 -0.1145 -0.3889 -0.3028
   6523SM   H9S 8382   4.788   5.192  15.130 -1.1713 -2.4629  0.1578
   6523SM   H9T 8383   4.703   5.344  15.089  2.7468 -0.5511  0.6233
   6523SM  C10S 8384   4.677   5.191  14.944 -0.3553  0.3913  0.0577
   6523SM  H10S 8385   4.575   5.212  14.908 -1.1475  0.7715  2.3320
   6523SM  H10T 8386   4.698   5.082  14.932  1.9468  0.9254 -1.5037
   6523SM  C11S 8387   4.778   5.262  14.842 -0.0463 -0.1163 -0.8240
   6523SM  H11S 8388   4.874   5.244  14.896 -0.0806 -1.0881 -1.0733
   6523SM  H11T 8389   4.753   5.370  14.836 -1.4675 -0.3645  0.2122
   6523SM  C12S 8390   4.783   5.190  14.706 -0.3299 -0.0751 -0.3331
   6523SM  H12S 8391   4.789   5.081  14.725  0.9200  0.0446  0.0469
   6523SM  H12T 8392   4.876   5.214  14.652 -1.5483  1.1464 -1.9924
   6523SM  C13S 8393   4.666   5.217  14.612 -0.0231 -0.2129 -0.5564
   6523SM  H13S 8394   4.653   5.326  14.598  0.5074 -0.1076 -0.2656
   6523SM  H13T 8395   4.571   5.183  14.658  1.1351 -0.3897  1.8748
   6523SM  C14S 8396   4.670   5.150  14.471 -0.3729 -0.4501  0.1652
   6523SM  H14S 8397   4.672   5.039  14.475  1.2204 -0.4563 -0.1862
   6523SM  H14T 8398   4.763   5.187  14.422 -1.2861 -0.2582 -1.5250
   6523SM  C15S 8399   4.547   5.186  14.387 -0.7002 -0.5740 -0.1227
   6523SM  H15S 8400   4.500   5.283  14.416  1.0152  0.0922  0.4943
   6523SM  H15T 8401   4.463   5.113  14.394 -0.5948 -0.6086  0.8503
   6523SM  C16S 8402   4.593   5.195  14.238  0.0050 -0.2018  0.6480
   6523SM  H16S 8403   4.568   5.100  14.186  0.5556  0.6138 -1.1784
   6523SM  H16T 8404   4.704   5.199  14.231 -0.0496  1.0464  0.2716
   6523SM  C17S 8405   4.538   5.310  14.153  0.1781  0.1310  0.1362
   6523SM  H17S 8406   4.563   5.292  14.047  0.9898 -2.5691  0.6952
   6523SM  H17T 8407   4.603   5.395  14.185 -0.8049  0.0305  2.6979
   6523SM  C18S 8408   4.395   5.340  14.177  0.3892 -0.1586  0.5584
   6523SM  H18S 8409   4.331   5.340  14.086 -0.6467 -0.6234  1.2680
   6523SM  H18T 8410   4.381   5.442  14.218 -3.5171 -0.1098 -0.5079
   6523SM  H18U 8411   4.348   5.270  14.249  1.2091 -2.0816 -0.6910
   6523SM   C1F 8412   4.640   4.910  15.813 -0.0611  0.5951  0.6738
   6523SM    OF 8413   4.534   4.892  15.869 -0.2303  0.4045 -0.0770
   6523SM   C2F 8414   4.714   4.796  15.754 -0.6683  0.1039  0.3896
   6523SM   H2F 8415   4.746   4.723  15.831 -0.3266 -3.4241 -2.8168
   6523SM   H2G 8416   4.797   4.841  15.695 -1.2552  1.8107  0.7964
   6523SM   C3F 8417   4.623   4.698  15.670  0.0949 -0.7290  0.2252
   6523SM   H3F 8418   4.539   4.656  15.730  0.4853 -0.1084  1.2329
   6523SM   H3G 8419   4.692   4.619  15.634  0.8846  0.3116 -0.6083
   6523SM   C4F 8420   4.557   4.761  15.540  0.3704 -0.4496  0.4254
   6523SM   H4F 8421   4.486   4.841  15.572  0.6792  0.0903 -0.2055
   6523SM   H4G 8422   4.500   4.690  15.477  1.7326  0.1700 -1.6117
   6523SM   C5F 8423   4.669   4.819  15.446 -0.3591 -0.6436 -0.7802
   6523SM   H5F 8424   4.757   4.755  15.466  0.3179  0.5774  0.3206
   6523SM   H5G 8425   4.693   4.924  15.474  1.6360 -0.6956 -2.1435
   6523SM   C6F 8426   4.624   4.806  15.296  0.9469  0.5606 -0.1361
   6523SM   H6F 8427   4.541   4.877  15.275  0.1519 -0.5695 -0.9280
   6523SM   H6G 8428   4.574   4.708  15.289 -0.0283  1.0260  0.0984
   6523SM   C7F 8429   4.738   4.820  15.202  0.3938 -0.5677  0.2565
   6523SM   H7F 8430   4.821   4.754  15.237 -1.2555 -2.6124  0.4924
   6523SM   H7G 8431   4.766   4.927  15.205  2.3957 -0.9627 -1.4810
   6523SM   C8F 8432   4.711   4.768  15.059  0.2074 -0.3935 -0.3480
   6523SM   H8F 8433   4.618   4.814  15.018 -0.5233 -0.0042  1.6415
   6523SM   H8G 8434   4.688   4.660  15.046 -0.6508 -0.2609  0.0077
   6523SM   C9F 8435   4.831   4.796  14.969  0.2189 -0.7196  0.6079
   6523SM   H9F 8436   4.917   4.731  14.995  1.6277  0.9708  0.2919
   6523SM   H9G 8437   4.860   4.903  14.970 -1.6570  0.1336 -4.4289
   6523SM  C10F 8438   4.792   4.768  14.830 -0.1394  0.1054  0.5686
   6523SM  H10F 8439   4.698   4.815  14.795 -0.4938 -0.6782  0.4409
   6523SM  H10G 8440   4.782   4.660  14.805  0.0541  0.2029  0.0680
   6523SM  C11F 8441   4.905   4.810  14.734  0.1086  0.1478 -0.7607
   6523SM  H11F 8442   4.986   4.735  14.730  1.9408  2.0430 -0.7971
   6523SM  H11G 8443   4.946   4.910  14.760  0.7920 -0.2271 -0.3916
   6523SM  C12F 8444   4.845   4.819  14.586 -0.6397  0.1239 -0.6071
   6523SM  H12F 8445   4.748   4.872  14.577 -1.4483 -1.2701 -0.3647
   6523SM  H12G 8446   4.823   4.716  14.550  2.0009 -0.2237 -1.4994
   6523SM  C13F 8447   4.956   4.886  14.496  0.2722  0.1177 -0.6955
   6523SM  H13F 8448   5.053   4.840  14.524 -1.1226 -2.8587 -0.2466
   6523SM  H13G 8449   4.966   4.990  14.532 -2.2358  0.2379 -0.1396
   6523SM  C14F 8450   4.938   4.892  14.348  0.0071  0.1256  0.4320
   6523SM  H14F 8451   5.018   4.940  14.288 -0.3494  0.7293  0.4274
   6523SM  H14G 8452   4.845   4.950  14.328 -1.5733 -1.8153  1.7629
   6523SM  C15F 8453   4.916   4.754  14.277 -0.4718  0.7064  0.1813
   6523SM  H15F 8454   4.851   4.685  14.335 -0.1157  0.6575  0.5291
   6523SM  H15G 8455   5.010   4.695  14.267 -1.3108 -0.4129 -1.5723
   6523SM  C16F 8456   4.878   4.780  14.128 -0.2314  0.2036  0.4313
   6523SM  H16F 8457   4.886   4.688  14.065 -2.9356  0.7494 -0.8489
   6523SM  H16G 8458   4.944   4.859  14.087  0.5409 -0.5737  0.1403
   6523SM  C17F 8459   4.728   4.813  14.111  0.4620  0.0986 -0.0054
   6523SM  H17F 8460   4.719   4.919  14.077  1.2519  0.6684  1.4546
   6523SM  H17G 8461   4.680   4.817  14.211  0.8210  1.4458  0.1332
   6523SM  C18F 8462   4.654   4.716  14.010 -0.8365 -0.7843 -0.3908
   6523SM  H18F 8463   4.651   4.617  14.060  2.2635 -1.1914 -0.7942
   6523SM  H18G 8464   4.712   4.728  13.916  1.8101  0.1134  1.2707
   6523SM  C19F 8465   4.511   4.752  13.966 -0.2997  0.0885  1.1335
   6523SM  H19F 8466   4.505   4.862  13.955  1.3206  0.0533 -0.3205
   6523SM  H19G 8467   4.433   4.710  14.034  0.5594 -2.9575  0.3943
   6523SM  C20F 8468   4.460   4.701  13.832  0.2541  0.1580 -0.2568
   6523SM  H20F 8469   4.462   4.590  13.826 -4.1051 -0.1487  0.3169
   6523SM  H20G 8470   4.525   4.739  13.751 -2.7473  1.0062 -2.4698
   6523SM  C21F 8471   4.316   4.745  13.797 -0.0297  0.1253 -0.4540
   6523SM  H21F 8472   4.292   4.852  13.816  2.5128  0.6916 -0.1433
   6523SM  H21G 8473   4.246   4.685  13.860 -0.2554 -2.2768 -2.7826
   6523SM  C22F 8474   4.283   4.697  13.660  0.9990  0.0654 -0.0029
   6523SM  H22F 8475   4.280   4.586  13.659  0.0263  0.0894 -0.4645
   6523SM  H22G 8476   4.370   4.702  13.591  0.2251 -0.6051 -1.0641
   6523SM  C23F 8477   4.170   4.754  13.590 -0.1728  0.6331 -0.0495
   6523SM  H23F 8478   4.210   4.855  13.569 -2.1670  1.3937 -0.4322
   6523SM  H23G 8479   4.078   4.773  13.650 -1.0572 -2.1627 -0.3846
   6523SM  H23H 8480   4.151   4.690  13.502 -0.1855 -2.8884  2.3152
   6623SM     N 8481   2.427   2.803  16.710 -0.1114  1.1048 -0.6499
   6623SM   C15 8482   2.400   2.879  16.827 -1.0230 -0.9918  0.2889
   6623SM  H15A 8483   2.405   2.985  16.806  1.0175 -0.7875  1.5196
   6623SM  H15B 8484   2.484   2.867  16.894  0.7318 -0.1188 -1.6317
   6623SM  H15C 8485   2.303   2.849  16.864 -0.4337 -2.0797  0.9912
   6623SM   C14 8486   2.406   2.659  16.751  0.4723  0.4524  0.7405
   6623SM  H14A 8487   2.449   2.596  16.675  3.0873  2.3809  0.4691
   6623SM  H14B 8488   2.304   2.632  16.776  0.5461 -0.2337  0.3200
   6623SM  H14C 8489   2.454   2.649  16.847  2.2761  0.0533 -0.1638
   6623SM   C13 8490   2.328   2.834  16.603  0.3236 -0.3057 -0.0848
   6623SM  H13A 8491   2.347   2.771  16.517  1.1751  0.8906 -0.8013
   6623SM  H13B 8492   2.331   2.939  16.578  1.3725 -0.0268  1.1081
   6623SM  H13C 8493   2.226   2.805  16.622 -2.0375  5.3195 -2.0684
   6623SM   C12 8494   2.564   2.819  16.655  0.2207 -0.1252 -0.3237
   6623SM  H12A 8495   2.561   2.921  16.621 -1.7343 -0.5427 -1.6088
   6623SM  H12B 8496   2.570   2.770  16.559 -0.6418  0.9020 -0.9218
   6623SM   C11 8497   2.682   2.796  16.751 -0.6487 -0.2498  0.2048
   6623SM  H11A 8498   2.681   2.865  16.838  0.3604 -0.6984  0.5870
   6623SM  H11B 8499   2.769   2.819  16.685  0.4054 -0.9455  1.3177
   6623SM     P 8500   2.769   2.544  16.722  0.1991  0.7670  0.2117
   6623SM   O13 8501   2.910   2.553  16.774 -0.0989  0.6761  0.4272
   6623SM   O14 8502   2.695   2.414  16.742 -0.3815  0.7604 -0.5867
   6623SM   O11 8503   2.783   2.579  16.568  0.3964 -0.1610  0.3273
   6623SM   O12 8504   2.698   2.663  16.790  0.3661 -0.3026 -0.1180
   6623SM   C1S 8505   2.825   2.474  16.477 -0.1704 -0.5874  0.2623
   6623SM   H1S 8506   2.749   2.393  16.464 -2.1677  1.2807 -0.2804
   6623SM   H1T 8507   2.917   2.423  16.513  0.2499  0.8565  1.3616
   6623SM    NF 8508   2.836   2.436  16.224 -0.0511  0.1519  0.4000
   6623SM   HNF 8509   2.907   2.440  16.154 -2.2653 -0.7879 -2.0646
   6623SM   C2S 8510   2.843   2.534  16.332  0.6243 -0.0702 -0.7695
   6623SM   H2S 8511   2.757   2.603  16.319  0.5462 -0.2637 -1.2973
   6623SM   C3S 8512   2.970   2.621  16.330  0.3597  0.8399  0.2287
   6623SM   H3S 8513   3.061   2.558  16.326  0.0487  0.2844  1.5986
   6623SM    O3 8514   2.984   2.691  16.450 -0.0751 -0.4825  0.0990
   6623SM   HO3 8515   2.932   2.640  16.513  0.9400  0.2280  1.5862
   6623SM   C4S 8516   2.962   2.708  16.207  0.2714  0.2132  0.0155
   6623SM   H4S 8517   2.953   2.645  16.117 -0.1056  1.7281 -1.0688
   6623SM   C5S 8518   2.919   2.836  16.196 -0.2707  0.2892  0.0284
   6623SM   H5S 8519   2.894   2.883  16.293  1.0186  0.9430  0.0608
   6623SM   C6S 8520   2.888   2.917  16.074 -0.4888 -0.1845 -0.4568
   6623SM   H6S 8521   2.940   3.016  16.068 -0.4186 -0.0911  1.1380
   6623SM   H6T 8522   2.780   2.941  16.077 -0.0981  1.6967  1.0966
   6623SM   C7S 8523   2.923   2.845  15.935 -0.8304 -0.2405  0.1052
   6623SM   H7S 8524   2.874   2.746  15.925 -1.4310  0.1716 -1.4059
   6623SM   H7T 8525   3.031   2.822  15.947 -0.5571  0.8118 -0.1630
   6623SM   C8S 8526   2.902   2.931  15.812  0.2173 -0.6341  0.3072
   6623SM   H8S 8527   2.959   2.886  15.728  0.0456 -2.2364  1.0147
   6623SM   H8T 8528   2.936   3.036  15.825 -0.0937 -0.6964  1.7736
   6623SM   C9S 8529   2.754   2.917  15.772 -0.4735 -0.0749  0.5058
   6623SM   H9S 8530   2.701   2.960  15.859  0.6137  2.9159 -0.1599
   6623SM   H9T 8531   2.741   2.807  15.770  0.3813 -0.1739 -0.1153
   6623SM  C10S 8532   2.726   2.978  15.629 -0.2461  0.0531 -0.0112
   6623SM  H10S 8533   2.763   3.082  15.624  0.5845 -0.0139  2.8707
   6623SM  H10T 8534   2.616   2.990  15.633  0.0104  2.4709  1.4370
   6623SM  C11S 8535   2.780   2.888  15.513  0.1036 -0.2134  0.3054
   6623SM  H11S 8536   2.720   2.798  15.490  1.3533 -0.6769 -1.3553
   6623SM  H11T 8537   2.885   2.866  15.541  0.2275  0.1348  0.1140
   6623SM  C12S 8538   2.780   2.960  15.379  1.2337 -0.0514 -0.8649
   6623SM  H12S 8539   2.847   3.049  15.380 -0.4650  1.2847 -0.7223
   6623SM  H12T 8540   2.676   2.997  15.362  0.2136 -2.4656 -0.3227
   6623SM  C13S 8541   2.817   2.860  15.264 -0.5011 -0.5333  1.1742
   6623SM  H13S 8542   2.766   2.765  15.289 -0.2186 -0.1375  3.5004
   6623SM  H13T 8543   2.923   2.839  15.288 -0.5292  1.3435  3.2247
   6623SM  C14S 8544   2.812   2.914  15.122  0.4705  0.0524  0.4577
   6623SM  H14S 8545   2.884   2.998  15.127 -0.7252  1.0808  0.9619
   6623SM  H14T 8546   2.712   2.959  15.108  1.7792  2.4814 -1.9275
   6623SM  C15S 8547   2.845   2.806  15.021 -0.6701 -0.0429  0.6877
   6623SM  H15S 8548   2.773   2.723  15.037  0.3060 -0.9035  0.7158
   6623SM  H15T 8549   2.950   2.770  15.019 -0.9758 -0.9163 -1.2640
   6623SM  C16S 8550   2.821   2.865  14.876  0.1909  0.5027  0.0890
   6623SM  H16S 8551   2.893   2.948  14.862 -1.0598  1.6930  0.5326
   6623SM  H16T 8552   2.715   2.897  14.864 -0.2463  0.0944  2.3889
   6623SM  C17S 8553   2.841   2.765  14.764 -0.1156 -0.0852 -0.3218
   6623SM  H17S 8554   2.764   2.686  14.781 -1.0298  0.7552 -0.4520
   6623SM  H17T 8555   2.940   2.718  14.775  0.1230  0.7592  1.4302
   6623SM  C18S 8556   2.815   2.819  14.623 -0.6632  0.3134  0.2953
   6623SM  H18S 8557   2.828   2.744  14.542 -0.5796  2.2020 -1.5511
   6623SM  H18T 8558   2.876   2.908  14.595 -0.8835  1.5840  3.4610
   6623SM  H18U 8559   2.711   2.858  14.618 -0.9552 -0.6001 -2.4188
   6623SM   C1F 8560   2.723   2.371  16.198 -0.5630  0.2120  0.0168
   6623SM    OF 8561   2.637   2.352  16.278  0.5360 -0.4800 -0.1942
   6623SM   C2F 8562   2.706   2.327  16.052 -0.6384  0.5411 -0.0814
   6623SM   H2F 8563   2.690   2.217  16.060 -1.8486  0.6267 -0.9475
   6623SM   H2G 8564   2.803   2.332  15.998 -0.5748 -0.3100 -0.0625
   6623SM   C3F 8565   2.588   2.403  15.981  0.4635  0.1030  0.0191
   6623SM   H3F 8566   2.501   2.402  16.051  0.3544  0.8045 -0.1006
   6623SM   H3G 8567   2.570   2.353  15.883  0.0829  1.3723 -0.5899
   6623SM   C4F 8568   2.623   2.546  15.938 -0.7149 -0.1500 -0.2659
   6623SM   H4F 8569   2.728   2.541  15.901 -0.2222 -1.9988  1.2481
   6623SM   H4G 8570   2.635   2.608  16.029  5.0889  0.8609 -1.3311
   6623SM   C5F 8571   2.531   2.604  15.832 -0.1449  0.0139  0.0937
   6623SM   H5F 8572   2.534   2.715  15.832 -0.7802  0.0590 -1.6569
   6623SM   H5G 8573   2.428   2.572  15.856 -0.4381  0.0060 -1.1249
   6623SM   C6F 8574   2.566   2.563  15.694  0.0372 -0.2505  0.0500
   6623SM   H6F 8575   2.562   2.457  15.662 -0.3427  0.4580 -2.4560
   6623SM   H6G 8576   2.672   2.595  15.692 -0.4706  1.7619  1.5579
   6623SM   C7F 8577   2.492   2.637  15.585  0.1816 -0.6071 -0.0595
   6623SM   H7F 8578   2.516   2.745  15.594 -1.8671 -0.2863  3.0102
   6623SM   H7G 8579   2.384   2.630  15.607  0.4635 -2.7917  0.8670
   6623SM   C8F 8580   2.522   2.585  15.438  0.4200  0.4484 -0.4170
   6623SM   H8F 8581   2.469   2.487  15.431  0.8505  0.3098 -2.5823
   6623SM   H8G 8582   2.631   2.566  15.425  0.8326  1.1636  1.5833
   6623SM   C9F 8583   2.473   2.679  15.327  0.6473 -0.3212  0.1188
   6623SM   H9F 8584   2.533   2.773  15.330 -1.2212  0.9147  1.4179
   6623SM   H9G 8585   2.367   2.710  15.346 -0.2267 -1.1396 -2.8835
   6623SM  C10F 8586   2.477   2.622  15.181  0.0849 -0.3016 -0.7724
   6623SM  H10F 8587   2.406   2.537  15.185 -1.4598  0.8998 -1.5787
   6623SM  H10G 8588   2.577   2.582  15.152  1.1714 -0.1939  2.4229
   6623SM  C11F 8589   2.412   2.704  15.064  0.2378 -1.1841  0.0487
   6623SM  H11F 8590   2.410   2.812  15.087 -1.9495 -1.3448  0.8587
   6623SM  H11G 8591   2.309   2.673  15.037 -0.5928  2.1877 -1.0787
   6623SM  C12F 8592   2.482   2.683  14.928  0.2522 -0.2014  0.0907
   6623SM  H12F 8593   2.485   2.574  14.905 -1.8031 -0.2978  0.0665
   6623SM  H12G 8594   2.589   2.710  14.935  0.3714 -0.8441  0.8150
   6623SM  C13F 8595   2.422   2.761  14.807  0.6128 -0.0792 -0.7687
   6623SM  H13F 8596   2.443   2.869  14.823  2.4359 -0.6847  1.3295
   6623SM  H13G 8597   2.311   2.750  14.803  0.5085 -2.6399  3.1963
   6623SM  C14F 8598   2.473   2.719  14.671  0.4936  0.0836  0.0741
   6623SM  H14F 8599   2.441   2.618  14.639  0.9776  0.2757 -1.0466
   6623SM  H14G 8600   2.583   2.712  14.683  0.2597 -1.0510  2.0760
   6623SM  C15F 8601   2.423   2.817  14.565 -0.2308  0.1359  0.5739
   6623SM  H15F 8602   2.486   2.905  14.588 -0.0311 -0.1622  1.1956
   6623SM  H15G 8603   2.318   2.837  14.591 -0.4541  0.0122 -0.1954
   6623SM  C16F 8604   2.460   2.782  14.422  0.2172  0.4891  0.5158
   6623SM  H16F 8605   2.427   2.676  14.408  2.9854 -0.7530  2.5470
   6623SM  H16G 8606   2.570   2.770  14.420  0.3112  1.1787 -2.1130
   6623SM  C17F 8607   2.407   2.857  14.297  0.7502  0.1395 -0.0821
   6623SM  H17F 8608   2.425   2.964  14.322 -1.5684  1.0518 -1.8098
   6623SM  H17G 8609   2.297   2.843  14.310  0.8054 -1.2289 -0.8957
   6623SM  C18F 8610   2.465   2.816  14.166 -0.1371 -0.4845  0.0529
   6623SM  H18F 8611   2.423   2.715  14.144 -0.6551 -0.7334  2.0561
   6623SM  H18G 8612   2.575   2.806  14.175  0.3898  3.7329  0.2824
   6623SM  C19F 8613   2.426   2.914  14.058 -0.1223 -0.2752 -0.1575
   6623SM  H19F 8614   2.453   3.016  14.092 -1.3905  0.0703 -0.1238
   6623SM  H19G 8615   2.317   2.924  14.038 -0.1584 -1.7792 -0.8401
   6623SM  C20F 8616   2.503   2.893  13.926  0.1095  0.7740  0.5872
   6623SM  H20F 8617   2.611   2.880  13.948  1.0301  0.5033 -3.4021
   6623SM  H20G 8618   2.487   2.986  13.868 -1.0506  0.4578  0.3712
   6623SM  C21F 8619   2.446   2.770  13.849 -0.1320 -0.2212 -0.7498
   6623SM  H21F 8620   2.340   2.798  13.829 -0.6882 -0.1268  1.9299
   6623SM  H21G 8621   2.460   2.684  13.918  1.9688  1.0754  0.5481
   6623SM  C22F 8622   2.522   2.734  13.721  0.3783  0.2095  0.3954
   6623SM  H22F 8623   2.632   2.737  13.734  0.6182 -0.0264 -1.3697
   6623SM  H22G 8624   2.486   2.810  13.649 -0.0438 -1.7945 -1.6222
   6623SM  C23F 8625   2.483   2.594  13.681  0.3972  0.0130 -0.1793
   6623SM  H23F 8626   2.525   2.550  13.588  1.7795  0.8032  0.0440
   6623SM  H23G 8627   2.372   2.586  13.680  0.1989  1.7590  1.9055
   6623SM  H23H 8628   2.532   2.527  13.754  0.2436  0.4741  0.3520
   6723SM     N 8629   1.741   6.125  16.205 -0.1941 -0.6561 -0.1460
   6723SM   C15 8630   1.739   6.181  16.069  0.0559 -0.0226 -0.7501
   6723SM  H15A 8631   1.817   6.254  16.054 -0.6871  1.0270  0.2444
   6723SM  H15B 8632   1.642   6.224  16.048  1.5339  4.1385  0.0905
   6723SM  H15C 8633   1.752   6.095  16.005  1.6914 -1.8202  1.8530
   6723SM   C14 8634   1.701   6.241  16.293  0.2808 -0.4416  0.2879
   6723SM  H14A 8635   1.595   6.254  16.276  0.5497 -0.9969 -2.1567
   6723SM  H14B 8636   1.761   6.330  16.277 -0.6110  0.4337  1.5565
   6723SM  H14C 8637   1.717   6.217  16.397 -1.5597  0.1016  0.7258
   6723SM   C13 8638   1.652   6.015  16.216  0.8392  0.1484 -1.0463
   6723SM  H13A 8639   1.676   5.935  16.148  3.3971  0.0300 -0.0914
   6723SM  H13B 8640   1.550   6.049  16.212 -0.0247 -1.6449  2.0628
   6723SM  H13C 8641   1.659   5.974  16.315  0.2413 -0.7231 -1.3537
   6723SM   C12 8642   1.884   6.095  16.231 -0.1702  0.2537  0.2680
   6723SM  H12A 8643   1.896   6.092  16.338 -1.9212 -1.8625  0.4488
   6723SM  H12B 8644   1.945   6.177  16.195 -0.2323  0.5204  0.7616
   6723SM   C11 8645   1.951   5.975  16.164 -0.0573 -0.0972 -0.9714
   6723SM  H11A 8646   1.886   5.887  16.182 -1.0466  0.2185 -2.7534
   6723SM  H11B 8647   2.049   5.956  16.214 -1.0297  3.0970  2.5447
   6723SM     P 8648   2.092   6.079  15.974  0.3784 -0.6296  0.0507
   6723SM   O13 8649   2.064   6.225  15.971  0.4305  0.0410  0.2859
   6723SM   O14 8650   2.212   6.024  16.041  0.4691  0.1239 -0.2254
   6723SM   O11 8651   2.101   6.034  15.822 -0.1247 -0.2628 -0.5796
   6723SM   O12 8652   1.969   6.004  16.026 -0.0794 -0.0241 -0.4394
   6723SM   C1S 8653   1.985   6.039  15.741 -0.0326  0.0126  0.1162
   6723SM   H1S 8654   1.933   6.135  15.760 -0.3381 -0.3614  1.2998
   6723SM   H1T 8655   1.912   5.957  15.762 -1.8310  2.0423  2.4142
   6723SM    NF 8656   1.928   6.072  15.504 -0.8755  0.1089 -0.6804
   6723SM   HNF 8657   1.894   5.992  15.454 -0.1329 -1.7928  1.6898
   6723SM   C2S 8658   2.041   6.049  15.596  0.9088 -0.0779 -0.2403
   6723SM   H2S 8659   2.101   6.141  15.610 -1.2376  1.2422  0.9581
   6723SM   C3S 8660   2.118   5.927  15.555 -0.5398 -0.1045  0.2691
   6723SM   H3S 8661   2.048   5.841  15.562 -2.2539  0.8190 -3.0755
   6723SM    O3 8662   2.224   5.899  15.651 -0.0042  0.0084 -0.2656
   6723SM   HO3 8663   2.191   5.955  15.721  1.4682  1.0948 -0.3837
   6723SM   C4S 8664   2.171   5.946  15.417  0.3592 -0.7011 -0.5940
   6723SM   H4S 8665   2.230   6.038  15.410 -0.3664 -0.0564  1.0247
   6723SM   C5S 8666   2.150   5.854  15.319 -0.2048  0.4439 -0.4694
   6723SM   H5S 8667   2.089   5.764  15.337  1.7884 -0.6759  1.1702
   6723SM   C6S 8668   2.217   5.852  15.191 -0.1461 -0.1652  0.0276
   6723SM   H6S 8669   2.146   5.812  15.116 -0.8450  1.2861 -0.1274
   6723SM   H6T 8670   2.304   5.787  15.214  0.3393  0.2370 -0.6480
   6723SM   C7S 8671   2.280   5.981  15.142 -0.4038  0.5787 -0.2724
   6723SM   H7S 8672   2.361   6.009  15.213 -1.0001  0.8939  0.2926
   6723SM   H7T 8673   2.200   6.057  15.129  0.6362  1.3161 -2.7433
   6723SM   C8S 8674   2.345   5.954  15.008  0.2837 -0.1734  0.6180
   6723SM   H8S 8675   2.408   5.863  15.011  1.2096  0.4735  2.8470
   6723SM   H8T 8676   2.419   6.033  14.983  0.8679 -1.1345 -0.8546
   6723SM   C9S 8677   2.241   5.924  14.888  0.7986 -0.3043  0.1020
   6723SM   H9S 8678   2.152   5.989  14.898  1.3856  0.3664  1.0777
   6723SM   H9T 8679   2.204   5.821  14.907 -0.6298  0.0367 -0.6850
   6723SM  C10S 8680   2.312   5.925  14.746 -0.9012  0.0725 -0.2287
   6723SM  H10S 8681   2.389   5.846  14.738  1.0311  2.0055 -2.3376
   6723SM  H10T 8682   2.360   6.025  14.737 -0.1672 -0.2172  0.4076
   6723SM  C11S 8683   2.206   5.899  14.641 -0.1298  0.8974 -0.2790
   6723SM  H11S 8684   2.132   5.982  14.649  0.1735  1.1658 -0.2126
   6723SM  H11T 8685   2.164   5.800  14.671  0.3143  0.3890 -1.3034
   6723SM  C12S 8686   2.264   5.885  14.502 -0.0830  0.4114  0.9496
   6723SM  H12S 8687   2.355   5.821  14.506 -0.6013 -0.3116  3.8004
   6723SM  H12T 8688   2.299   5.980  14.457 -1.9525 -0.0955 -1.8184
   6723SM  C13S 8689   2.159   5.828  14.406  0.3093  0.1773 -0.0777
   6723SM  H13S 8690   2.067   5.889  14.418  0.9723  0.6662  3.5296
   6723SM  H13T 8691   2.124   5.725  14.426 -2.3869  0.8752 -0.7549
   6723SM  C14S 8692   2.201   5.807  14.267 -0.5175 -0.8764 -0.1175
   6723SM  H14S 8693   2.302   5.760  14.269 -0.7004 -1.5729 -2.8778
   6723SM  H14T 8694   2.206   5.900  14.206 -1.1309 -0.6229  0.2131
   6723SM  C15S 8695   2.114   5.719  14.174  0.0942  0.6884  0.4247
   6723SM  H15S 8696   2.129   5.616  14.211  0.2555  0.2900 -0.7188
   6723SM  H15T 8697   2.162   5.735  14.075 -2.0635 -2.5260 -1.2942
   6723SM  C16S 8698   1.975   5.763  14.185  0.0201 -0.0747  0.7458
   6723SM  H16S 8699   1.972   5.873  14.164  0.1906 -0.0828  0.6789
   6723SM  H16T 8700   1.938   5.755  14.289  0.3080  2.1597  1.0753
   6723SM  C17S 8701   1.859   5.689  14.099 -0.7564  0.0278  0.0937
   6723SM  H17S 8702   1.761   5.736  14.122  0.1620  0.6828  3.1493
   6723SM  H17T 8703   1.850   5.582  14.129  1.1352 -0.3298 -0.4890
   6723SM  C18S 8704   1.894   5.702  13.953 -0.1208  0.2094  0.1401
   6723SM  H18S 8705   1.984   5.643  13.927 -0.5206 -0.2040 -0.3208
   6723SM  H18T 8706   1.907   5.810  13.933 -2.1987  0.1652 -1.7907
   6723SM  H18U 8707   1.810   5.664  13.891  0.4989  0.6877 -0.9974
   6723SM   C1F 8708   1.872   6.194  15.497  0.5929 -0.2122 -0.7493
   6723SM    OF 8709   1.916   6.289  15.560 -0.5703  0.2554 -0.1714
   6723SM   C2F 8710   1.743   6.201  15.419 -0.2772  0.4076 -0.1184
   6723SM   H2F 8711   1.669   6.128  15.459  0.0666 -0.0888 -0.3861
   6723SM   H2G 8712   1.771   6.174  15.315 -0.0141 -3.6182  0.8171
   6723SM   C3F 8713   1.696   6.346  15.425 -0.6233 -0.8878 -0.5548
   6723SM   H3F 8714   1.776   6.418  15.395 -0.3249 -0.9976 -0.0317
   6723SM   H3G 8715   1.651   6.369  15.524 -3.5356 -1.8029 -1.5726
   6723SM   C4F 8716   1.571   6.382  15.336  0.4472 -0.5113 -0.0190
   6723SM   H4F 8717   1.532   6.485  15.352  0.5729 -0.4180 -0.3028
   6723SM   H4G 8718   1.500   6.298  15.351  2.4534 -2.2965  0.0143
   6723SM   C5F 8719   1.617   6.383  15.190 -0.0792 -0.0426 -0.5942
   6723SM   H5F 8720   1.635   6.278  15.159 -2.0185 -0.5070 -0.3015
   6723SM   H5G 8721   1.708   6.442  15.168  0.5770 -0.7838  0.0510
   6723SM   C6F 8722   1.507   6.425  15.096  0.8024 -0.1049  0.6121
   6723SM   H6F 8723   1.470   6.529  15.101 -2.2063 -1.0151 -0.4816
   6723SM   H6G 8724   1.421   6.357  15.115  1.5779 -1.9686 -1.9741
   6723SM   C7F 8725   1.543   6.402  14.947 -0.0971  0.0665  0.1445
   6723SM   H7F 8726   1.574   6.296  14.937 -1.7236 -0.6031  1.6570
   6723SM   H7G 8727   1.617   6.477  14.913 -0.9035  0.3829 -0.9864
   6723SM   C8F 8728   1.423   6.422  14.857 -0.1997  0.5016  0.2656
   6723SM   H8F 8729   1.333   6.382  14.908 -0.7952 -0.0490 -1.1687
   6723SM   H8G 8730   1.434   6.360  14.765 -1.9798  1.3593 -0.5625
   6723SM   C9F 8731   1.405   6.566  14.811 -0.3496  0.2397  0.5194
   6723SM   H9F 8732   1.505   6.606  14.785 -0.3798  0.9022  1.3749
   6723SM   H9G 8733   1.378   6.624  14.902 -0.6940 -2.6224  2.3388
   6723SM  C10F 8734   1.315   6.582  14.690 -0.0413 -0.3260 -0.4083
   6723SM  H10F 8735   1.291   6.690  14.680  0.6540 -0.1714 -0.4020
   6723SM  H10G 8736   1.220   6.528  14.710  0.6697 -0.7685  2.0426
   6723SM  C11F 8737   1.387   6.531  14.561 -0.1382  0.3790 -0.4828
   6723SM  H11F 8738   1.398   6.421  14.566  0.9686  0.5378  3.3449
   6723SM  H11G 8739   1.494   6.562  14.564 -0.3301  1.3731 -2.2876
   6723SM  C12F 8740   1.321   6.567  14.425  0.2213 -0.1862 -0.1728
   6723SM  H12F 8741   1.296   6.675  14.433 -0.7810 -0.3384 -1.0002
   6723SM  H12G 8742   1.226   6.510  14.431 -0.0873  0.2716 -0.5324
   6723SM  C13F 8743   1.394   6.527  14.290 -0.9553 -0.7278  0.1343
   6723SM  H13F 8744   1.395   6.416  14.291  0.7646 -0.7795 -1.2923
   6723SM  H13G 8745   1.500   6.562  14.290 -1.1414 -0.0723  1.4577
   6723SM  C14F 8746   1.317   6.581  14.171 -0.3569  0.1780  0.4348
   6723SM  H14F 8747   1.323   6.692  14.169  1.2053  0.1041 -0.1475
   6723SM  H14G 8748   1.211   6.551  14.185 -0.4535  0.3427  0.0792
   6723SM  C15F 8749   1.370   6.527  14.038 -0.5731  0.2161  0.8248
   6723SM  H15F 8750   1.341   6.421  14.024  0.2894 -0.1865  1.9388
   6723SM  H15G 8751   1.481   6.522  14.036 -0.5562  0.6687 -0.5359
   6723SM  C16F 8752   1.328   6.609  13.915 -0.0660 -0.3094  0.2357
   6723SM  H16F 8753   1.357   6.710  13.950  2.2431 -0.6276 -0.5972
   6723SM  H16G 8754   1.217   6.600  13.919 -0.3045  1.3577 -1.2107
   6723SM  C17F 8755   1.384   6.569  13.774  0.2266  0.0051 -0.8133
   6723SM  H17F 8756   1.338   6.469  13.758 -0.6705 -0.1003  1.9200
   6723SM  H17G 8757   1.489   6.545  13.799  0.3000  2.3454  1.5706
   6723SM  C18F 8758   1.379   6.675  13.664  0.0328 -0.4493 -0.6490
   6723SM  H18F 8759   1.453   6.754  13.685  1.8434 -2.0938 -0.5403
   6723SM  H18G 8760   1.275   6.713  13.665  0.8698  1.9621  0.5539
   6723SM  C19F 8761   1.402   6.627  13.516 -1.0095  0.5693  0.1399
   6723SM  H19F 8762   1.504   6.585  13.504 -0.3022  1.8619  1.3335
   6723SM  H19G 8763   1.396   6.722  13.459  1.2157  2.2210  2.4176
   6723SM  C20F 8764   1.297   6.525  13.453 -0.4368  0.1802 -1.0149
   6723SM  H20F 8765   1.277   6.443  13.525 -0.6297  0.1783 -1.0723
   6723SM  H20G 8766   1.352   6.478  13.368 -2.5086  0.5206 -2.6010
   6723SM  C21F 8767   1.172   6.595  13.410  0.3846 -0.1984  0.8753
   6723SM  H21F 8768   1.198   6.673  13.334  0.3935 -2.0943 -1.1661
   6723SM  H21G 8769   1.126   6.653  13.493  2.0081 -0.9273  2.3493
   6723SM  C22F 8770   1.074   6.502  13.335  0.8000  0.9185  0.4338
   6723SM  H22F 8771   1.110   6.478  13.232  4.0181 -3.6226  2.2801
   6723SM  H22G 8772   0.972   6.546  13.331  0.2231 -0.4102 -2.5847
   6723SM  C23F 8773   1.057   6.357  13.394 -0.6372 -0.1671  0.4986
   6723SM  H23F 8774   1.156   6.308  13.382 -0.6917 -0.6340  1.8229
   6723SM  H23G 8775   0.970   6.311  13.342 -0.5039  1.7699 -1.6284
   6723SM  H23H 8776   1.033   6.364  13.502 -1.1392  0.8836  0.3284
   6823SM     N 8777   0.905   2.359  16.821  0.1755 -0.6039 -0.1897
   6823SM   C15 8778   1.045   2.385  16.882  0.0236  0.6384 -0.6401
   6823SM  H15A 8779   1.057   2.319  16.967  0.5555  0.9259 -0.4876
   6823SM  H15B 8780   1.056   2.482  16.927  0.7776  0.0272  0.5501
   6823SM  H15C 8781   1.125   2.374  16.811  0.1108  0.0913 -0.4662
   6823SM   C14 8782   0.884   2.213  16.808 -0.6169  0.6360 -0.3583
   6823SM  H14A 8783   0.778   2.188  16.809 -0.7609  1.2320  0.4274
   6823SM  H14B 8784   0.914   2.168  16.902  2.4699  2.4521 -0.3604
   6823SM  H14C 8785   0.942   2.167  16.730  1.5689 -0.6016  1.8600
   6823SM   C13 8786   0.799   2.419  16.901  0.6075 -0.1813 -0.3062
   6823SM  H13A 8787   0.706   2.396  16.851  0.0159  0.4433  0.4907
   6823SM  H13B 8788   0.816   2.526  16.909  2.8181 -0.3442 -1.8685
   6823SM  H13C 8789   0.800   2.381  17.002 -0.5448  1.4013  0.3506
   6823SM   C12 8790   0.897   2.430  16.688  0.0900 -0.2034 -0.2947
   6823SM  H12A 8791   0.927   2.533  16.701  1.7393 -0.5333 -1.1433
   6823SM  H12B 8792   0.800   2.431  16.642  1.0007  0.7077 -2.3263
   6823SM   C11 8793   0.991   2.386  16.567  0.4161  0.0023 -0.4871
   6823SM  H11A 8794   0.985   2.464  16.488 -0.2332  0.9454  0.4723
   6823SM  H11B 8795   0.945   2.299  16.515  0.1347 -0.0186 -0.2032
   6823SM     P 8796   1.204   2.234  16.579  0.3148 -0.0031  0.1668
   6823SM   O13 8797   1.333   2.238  16.658 -0.2988  0.2831 -0.2430
   6823SM   O14 8798   1.111   2.120  16.608 -0.0597  0.2412  0.9726
   6823SM   O11 8799   1.248   2.250  16.429  0.2307 -0.8629  0.2188
   6823SM   O12 8800   1.126   2.367  16.603 -0.1437  0.5019  0.0554
   6823SM   C1S 8801   1.308   2.376  16.391 -0.1223 -0.2766 -0.5224
   6823SM   H1S 8802   1.411   2.379  16.432 -0.6184  0.9826  0.6978
   6823SM   H1T 8803   1.251   2.467  16.420  0.4254  0.2075 -0.9313
   6823SM    NF 8804   1.411   2.491  16.183 -0.1906 -0.5827 -0.0865
   6823SM   HNF 8805   1.366   2.573  16.148 -0.7015  0.5759  2.9164
   6823SM   C2S 8806   1.319   2.386  16.233 -0.4224  0.1807 -0.4960
   6823SM   H2S 8807   1.355   2.287  16.198  0.3660  0.4950 -0.6062
   6823SM   C3S 8808   1.176   2.395  16.175  0.1068  0.2605 -0.4942
   6823SM   H3S 8809   1.132   2.491  16.208 -1.3599  0.0368 -1.6552
   6823SM    O3 8810   1.079   2.295  16.216 -0.2071 -0.1061 -0.5625
   6823SM   HO3 8811   1.108   2.279  16.306  0.2920  2.8865 -0.0610
   6823SM   C4S 8812   1.189   2.414  16.026  0.0743  0.8852 -0.5265
   6823SM   H4S 8813   1.189   2.516  15.985  0.5268  0.6320 -1.1856
   6823SM   C5S 8814   1.200   2.311  15.940  0.5914  0.3290  1.3238
   6823SM   H5S 8815   1.184   2.209  15.977  0.4211  0.5552  1.8792
   6823SM   C6S 8816   1.218   2.317  15.790 -0.1113  0.2740  0.5051
   6823SM   H6S 8817   1.315   2.273  15.759 -0.0376  2.1785 -2.4082
   6823SM   H6T 8818   1.241   2.421  15.759 -1.6896  0.2506 -0.9352
   6823SM   C7S 8819   1.105   2.288  15.696  0.6819 -0.4276 -0.4875
   6823SM   H7S 8820   1.026   2.363  15.718 -0.7751 -1.8295 -0.7906
   6823SM   H7T 8821   1.061   2.195  15.737  1.3228 -0.5653 -0.0899
   6823SM   C8S 8822   1.141   2.255  15.549  0.4541 -0.6624  0.0190
   6823SM   H8S 8823   1.063   2.184  15.513  1.2305 -0.4168 -2.3388
   6823SM   H8T 8824   1.237   2.200  15.558  0.1481 -1.2190 -0.0325
   6823SM   C9S 8825   1.121   2.369  15.449 -0.4134 -0.5929 -0.7656
   6823SM   H9S 8826   1.201   2.446  15.450 -0.9188 -0.0242 -1.9409
   6823SM   H9T 8827   1.028   2.423  15.477  1.8951  3.3002  0.1332
   6823SM  C10S 8828   1.096   2.333  15.301 -0.1359  0.7698  0.1057
   6823SM  H10S 8829   1.016   2.256  15.302 -0.2621  0.8849 -0.5041
   6823SM  H10T 8830   1.194   2.290  15.269 -0.9174 -1.0211  0.0394
   6823SM  C11S 8831   1.055   2.436  15.198  0.1661  0.2942 -0.1350
   6823SM  H11S 8832   1.121   2.525  15.190  0.3777  0.1372 -0.1370
   6823SM  H11T 8833   0.948   2.452  15.222 -0.2059 -0.5666 -1.1087
   6823SM  C12S 8834   1.063   2.380  15.060  0.5628  0.0726 -0.0787
   6823SM  H12S 8835   0.996   2.291  15.054  1.6309 -0.8011  0.7070
   6823SM  H12T 8836   1.162   2.348  15.024 -0.3114 -1.8656 -0.8944
   6823SM  C13S 8837   1.013   2.477  14.952 -0.2410  0.3497  0.4023
   6823SM  H13S 8838   1.080   2.565  14.943  0.1003  0.1443  0.8471
   6823SM  H13T 8839   0.918   2.528  14.980 -0.1945  1.9070 -2.0394
   6823SM  C14S 8840   1.001   2.420  14.812 -0.1016  0.3007  1.0068
   6823SM  H14S 8841   0.940   2.327  14.813  0.1728  0.0915  0.0025
   6823SM  H14T 8842   1.100   2.397  14.768 -1.5830 -0.6731 -2.1945
   6823SM  C15S 8843   0.947   2.519  14.705  0.2982  0.1665 -0.1192
   6823SM  H15S 8844   1.004   2.610  14.731  1.0937 -0.8117  1.8535
   6823SM  H15T 8845   0.837   2.532  14.710 -0.1531 -2.8167 -0.0276
   6823SM  C16S 8846   0.980   2.463  14.564 -0.4068 -0.0280  0.2788
   6823SM  H16S 8847   0.968   2.354  14.546 -1.0285  0.5411 -3.3131
   6823SM  H16T 8848   1.091   2.469  14.551 -0.5660  0.4182 -1.0059
   6823SM  C17S 8849   0.896   2.531  14.456 -0.0683  0.0461 -0.3082
   6823SM  H17S 8850   0.792   2.499  14.478  0.2637 -0.9867 -0.2216
   6823SM  H17T 8851   0.929   2.496  14.356  2.3702  1.4105 -0.0687
   6823SM  C18S 8852   0.919   2.680  14.453  0.4705  1.1248 -0.1556
   6823SM  H18S 8853   1.025   2.713  14.457  1.1604 -0.9471 -0.0393
   6823SM  H18T 8854   0.858   2.727  14.533 -1.5934  3.7555 -3.0392
   6823SM  H18U 8855   0.866   2.726  14.367 -2.0675 -1.4480 -0.1187
   6823SM   C1F 8856   1.544   2.483  16.193 -0.0095  0.4418  0.4292
   6823SM    OF 8857   1.604   2.395  16.259  0.1609 -0.9004 -0.2453
   6823SM   C2F 8858   1.616   2.592  16.112  0.1640 -0.2966 -0.5396
   6823SM   H2F 8859   1.698   2.639  16.169 -0.8724 -0.9480  1.5688
   6823SM   H2G 8860   1.547   2.670  16.074  2.3333  0.5602 -3.0566
   6823SM   C3F 8861   1.671   2.530  15.978  0.1753  0.3012 -0.4989
   6823SM   H3F 8862   1.729   2.436  15.992 -3.3384 -1.8473  1.1505
   6823SM   H3G 8863   1.741   2.606  15.938  0.1693 -0.6506 -2.4074
   6823SM   C4F 8864   1.570   2.515  15.866 -0.3068  0.1628  0.9192
   6823SM   H4F 8865   1.523   2.615  15.855  1.4177  0.7939 -1.3049
   6823SM   H4G 8866   1.489   2.440  15.882  0.7225 -1.6576 -1.7675
   6823SM   C5F 8867   1.649   2.483  15.741 -0.2484 -0.1772  0.5497
   6823SM   H5F 8868   1.704   2.387  15.748  0.6573  0.2801 -0.1389
   6823SM   H5G 8869   1.724   2.562  15.720 -0.9117  0.3081  0.0001
   6823SM   C6F 8870   1.550   2.466  15.625  0.0214  0.5286 -0.3242
   6823SM   H6F 8871   1.484   2.556  15.623 -1.8892 -0.8390 -1.9489
   6823SM   H6G 8872   1.480   2.382  15.643  1.5682 -0.2882  2.3409
   6823SM   C7F 8873   1.615   2.447  15.494  0.5951 -0.1082 -0.4219
   6823SM   H7F 8874   1.678   2.357  15.507  0.5518  0.0203  0.7247
   6823SM   H7G 8875   1.687   2.530  15.478 -0.0324  0.5349  0.0037
   6823SM   C8F 8876   1.513   2.432  15.387 -0.1916 -0.3499 -0.5044
   6823SM   H8F 8877   1.486   2.535  15.353 -1.4107 -1.2381 -2.4433
   6823SM   H8G 8878   1.417   2.394  15.430 -1.1537  1.0399 -1.3307
   6823SM   C9F 8879   1.581   2.358  15.269  0.7873 -0.3551 -0.3448
   6823SM   H9F 8880   1.610   2.263  15.319 -0.8704 -1.9613 -2.2513
   6823SM   H9G 8881   1.670   2.417  15.239  0.1242  0.7253 -0.2161
   6823SM  C10F 8882   1.499   2.333  15.141  0.3861  1.5030  0.2813
   6823SM  H10F 8883   1.404   2.284  15.171  1.1038 -0.9175 -1.1870
   6823SM  H10G 8884   1.553   2.253  15.086  2.0046  1.5170  1.7400
   6823SM  C11F 8885   1.484   2.461  15.065 -0.0986  0.3733 -0.0437
   6823SM  H11F 8886   1.585   2.505  15.050 -0.1707 -0.0047 -1.9948
   6823SM  H11G 8887   1.421   2.531  15.123 -0.8765 -0.1823 -0.1960
   6823SM  C12F 8888   1.436   2.444  14.917  0.0121  0.3813  0.1109
   6823SM  H12F 8889   1.344   2.382  14.914  0.0321  0.3754 -0.8699
   6823SM  H12G 8890   1.510   2.384  14.859 -1.6871  1.1549 -3.1209
   6823SM  C13F 8891   1.424   2.583  14.848 -0.1049  0.1110  0.2964
   6823SM  H13F 8892   1.528   2.622  14.840  0.6511 -1.8764 -0.1242
   6823SM  H13G 8893   1.367   2.656  14.909 -0.9086  0.7870 -1.2300
   6823SM  C14F 8894   1.374   2.564  14.702 -0.7356 -0.1163  0.4339
   6823SM  H14F 8895   1.265   2.546  14.709 -0.7834  0.0741  0.1841
   6823SM  H14G 8896   1.423   2.471  14.666 -0.3053 -0.4977  1.9386
   6823SM  C15F 8897   1.403   2.673  14.600 -0.1954 -0.6289  0.1285
   6823SM  H15F 8898   1.508   2.691  14.568  0.3349 -1.9588  1.0471
   6823SM  H15G 8899   1.367   2.767  14.647  0.6188  0.3041 -1.0300
   6823SM  C16F 8900   1.332   2.654  14.468  0.0355  0.1529 -0.3751
   6823SM  H16F 8901   1.223   2.654  14.488  0.1274 -1.4760  0.2706
   6823SM  H16G 8902   1.352   2.552  14.428  3.5333 -0.1275  1.6642
   6823SM  C17F 8903   1.368   2.753  14.357 -0.4002 -0.5262 -0.5192
   6823SM  H17F 8904   1.477   2.750  14.333 -0.1378 -1.2076  0.6942
   6823SM  H17G 8905   1.342   2.854  14.394  2.0040 -0.1556  0.3338
   6823SM  C18F 8906   1.297   2.730  14.221 -0.0960 -0.4075  0.6337
   6823SM  H18F 8907   1.330   2.812  14.154 -0.5362  0.5085  1.5068
   6823SM  H18G 8908   1.188   2.734  14.244 -0.2085 -0.3124  0.0893
   6823SM  C19F 8909   1.325   2.593  14.156 -0.4026  0.2372  0.4816
   6823SM  H19F 8910   1.282   2.588  14.054  0.4775  2.2655 -0.0467
   6823SM  H19G 8911   1.281   2.513  14.218 -0.5325  1.0781  1.4959
   6823SM  C20F 8912   1.476   2.557  14.143  0.1012  0.0376 -0.4670
   6823SM  H20F 8913   1.520   2.559  14.245 -2.7019  3.1271  0.8977
   6823SM  H20G 8914   1.527   2.630  14.077 -2.4235  1.0678 -1.4036
   6823SM  C21F 8915   1.501   2.416  14.093  0.2961  0.3280  0.1214
   6823SM  H21F 8916   1.478   2.395  13.986  1.1589 -0.3442  0.0568
   6823SM  H21G 8917   1.453   2.343  14.162  3.1951 -1.7429  0.1245
   6823SM  C22F 8918   1.651   2.405  14.100  0.2606 -0.6011  0.0731
   6823SM  H22F 8919   1.700   2.450  14.189  1.4452 -0.4879 -0.6119
   6823SM  H22G 8920   1.698   2.470  14.023 -0.7245 -1.1235 -1.0140
   6823SM  C23F 8921   1.702   2.264  14.102 -0.2643 -0.1724  0.3432
   6823SM  H23F 8922   1.632   2.197  14.047  0.8398 -0.7190 -0.4405
   6823SM  H23G 8923   1.723   2.228  14.205 -1.7525  2.0164  1.4795
   6823SM  H23H 8924   1.796   2.259  14.043 -0.7059  1.4318 -0.5514
   6923SM     N 8925   3.887   2.341  16.174 -0.1712  0.2744  0.0218
   6923SM   C15 8926   3.942   2.400  16.299 -0.2847 -0.3189 -0.9572
   6923SM  H15A 8927   3.887   2.362  16.384 -0.5537  0.7042 -0.6616
   6923SM  H15B 8928   3.927   2.506  16.286 -0.4296 -0.3963 -1.4400
   6923SM  H15C 8929   4.048   2.378  16.301 -0.1930  0.1824 -0.0179
   6923SM   C14 8930   3.761   2.415  16.136  0.3287 -0.6463 -0.1971
   6923SM  H14A 8931   3.708   2.457  16.221  0.2530 -0.9222 -0.1054
   6923SM  H14B 8932   3.688   2.350  16.090 -0.3660 -0.1700  0.2178
   6923SM  H14C 8933   3.786   2.501  16.077 -1.4252 -1.0884 -1.6803
   6923SM   C13 8934   3.979   2.374  16.062 -0.5467  0.0219  0.5566
   6923SM  H13A 8935   3.986   2.481  16.047 -1.0963 -0.1947 -1.5145
   6923SM  H13B 8936   3.941   2.347  15.964 -0.1627  0.3625  0.3076
   6923SM  H13C 8937   4.084   2.356  16.079 -0.2754  0.2474 -0.7729
   6923SM   C12 8938   3.870   2.194  16.184 -0.2849  0.0469 -0.2755
   6923SM  H12A 8939   3.961   2.142  16.211 -0.4908  0.4043  1.1696
   6923SM  H12B 8940   3.856   2.155  16.084  0.2403 -0.6191 -0.1002
   6923SM   C11 8941   3.773   2.132  16.287 -0.3096 -0.2816  0.1766
   6923SM  H11A 8942   3.808   2.151  16.391 -1.6724  1.1169  0.4210
   6923SM  H11B 8943   3.781   2.022  16.277  1.2643 -0.2803  1.0726
   6923SM     P 8944   3.538   2.102  16.169 -0.0843 -0.1185 -0.6579
   6923SM   O13 8945   3.484   1.988  16.250  0.5404 -0.1690 -0.5242
   6923SM   O14 8946   3.450   2.208  16.111 -0.3117 -0.6881  0.1966
   6923SM   O11 8947   3.629   2.054  16.054  0.2741 -0.9190 -0.5961
   6923SM   O12 8948   3.640   2.178  16.266 -0.2247  0.5135 -0.5416
   6923SM   C1S 8949   3.568   2.005  15.932  0.0790  0.3180  0.0755
   6923SM   H1S 8950   3.473   1.951  15.953  0.1448 -0.6927 -1.9769
   6923SM   H1T 8951   3.638   1.938  15.877  0.0682  0.3480  0.0245
   6923SM    NF 8952   3.466   2.031  15.702 -0.1089  0.2137 -0.0590
   6923SM   HNF 8953   3.515   2.007  15.619  1.2707  2.6549 -0.0653
   6923SM   C2S 8954   3.541   2.104  15.811 -0.2117 -0.4664  0.0020
   6923SM   H2S 8955   3.476   2.184  15.855  1.0890  0.0959  0.9678
   6923SM   C3S 8956   3.677   2.167  15.768 -0.1736  0.2341  0.0915
   6923SM   H3S 8957   3.743   2.089  15.726 -2.1003 -0.3923 -1.9987
   6923SM    O3 8958   3.745   2.220  15.875 -0.5446 -0.4737 -0.0368
   6923SM   HO3 8959   3.695   2.203  15.954  0.6323 -1.9534  0.4446
   6923SM   C4S 8960   3.666   2.264  15.656  0.4666 -0.4806  0.1652
   6923SM   H4S 8961   3.650   2.220  15.556 -0.7059 -0.1539  0.2041
   6923SM   C5S 8962   3.661   2.402  15.666 -0.3494  0.5064 -0.5423
   6923SM   H5S 8963   3.664   2.445  15.767  0.9731 -0.6686 -0.0608
   6923SM   C6S 8964   3.656   2.487  15.541  0.5940  0.5648 -0.3284
   6923SM   H6S 8965   3.730   2.570  15.541  1.3862 -0.1140 -1.1541
   6923SM   H6T 8966   3.556   2.533  15.529  0.3147  0.5147  1.6280
   6923SM   C7S 8967   3.680   2.410  15.409 -0.5498  0.3257  0.4952
   6923SM   H7S 8968   3.592   2.342  15.396 -0.0160  0.0412 -2.0297
   6923SM   H7T 8969   3.767   2.341  15.409 -0.2086  0.7303 -0.7469
   6923SM   C8S 8970   3.687   2.501  15.289 -0.1466 -0.0181  0.2749
   6923SM   H8S 8971   3.784   2.556  15.284 -0.9845  1.8998  2.8544
   6923SM   H8T 8972   3.612   2.582  15.279  0.6497  0.6492 -0.4382
   6923SM   C9S 8973   3.679   2.412  15.155  0.7047  0.2448 -0.2252
   6923SM   H9S 8974   3.592   2.343  15.158  0.7744  0.1760  0.5568
   6923SM   H9T 8975   3.761   2.338  15.146 -1.0700 -2.2267  2.1609
   6923SM  C10S 8976   3.675   2.493  15.025 -0.3805 -0.2371  0.2467
   6923SM  H10S 8977   3.772   2.547  15.023  0.4718 -1.6770  0.7338
   6923SM  H10T 8978   3.598   2.572  15.032  0.4307  0.6929 -0.8364
   6923SM  C11S 8979   3.658   2.409  14.896  0.5077 -0.0209 -0.0571
   6923SM  H11S 8980   3.573   2.338  14.903 -1.0677  1.9164  2.0846
   6923SM  H11T 8981   3.751   2.348  14.890 -0.4233 -1.6762  1.3571
   6923SM  C12S 8982   3.663   2.489  14.765 -0.0026 -0.0667 -0.4421
   6923SM  H12S 8983   3.745   2.564  14.766  1.0293 -1.1526 -1.2852
   6923SM  H12T 8984   3.565   2.538  14.745 -0.7555 -1.4448 -0.2705
   6923SM  C13S 8985   3.702   2.415  14.643 -0.6411  1.2791  0.3575
   6923SM  H13S 8986   3.637   2.326  14.632 -0.3835  1.0923  0.3674
   6923SM  H13T 8987   3.805   2.377  14.659 -1.4329 -0.1940  2.3330
   6923SM  C14S 8988   3.682   2.507  14.519 -0.0955  0.3305  0.8418
   6923SM  H14S 8989   3.751   2.594  14.528  1.2005 -0.6896  1.0545
   6923SM  H14T 8990   3.576   2.540  14.515 -0.8223 -1.9115 -0.0466
   6923SM  C15S 8991   3.724   2.449  14.383  0.2381  1.0123 -0.1001
   6923SM  H15S 8992   3.669   2.352  14.381  1.8559 -0.0612  1.9254
   6923SM  H15T 8993   3.832   2.422  14.386 -0.7638 -4.1031  0.0786
   6923SM  C16S 8994   3.684   2.536  14.267  0.0846  0.6354  0.7857
   6923SM  H16S 8995   3.573   2.539  14.267 -0.0823  0.0553 -3.4340
   6923SM  H16T 8996   3.711   2.487  14.171  1.1036  0.0859  1.3377
   6923SM  C17S 8997   3.753   2.664  14.272  0.2663  0.0210  0.9016
   6923SM  H17S 8998   3.859   2.653  14.302  0.4819  0.3740  0.2952
   6923SM  H17T 8999   3.716   2.731  14.352 -0.8680 -0.8198  1.1051
   6923SM  C18S 9000   3.762   2.742  14.146  0.3923  0.4384 -0.2024
   6923SM  H18S 9001   3.814   2.836  14.174 -0.5775  0.5742  1.1992
   6923SM  H18T 9002   3.658   2.756  14.110 -1.0022 -1.0998  2.9353
   6923SM  H18U 9003   3.820   2.694  14.064  0.5431  1.0723 -0.4756
   6923SM   C1F 9004   3.340   1.990  15.714 -0.0287  0.8234 -0.4728
   6923SM    OF 9005   3.271   2.009  15.813 -0.2843  0.2452  0.1135
   6923SM   C2F 9006   3.290   1.909  15.590  0.6537  0.2332 -0.4143
   6923SM   H2F 9007   3.338   1.808  15.588  0.3315  0.0488  0.4969
   6923SM   H2G 9008   3.342   1.959  15.506  3.1673 -1.0865  0.2552
   6923SM   C3F 9009   3.139   1.903  15.571  0.1661  0.6770 -0.6981
   6923SM   H3F 9010   3.078   1.994  15.590 -3.7280 -1.7696 -0.3344
   6923SM   H3G 9011   3.099   1.825  15.639  0.2693  0.1309 -1.2526
   6923SM   C4F 9012   3.105   1.847  15.429  0.3818 -0.0288 -0.5921
   6923SM   H4F 9013   2.999   1.815  15.434  0.3328  0.2788  1.1595
   6923SM   H4G 9014   3.163   1.754  15.412 -0.0969 -0.6103  0.8278
   6923SM   C5F 9015   3.117   1.949  15.317 -0.5082 -1.0000 -0.3242
   6923SM   H5F 9016   3.210   2.008  15.338 -2.1426  1.2473  1.1045
   6923SM   H5G 9017   3.042   2.031  15.322 -0.7234 -1.2690  1.7837
   6923SM   C6F 9018   3.133   1.891  15.181  0.2067  0.1605  0.3276
   6923SM   H6F 9019   3.220   1.822  15.188  0.3803  0.5284  3.8963
   6923SM   H6G 9020   3.142   1.967  15.101  1.3349 -0.0857  0.2020
   6923SM   C7F 9021   3.017   1.800  15.155  0.2302 -0.1390  0.2884
   6923SM   H7F 9022   2.917   1.844  15.180 -1.0871 -1.3953 -2.3591
   6923SM   H7G 9023   3.018   1.714  15.225  1.6808 -1.6075 -1.4369
   6923SM   C8F 9024   3.011   1.744  15.011  0.2594  0.4399 -0.4085
   6923SM   H8F 9025   2.909   1.708  14.984 -0.3287  1.7465 -0.0263
   6923SM   H8G 9026   3.086   1.665  14.992  0.3453  0.1843  0.8774
   6923SM   C9F 9027   3.044   1.844  14.895 -0.5754 -0.2179  0.2510
   6923SM   H9F 9028   3.151   1.873  14.897 -0.3169 -1.1272  0.1010
   6923SM   H9G 9029   2.985   1.937  14.911  0.6687  1.0599 -2.1155
   6923SM  C10F 9030   3.013   1.791  14.756  0.5654  0.0234  0.6512
   6923SM  H10F 9031   2.910   1.749  14.759  0.8156 -0.7972 -1.1506
   6923SM  H10G 9032   3.074   1.703  14.725  0.5305  0.1635  0.1770
   6923SM  C11F 9033   3.037   1.893  14.646  0.5784  0.0621 -0.3492
   6923SM  H11F 9034   3.141   1.933  14.654 -0.1793  2.3606 -1.1720
   6923SM  H11G 9035   2.955   1.967  14.661  1.5369  0.9427  0.7887
   6923SM  C12F 9036   3.018   1.838  14.503  0.6167 -0.1743 -0.1186
   6923SM  H12F 9037   2.925   1.777  14.497  0.9236 -0.6413 -0.1801
   6923SM  H12G 9038   3.104   1.771  14.481 -0.4867 -1.4116 -0.9051
   6923SM  C13F 9039   3.009   1.947  14.402  0.1527 -0.7229 -0.2322
   6923SM  H13F 9040   2.942   2.025  14.445 -1.9749 -0.2071 -4.1071
   6923SM  H13G 9041   2.959   1.910  14.311 -0.1823  0.8040 -0.7034
   6923SM  C14F 9042   3.142   2.014  14.364  1.2292  0.8151  0.0143
   6923SM  H14F 9043   3.201   1.936  14.312  1.1618  0.0819  1.0070
   6923SM  H14G 9044   3.204   2.046  14.450  0.5645  3.3843 -0.3746
   6923SM  C15F 9045   3.126   2.130  14.265  0.1068  0.0461  0.2288
   6923SM  H15F 9046   3.117   2.225  14.322  1.9404 -0.8259  2.1047
   6923SM  H15G 9047   3.038   2.111  14.199 -0.1493  0.7120  0.3705
   6923SM  C16F 9048   3.255   2.137  14.187 -0.1278  0.5385  0.2219
   6923SM  H16F 9049   3.285   2.040  14.142 -0.3780  0.5082  0.1181
   6923SM  H16G 9050   3.331   2.175  14.258 -0.0900  0.9723 -0.0495
   6923SM  C17F 9051   3.244   2.234  14.070 -0.3388 -0.1332  0.1116
   6923SM  H17F 9052   3.207   2.336  14.093  1.3403  0.6753 -0.5579
   6923SM  H17G 9053   3.161   2.197  14.007 -3.9863  2.4349  2.9823
   6923SM  C18F 9054   3.382   2.249  13.985  1.0799 -0.0851 -0.3786
   6923SM  H18F 9055   3.453   2.281  14.064 -2.9826 -0.1234  3.6758
   6923SM  H18G 9056   3.366   2.327  13.908 -1.9497 -0.0559  0.1434
   6923SM  C19F 9057   3.422   2.114  13.911  0.4402 -0.0385  0.1067
   6923SM  H19F 9058   3.407   2.033  13.985 -1.3438 -0.5822 -0.7776
   6923SM  H19G 9059   3.523   2.123  13.866 -0.1111  0.5112 -1.0835
   6923SM  C20F 9060   3.324   2.079  13.791  0.2839 -0.0686 -0.3902
   6923SM  H20F 9061   3.295   2.160  13.721  0.2117 -1.8619 -2.5276
   6923SM  H20G 9062   3.234   2.058  13.854 -0.3914  1.7528 -0.6739
   6923SM  C21F 9063   3.358   1.957  13.706 -0.5474  0.6213 -0.0094
   6923SM  H21F 9064   3.274   1.905  13.656  1.3322 -2.4112 -0.2473
   6923SM  H21G 9065   3.401   1.884  13.778 -0.6159  0.1544 -0.4350
   6923SM  C22F 9066   3.464   1.999  13.607 -0.1789 -0.2671  0.0328
   6923SM  H22F 9067   3.550   2.054  13.652 -1.7337  1.2512  1.2977
   6923SM  H22G 9068   3.422   2.079  13.543 -2.9532  0.7854  2.8672
   6923SM  C23F 9069   3.515   1.880  13.529 -0.0036 -0.0426 -0.0778
   6923SM  H23F 9070   3.449   1.847  13.446  0.4805 -0.2920 -0.3705
   6923SM  H23G 9071   3.523   1.793  13.599  0.5429 -0.5349 -0.7421
   6923SM  H23H 9072   3.617   1.901  13.490  0.1065  0.0452  0.2494
   7023SM     N 9073   2.655   1.180  16.149 -0.0747 -0.3484 -0.8887
   7023SM   C15 9074   2.798   1.145  16.124  0.5295 -0.1017  0.5120
   7023SM  H15A 9075   2.805   1.038  16.117 -0.5227 -0.0657 -2.3113
   7023SM  H15B 9076   2.870   1.183  16.194  1.6889 -0.4978 -0.4234
   7023SM  H15C 9077   2.831   1.180  16.027 -0.8872  0.5896  0.2509
   7023SM   C14 9078   2.570   1.149  16.034  0.4802 -0.3753 -0.2158
   7023SM  H14A 9079   2.469   1.181  16.058  0.8533  1.3187 -0.7900
   7023SM  H14B 9080   2.560   1.043  16.013 -2.2065 -0.3068  0.3630
   7023SM  H14C 9081   2.588   1.196  15.938  0.9324  2.2424  1.0656
   7023SM   C13 9082   2.598   1.114  16.270 -0.0410  0.3884 -0.0369
   7023SM  H13A 9083   2.495   1.145  16.284 -0.3234 -1.3445  2.1774
   7023SM  H13B 9084   2.652   1.130  16.362 -1.1443 -0.4505  0.7823
   7023SM  H13C 9085   2.586   1.007  16.264  1.1111  0.1792  1.0110
   7023SM   C12 9086   2.651   1.336  16.169 -0.3759 -0.4711 -0.2044
   7023SM  H12A 9087   2.553   1.375  16.150  0.4598  2.1173  0.4150
   7023SM  H12B 9088   2.722   1.375  16.098 -0.2340  0.7901  0.6039
   7023SM   C11 9089   2.703   1.411  16.296  0.0705  0.1098 -0.3980
   7023SM  H11A 9090   2.677   1.359  16.390  0.3860  1.2593  0.3486
   7023SM  H11B 9091   2.651   1.509  16.296  1.5932  0.9889  1.3035
   7023SM     P 9092   2.928   1.556  16.275 -0.0533  0.0212  0.1702
   7023SM   O13 9093   2.853   1.646  16.362  0.0205 -0.0284  0.8868
   7023SM   O14 9094   3.067   1.514  16.316  0.3092 -0.4651 -0.1041
   7023SM   O11 9095   2.927   1.585  16.120 -0.0034 -0.4619 -0.3170
   7023SM   O12 9096   2.846   1.415  16.269  0.3403 -0.7748  0.2719
   7023SM   C1S 9097   2.831   1.680  16.071  0.3974  0.8011 -0.7413
   7023SM   H1S 9098   2.847   1.783  16.111 -3.6872  2.2954 -2.3262
   7023SM   H1T 9099   2.727   1.650  16.097  0.5405 -1.6654 -2.6421
   7023SM    NF 9100   2.769   1.790  15.855  0.8733 -0.0644 -0.7941
   7023SM   HNF 9101   2.691   1.765  15.800  0.3584  1.1718 -0.6507
   7023SM   C2S 9102   2.834   1.678  15.913  0.1286  0.4492 -0.5785
   7023SM   H2S 9103   2.938   1.688  15.877  0.2120 -0.0593 -0.4787
   7023SM   C3S 9104   2.784   1.548  15.860  0.0117  0.2129 -0.2971
   7023SM   H3S 9105   2.678   1.541  15.891 -0.1735  1.8108 -0.4907
   7023SM    O3 9106   2.846   1.430  15.918 -0.0934 -0.5179 -0.7110
   7023SM   HO3 9107   2.884   1.458  16.002  1.3378 -0.3077 -1.4001
   7023SM   C4S 9108   2.797   1.544  15.711 -0.6204  1.1524  0.2322
   7023SM   H4S 9109   2.888   1.504  15.664 -2.0613 -0.1929 -1.5908
   7023SM   C5S 9110   2.691   1.543  15.627  0.7616  0.1752  0.2262
   7023SM   H5S 9111   2.590   1.528  15.668  0.2487  0.8079 -0.7776
   7023SM   C6S 9112   2.702   1.525  15.478  0.5400  0.4975  0.0269
   7023SM   H6S 9113   2.644   1.434  15.453  1.2298  0.1416 -0.3185
   7023SM   H6T 9114   2.810   1.512  15.455  0.5425  0.1880  0.2176
   7023SM   C7S 9115   2.655   1.646  15.398 -0.2607 -0.3480 -0.5010
   7023SM   H7S 9116   2.717   1.736  15.419 -0.4478  0.1786 -2.0391
   7023SM   H7T 9117   2.555   1.678  15.435  0.9070  1.5468  1.2252
   7023SM   C8S 9118   2.654   1.606  15.253  0.1435 -0.0948 -0.4065
   7023SM   H8S 9119   2.586   1.518  15.252 -0.9069  0.6984 -1.4870
   7023SM   H8T 9120   2.760   1.587  15.223  0.5596  2.3493 -0.6555
   7023SM   C9S 9121   2.589   1.709  15.160  0.2009  0.2582  0.4864
   7023SM   H9S 9122   2.652   1.801  15.170 -0.4912  0.8312 -0.3258
   7023SM   H9T 9123   2.486   1.728  15.198 -0.5490 -2.6351  0.0860
   7023SM  C10S 9124   2.593   1.659  15.021  0.3316 -0.8025  0.7043
   7023SM  H10S 9125   2.526   1.572  14.999  1.8775 -1.3902 -2.3335
   7023SM  H10T 9126   2.696   1.632  14.990 -1.0475 -2.2447 -3.4768
   7023SM  C11S 9127   2.560   1.766  14.908 -0.1973 -0.1317 -0.7994
   7023SM  H11S 9128   2.630   1.850  14.925 -0.0448 -0.3070 -0.5703
   7023SM  H11T 9129   2.460   1.805  14.936  0.4811  0.3733  1.0349
   7023SM  C12S 9130   2.555   1.719  14.766  0.6377 -0.3808 -0.6460
   7023SM  H12S 9131   2.460   1.666  14.741 -0.0846  1.2512 -1.4558
   7023SM  H12T 9132   2.636   1.652  14.729  1.7220  0.1695  0.6634
   7023SM  C13S 9133   2.549   1.839  14.679 -0.2990  0.2871  0.1761
   7023SM  H13S 9134   2.633   1.910  14.696 -1.6334  1.6972  1.1326
   7023SM  H13T 9135   2.456   1.896  14.701 -1.4681 -1.3665 -0.2572
   7023SM  C14S 9136   2.560   1.810  14.529  0.2998 -0.1331 -0.2603
   7023SM  H14S 9137   2.476   1.755  14.483  0.8280 -1.6783  0.5462
   7023SM  H14T 9138   2.649   1.743  14.520  1.2581  1.1415 -0.6030
   7023SM  C15S 9139   2.590   1.933  14.442  0.0757  0.6679 -0.0771
   7023SM  H15S 9140   2.695   1.967  14.454  0.9713 -1.9481  0.0420
   7023SM  H15T 9141   2.522   2.013  14.480  2.2885  2.3214  0.5972
   7023SM  C16S 9142   2.570   1.915  14.297 -0.5776 -0.0782 -0.2544
   7023SM  H16S 9143   2.471   1.872  14.272 -1.1214  2.0552 -2.0340
   7023SM  H16T 9144   2.655   1.852  14.265 -0.0783 -0.2856  1.3667
   7023SM  C17S 9145   2.599   2.046  14.218  0.8005  0.2245  0.7522
   7023SM  H17S 9146   2.702   2.080  14.243  1.5826 -1.3662 -0.1796
   7023SM  H17T 9147   2.531   2.132  14.237 -0.2662 -0.2255 -0.8844
   7023SM  C18S 9148   2.592   2.029  14.063 -0.4055  0.1380  0.5084
   7023SM  H18S 9149   2.666   1.950  14.038 -0.2922 -0.3825  2.3508
   7023SM  H18T 9150   2.599   2.122  14.002 -2.3793  2.4471  3.5030
   7023SM  H18U 9151   2.500   1.973  14.039 -0.8722  0.8377  0.6379
   7023SM   C1F 9152   2.812   1.919  15.866 -0.1653 -0.2489 -0.7426
   7023SM    OF 9153   2.913   1.946  15.930 -0.0126 -0.1255  0.2021
   7023SM   C2F 9154   2.745   2.026  15.788  0.0327 -0.5646 -0.3889
   7023SM   H2F 9155   2.678   2.084  15.856  1.3391  0.8354 -0.2308
   7023SM   H2G 9156   2.690   1.987  15.700 -1.3254  1.1631 -0.3675
   7023SM   C3F 9157   2.847   2.133  15.742  0.0605  0.6033  0.1102
   7023SM   H3F 9158   2.939   2.089  15.697 -1.0161  0.7136 -2.3264
   7023SM   H3G 9159   2.869   2.196  15.831  0.1407  0.2442  0.3473
   7023SM   C4F 9160   2.792   2.220  15.632  0.3691  0.2944 -0.5125
   7023SM   H4F 9161   2.845   2.317  15.630 -0.8539  1.0522  1.0257
   7023SM   H4G 9162   2.689   2.239  15.671  1.1235 -0.0091  1.8221
   7023SM   C5F 9163   2.806   2.154  15.497 -0.4949  0.2354 -0.0991
   7023SM   H5F 9164   2.749   2.059  15.486  1.3544 -0.7692 -1.6943
   7023SM   H5G 9165   2.914   2.133  15.481 -0.6272 -0.2543 -0.3663
   7023SM   C6F 9166   2.742   2.251  15.392  0.0498  0.0012 -0.3603
   7023SM   H6F 9167   2.780   2.353  15.412  1.5886 -0.7555  0.7353
   7023SM   H6G 9168   2.638   2.269  15.427 -0.0304 -1.5551  0.3257
   7023SM   C7F 9169   2.749   2.201  15.250 -0.7195 -0.3170  0.1261
   7023SM   H7F 9170   2.678   2.116  15.244  1.6431 -2.3600 -0.3954
   7023SM   H7G 9171   2.852   2.166  15.225  0.0307  0.3209  2.0757
   7023SM   C8F 9172   2.720   2.312  15.140  0.0837  0.1933  0.8305
   7023SM   H8F 9173   2.794   2.394  15.149  0.9035 -0.6282  1.7553
   7023SM   H8G 9174   2.621   2.360  15.155 -0.3675  0.2715 -1.9546
   7023SM   C9F 9175   2.702   2.243  15.009 -0.2527  0.7032 -0.0944
   7023SM   H9F 9176   2.630   2.159  15.009  2.5750 -1.9470 -1.5811
   7023SM   H9G 9177   2.795   2.187  14.985 -0.3871  0.9338 -1.2151
   7023SM  C10F 9178   2.666   2.339  14.897  0.5621  0.0611  0.0689
   7023SM  H10F 9179   2.728   2.425  14.930  0.7465 -0.5396  1.3430
   7023SM  H10G 9180   2.560   2.370  14.909  1.2799  2.2741  1.3052
   7023SM  C11F 9181   2.690   2.286  14.758 -0.0659 -0.1429  0.5433
   7023SM  H11F 9182   2.622   2.206  14.722 -1.7660  1.1717  0.7166
   7023SM  H11G 9183   2.795   2.251  14.767  1.0039  2.8199  0.6823
   7023SM  C12F 9184   2.691   2.399  14.656 -0.0534  0.0520  0.5613
   7023SM  H12F 9185   2.760   2.483  14.683  1.5243 -0.1613 -2.4353
   7023SM  H12G 9186   2.586   2.431  14.637  0.9637  2.5895 -1.3790
   7023SM  C13F 9187   2.735   2.344  14.518 -0.1997 -0.0155 -0.3114
   7023SM  H13F 9188   2.683   2.250  14.488 -0.5848  0.4462 -1.1073
   7023SM  H13G 9189   2.846   2.338  14.520 -0.1024  1.3304 -0.8362
   7023SM  C14F 9190   2.698   2.447  14.412  0.4491 -0.5181 -0.2724
   7023SM  H14F 9191   2.730   2.543  14.458  1.4610 -0.7389 -0.4816
   7023SM  H14G 9192   2.589   2.451  14.395  0.7864  0.7775 -2.6649
   7023SM  C15F 9193   2.773   2.429  14.278  0.1051  0.5661 -0.2715
   7023SM  H15F 9194   2.757   2.322  14.251 -1.5562  0.8399 -0.5064
   7023SM  H15G 9195   2.882   2.447  14.290  0.0703  2.0945 -2.0022
   7023SM  C16F 9196   2.710   2.515  14.172 -0.5301 -0.1069  0.0448
   7023SM  H16F 9197   2.731   2.623  14.184 -1.2265  0.0786 -0.4111
   7023SM  H16G 9198   2.602   2.506  14.195 -0.5135  0.1456  0.2232
   7023SM  C17F 9199   2.732   2.469  14.026  0.0600 -0.2409  0.5771
   7023SM  H17F 9200   2.647   2.496  13.959 -0.0888  1.1471  1.3021
   7023SM  H17G 9201   2.742   2.358  14.023  2.2851 -0.1417 -3.4806
   7023SM  C18F 9202   2.858   2.513  13.958 -0.1093  0.1473  0.3770
   7023SM  H18F 9203   2.862   2.486  13.851  1.6898  0.0269  0.4425
   7023SM  H18G 9204   2.945   2.463  14.006 -0.7006 -0.8840  0.4237
   7023SM  C19F 9205   2.882   2.661  13.955 -0.3248 -0.0618  0.4752
   7023SM  H19F 9206   2.887   2.712  14.053  2.2271  2.6573 -0.8877
   7023SM  H19G 9207   2.809   2.720  13.895  0.2081 -0.0795 -0.2151
   7023SM  C20F 9208   3.022   2.690  13.892  0.7036  0.3689  0.2458
   7023SM  H20F 9209   3.017   2.788  13.839 -2.4557 -0.7684 -1.8696
   7023SM  H20G 9210   3.031   2.617  13.808 -2.1317  0.5000 -0.2671
   7023SM  C21F 9211   3.145   2.690  13.986  0.8140  0.4591 -0.4475
   7023SM  H21F 9212   3.174   2.585  14.007  1.5704  1.1369  2.2376
   7023SM  H21G 9213   3.108   2.731  14.082 -0.9367  2.3024 -1.8128
   7023SM  C22F 9214   3.269   2.765  13.939  0.0139 -0.2513 -0.0478
   7023SM  H22F 9215   3.352   2.768  14.013 -0.8463 -0.4778  0.9615
   7023SM  H22G 9216   3.240   2.869  13.916 -1.1703 -0.0124  2.2238
   7023SM  C23F 9217   3.329   2.693  13.813 -0.6256 -0.3298 -0.1343
   7023SM  H23F 9218   3.268   2.714  13.723  0.4648 -0.5032 -0.9273
   7023SM  H23G 9219   3.338   2.584  13.831 -0.6352 -0.2337  0.4680
   7023SM  H23H 9220   3.434   2.727  13.801 -0.2476 -1.7567 -1.0685
   7123SM     N 9221   2.017   0.598  15.740 -0.0220  0.5975 -0.0700
   7123SM   C15 9222   1.898   0.618  15.842 -0.8230  0.1167  0.0956
   7123SM  H15A 9223   1.838   0.703  15.813  1.4621  1.3749 -1.1650
   7123SM  H15B 9224   1.940   0.634  15.940  3.1821 -1.5108 -1.1494
   7123SM  H15C 9225   1.835   0.530  15.850 -0.4941 -0.0974  0.3163
   7123SM   C14 9226   2.064   0.458  15.770  0.1971  0.7516  0.1312
   7123SM  H14A 9227   2.132   0.424  15.693  1.0515 -1.6518  1.8299
   7123SM  H14B 9228   1.984   0.386  15.772  1.1745 -0.3551  0.3423
   7123SM  H14C 9229   2.127   0.461  15.857  0.1259 -0.0562  0.2143
   7123SM   C13 9230   1.968   0.603  15.604 -0.3247 -1.3175 -0.2973
   7123SM  H13A 9231   1.941   0.704  15.580  2.3681 -0.8141 -1.6201
   7123SM  H13B 9232   1.888   0.534  15.581 -2.6165  0.7044  1.2289
   7123SM  H13C 9233   2.055   0.594  15.539 -1.4947  1.3634 -2.4072
   7123SM   C12 9234   2.118   0.702  15.775 -0.1876  0.0186  0.5710
   7123SM  H12A 9235   2.201   0.675  15.838  0.8271  2.9969  0.6708
   7123SM  H12B 9236   2.073   0.796  15.804  0.1515 -0.2967  2.1831
   7123SM   C11 9237   2.212   0.764  15.659  0.3986 -0.5832 -0.7109
   7123SM  H11A 9238   2.278   0.844  15.698 -0.7857 -0.1505  0.4886
   7123SM  H11B 9239   2.139   0.819  15.596  0.6180 -0.1506 -0.5892
   7123SM     P 9240   2.364   0.550  15.640 -0.4984 -0.0246  0.0400
   7123SM   O13 9241   2.383   0.563  15.787  0.4017  0.1364  0.2558
   7123SM   O14 9242   2.311   0.419  15.597  0.0106  0.1919 -0.1065
   7123SM   O11 9243   2.506   0.580  15.567  0.3092 -0.1561  0.2929
   7123SM   O12 9244   2.273   0.668  15.582  0.4322 -0.5916 -0.1691
   7123SM   C1S 9245   2.542   0.579  15.431  0.5217  0.3457 -0.1896
   7123SM   H1S 9246   2.481   0.499  15.383 -1.8964  2.1126 -0.2288
   7123SM   H1T 9247   2.648   0.545  15.424 -0.1142 -1.6406 -0.8683
   7123SM    NF 9248   2.545   0.715  15.233 -0.1352 -0.3786  0.4588
   7123SM   HNF 9249   2.640   0.728  15.206 -0.4177  0.6146 -0.1024
   7123SM   C2S 9250   2.525   0.717  15.375 -0.6388  0.9699  0.0392
   7123SM   H2S 9251   2.418   0.741  15.391 -0.9970 -1.0121  1.0071
   7123SM   C3S 9252   2.617   0.815  15.451  0.4356  0.2505 -0.1610
   7123SM   H3S 9253   2.716   0.765  15.460  0.3164  0.1613  0.7624
   7123SM    O3 9254   2.571   0.841  15.587  0.5011 -0.4405  0.7632
   7123SM   HO3 9255   2.491   0.789  15.592 -0.3465  0.7663  0.2826
   7123SM   C4S 9256   2.629   0.946  15.387 -0.3810 -0.3314  0.1801
   7123SM   H4S 9257   2.724   0.950  15.331 -1.2512  0.8460 -1.2569
   7123SM   C5S 9258   2.553   1.056  15.385  0.2957 -0.0586  0.5856
   7123SM   H5S 9259   2.467   1.057  15.454  0.8369 -1.9910  1.3656
   7123SM   C6S 9260   2.593   1.182  15.318  0.9661  0.1717 -0.3740
   7123SM   H6S 9261   2.704   1.187  15.313  0.9909 -0.6974 -0.7871
   7123SM   H6T 9262   2.550   1.268  15.375 -1.2872  0.6279 -2.6205
   7123SM   C7S 9263   2.542   1.204  15.177 -0.4353  0.0590  0.1037
   7123SM   H7S 9264   2.569   1.306  15.141 -0.3290 -0.0570 -0.1535
   7123SM   H7T 9265   2.431   1.208  15.174 -0.3967  1.8823  0.1377
   7123SM   C8S 9266   2.600   1.103  15.074 -0.0467 -0.4971 -1.0313
   7123SM   H8S 9267   2.569   0.997  15.078 -0.9342 -0.2197  0.3706
   7123SM   H8T 9268   2.709   1.105  15.097 -0.3995 -0.8119  0.8587
   7123SM   C9S 9269   2.596   1.156  14.933 -0.2836  0.1694 -0.2617
   7123SM   H9S 9270   2.660   1.090  14.871  1.6727  0.6122  1.2057
   7123SM   H9T 9271   2.635   1.260  14.928  2.3363 -0.7127  0.6027
   7123SM  C10S 9272   2.458   1.158  14.868 -0.0075 -0.5477 -0.2712
   7123SM  H10S 9273   2.393   1.218  14.934 -0.3842 -0.1902 -0.9566
   7123SM  H10T 9274   2.416   1.055  14.872  0.7662 -0.9092 -1.0890
   7123SM  C11S 9275   2.470   1.194  14.724  0.0505 -0.2495 -0.2566
   7123SM  H11S 9276   2.379   1.179  14.662 -0.2609  3.2350 -0.8600
   7123SM  H11T 9277   2.539   1.126  14.669 -1.0381 -1.2845 -0.3923
   7123SM  C12S 9278   2.501   1.341  14.699 -0.0024 -0.0564  0.2629
   7123SM  H12S 9279   2.600   1.344  14.749 -0.2333 -0.7413  0.7784
   7123SM  H12T 9280   2.426   1.405  14.750 -0.0599 -1.1646  1.6218
   7123SM  C13S 9281   2.512   1.377  14.552  0.6564 -0.6089 -0.2293
   7123SM  H13S 9282   2.584   1.307  14.504  1.1645  0.3453 -0.8974
   7123SM  H13T 9283   2.569   1.472  14.550 -0.7110  0.2367 -0.2483
   7123SM  C14S 9284   2.374   1.402  14.487 -0.7792  0.3639  0.3881
   7123SM  H14S 9285   2.336   1.501  14.521  0.9483  0.5429  1.9512
   7123SM  H14T 9286   2.301   1.321  14.508  1.1520 -1.4368  0.5081
   7123SM  C15S 9287   2.389   1.431  14.336  0.1704  0.5401 -0.0817
   7123SM  H15S 9288   2.404   1.336  14.280 -1.2939 -0.2321  0.7722
   7123SM  H15T 9289   2.478   1.496  14.322  0.0446  0.6216 -0.5095
   7123SM  C16S 9290   2.258   1.499  14.274  0.0399  0.4414 -0.1956
   7123SM  H16S 9291   2.206   1.561  14.350 -0.3671 -0.0126 -0.1064
   7123SM  H16T 9292   2.190   1.415  14.249  0.8935 -0.3275 -0.0153
   7123SM  C17S 9293   2.300   1.565  14.139  0.5232 -0.2304 -0.0747
   7123SM  H17S 9294   2.407   1.593  14.148  0.3531  0.2791  0.4268
   7123SM  H17T 9295   2.238   1.654  14.111  1.4528 -0.3356 -2.8109
   7123SM  C18S 9296   2.276   1.462  14.028  0.0225 -0.3007 -0.3898
   7123SM  H18S 9297   2.315   1.364  14.062  0.5257  0.5359  1.6116
   7123SM  H18T 9298   2.336   1.490  13.939 -1.1427  2.7960 -0.3266
   7123SM  H18U 9299   2.166   1.464  14.011 -0.0312 -0.0911 -0.0467
   7123SM   C1F 9300   2.448   0.669  15.151  0.0208 -1.0641 -0.3129
   7123SM    OF 9301   2.346   0.618  15.203 -0.2244 -0.7269 -0.0752
   7123SM   C2F 9302   2.472   0.678  15.007 -0.0504  0.2325  0.4012
   7123SM   H2F 9303   2.553   0.607  14.982 -0.0840  0.7150 -1.1803
   7123SM   H2G 9304   2.512   0.778  14.980  0.5363  0.1528  0.9344
   7123SM   C3F 9305   2.345   0.664  14.914 -0.3007 -0.1482 -0.5037
   7123SM   H3F 9306   2.278   0.752  14.927 -0.9622 -0.3201 -2.3084
   7123SM   H3G 9307   2.297   0.567  14.941  1.7669 -0.7330  1.3262
   7123SM   C4F 9308   2.380   0.649  14.762  0.0078 -0.7610 -0.9455
   7123SM   H4F 9309   2.280   0.645  14.713  0.2368  0.4344 -1.5330
   7123SM   H4G 9310   2.429   0.550  14.751  2.0067 -0.1896  1.7961
   7123SM   C5F 9311   2.463   0.760  14.699  0.2499  0.2561  0.2653
   7123SM   H5F 9312   2.567   0.769  14.737  0.9616  0.0044 -1.5172
   7123SM   H5G 9313   2.418   0.851  14.746  0.6583  1.1435 -0.9963
   7123SM   C6F 9314   2.457   0.756  14.540  0.0742 -1.0491 -0.2491
   7123SM   H6F 9315   2.452   0.650  14.505 -1.1247 -1.0766 -0.0472
   7123SM   H6G 9316   2.550   0.798  14.497 -0.2109  1.6591  1.5202
   7123SM   C7F 9317   2.342   0.839  14.496  0.3729  0.0263 -0.2749
   7123SM   H7F 9318   2.373   0.943  14.517 -0.8635  0.4967 -0.6843
   7123SM   H7G 9319   2.250   0.823  14.556  0.5921 -0.9854 -0.1881
   7123SM   C8F 9320   2.313   0.842  14.347 -0.1050 -0.1909 -0.1256
   7123SM   H8F 9321   2.202   0.849  14.337 -0.1752  1.5473  1.3578
   7123SM   H8G 9322   2.338   0.744  14.300  0.7997 -0.3453  0.6575
   7123SM   C9F 9323   2.400   0.933  14.259 -0.9027  0.5520 -0.0520
   7123SM   H9F 9324   2.501   0.887  14.251 -1.0939 -0.2223  1.6676
   7123SM   H9G 9325   2.412   1.028  14.316  1.5224  0.1223  0.2710
   7123SM  C10F 9326   2.353   0.952  14.116  0.7271  0.1603 -0.4118
   7123SM  H10F 9327   2.428   1.020  14.069  2.0478 -0.6500  0.4769
   7123SM  H10G 9328   2.255   1.005  14.113  0.5110 -0.0120 -5.2435
   7123SM  C11F 9329   2.332   0.828  14.030 -0.1564 -0.1944  0.0404
   7123SM  H11F 9330   2.270   0.754  14.085  0.2313 -0.8160 -0.3524
   7123SM  H11G 9331   2.436   0.791  14.023 -0.4117 -1.1189  0.8810
   7123SM  C12F 9332   2.264   0.859  13.898  0.2035 -0.7911  0.0535
   7123SM  H12F 9333   2.322   0.935  13.842 -2.9800  0.2915 -2.0711
   7123SM  H12G 9334   2.166   0.903  13.926  1.5498  0.6727  2.8872
   7123SM  C13F 9335   2.273   0.748  13.795 -0.2991 -0.0030 -0.0561
   7123SM  H13F 9336   2.227   0.658  13.840  2.8359 -1.8887 -0.3332
   7123SM  H13G 9337   2.382   0.735  13.778  0.0406  0.9947  1.1727
   7123SM  C14F 9338   2.188   0.787  13.668 -0.3279 -0.0475 -0.1304
   7123SM  H14F 9339   2.086   0.797  13.712 -0.4536  0.2371 -0.4844
   7123SM  H14G 9340   2.200   0.699  13.601  1.2189  2.4894 -3.4782
   7123SM  C15F 9341   2.245   0.914  13.587  0.0255 -0.2434  0.5796
   7123SM  H15F 9342   2.354   0.903  13.572 -0.0064  0.8778 -0.6344
   7123SM  H15G 9343   2.241   1.006  13.650 -0.1995  0.1949 -0.0631
   7123SM  C16F 9344   2.179   0.932  13.454 -0.1531 -0.1601  0.0011
   7123SM  H16F 9345   2.227   1.020  13.407  0.4884  0.7754  2.2812
   7123SM  H16G 9346   2.073   0.962  13.473 -0.0147  0.2774  0.0953
   7123SM  C17F 9347   2.179   0.825  13.354  0.1383  0.0320 -0.1652
   7123SM  H17F 9348   2.118   0.743  13.398 -0.9155  1.0445  0.3253
   7123SM  H17G 9349   2.285   0.791  13.351  0.1453  0.0325  0.0406
   7123SM  C18F 9350   2.124   0.851  13.213  0.3960 -0.4567 -0.1566
   7123SM  H18F 9351   2.170   0.941  13.168  0.1067  0.5656  1.5174
   7123SM  H18G 9352   2.015   0.871  13.216  0.5916  0.7985 -0.7998
   7123SM  C19F 9353   2.154   0.726  13.118  0.5560  0.4370 -0.1210
   7123SM  H19F 9354   2.147   0.634  13.180 -0.3394 -1.1064 -2.3756
   7123SM  H19G 9355   2.263   0.729  13.100  0.3752  2.0335 -1.1639
   7123SM  C20F 9356   2.074   0.723  12.983 -0.3273  0.6667 -0.1054
   7123SM  H20F 9357   1.966   0.707  13.005 -0.8821 -0.6120 -3.2405
   7123SM  H20G 9358   2.110   0.632  12.931  3.0662  2.0306 -0.4142
   7123SM  C21F 9359   2.090   0.843  12.891 -0.6445 -0.0759 -0.3894
   7123SM  H21F 9360   2.197   0.859  12.868 -0.4601 -0.4322  0.1959
   7123SM  H21G 9361   2.063   0.931  12.952  2.8832  1.4097 -0.7268
   7123SM  C22F 9362   2.009   0.827  12.762  0.6562  0.1570 -0.4946
   7123SM  H22F 9363   1.914   0.776  12.789  1.0687 -0.1588  0.3786
   7123SM  H22G 9364   2.051   0.744  12.702 -0.6729 -0.3520 -0.7597
   7123SM  C23F 9365   1.987   0.959  12.684 -1.0207 -0.4390  0.3752
   7123SM  H23F 9366   1.939   0.933  12.587 -0.9410  3.1136 -0.7473
   7123SM  H23G 9367   2.084   1.007  12.659 -0.3911 -2.7010 -2.1032
   7123SM  H23H 9368   1.923   1.022  12.749  0.8312  2.0679 -0.0708
   7223SM     N 9369   5.165   3.899  16.568  0.2912 -0.2453 -0.0654
   7223SM   C15 9370   5.272   3.941  16.669  0.5914 -0.2371  0.3854
   7223SM  H15A 9371   5.335   3.853  16.674 -0.4424 -0.9072  3.2584
   7223SM  H15B 9372   5.236   3.961  16.768 -1.0761  1.2487 -0.4721
   7223SM  H15C 9373   5.322   4.032  16.640  1.6701 -0.8604  0.2187
   7223SM   C14 9374   5.077   3.785  16.628  0.2558  0.0964 -0.3478
   7223SM  H14A 9375   5.139   3.703  16.663  0.8894  0.4761 -0.5637
   7223SM  H14B 9376   5.000   3.741  16.567 -1.4968 -1.0927  2.5374
   7223SM  H14C 9377   5.019   3.809  16.715  1.7642 -0.4390  0.8545
   7223SM   C13 9378   5.078   4.019  16.552  0.4998  0.2611 -0.0619
   7223SM  H13A 9379   5.141   4.090  16.500  0.8776  0.2205  0.3360
   7223SM  H13B 9380   5.043   4.049  16.649  0.3331 -0.2656  0.0422
   7223SM  H13C 9381   4.987   4.001  16.497 -0.8557  0.5698  2.0051
   7223SM   C12 9382   5.231   3.860  16.437  0.3748 -0.3340 -0.4164
   7223SM  H12A 9383   5.292   3.775  16.465 -0.3124 -0.6942  0.0201
   7223SM  H12B 9384   5.305   3.934  16.410  0.0372  0.6621  1.2217
   7223SM   C11 9385   5.147   3.824  16.314 -0.0504  0.4123  0.5330
   7223SM  H11A 9386   5.216   3.802  16.230  1.2187 -2.0431  2.1132
   7223SM  H11B 9387   5.084   3.912  16.288 -2.4305 -1.0086  1.1302
   7223SM     P 9388   4.914   3.701  16.305  0.1397 -0.0400  0.3532
   7223SM   O13 9389   4.864   3.570  16.353  0.8779 -1.0141 -0.3796
   7223SM   O14 9390   4.849   3.827  16.357  0.4333  0.2714  0.1464
   7223SM   O11 9391   4.902   3.708  16.143  0.1954 -0.3133  0.2728
   7223SM   O12 9392   5.070   3.700  16.330 -0.2288 -0.0585  0.7023
   7223SM   C1S 9393   4.979   3.618  16.060  0.2057  0.4283  0.4118
   7223SM   H1S 9394   4.959   3.512  16.085 -0.1251  0.7067  1.4105
   7223SM   H1T 9395   5.088   3.632  16.077  0.2354  1.2795 -0.3812
   7223SM    NF 9396   4.995   3.532  15.828  0.2571  0.3271 -0.2060
   7223SM   HNF 9397   5.074   3.551  15.770 -0.3009  2.2784 -0.3806
   7223SM   C2S 9398   4.961   3.644  15.911 -0.0324  0.1745  0.4540
   7223SM   H2S 9399   4.857   3.680  15.895 -0.4433 -1.1932 -0.0178
   7223SM   C3S 9400   5.040   3.778  15.872 -0.1829  0.8013  0.2117
   7223SM   H3S 9401   5.150   3.763  15.860 -0.3632 -0.5403  0.0125
   7223SM    O3 9402   5.036   3.878  15.981  0.9314  0.1175  0.3555
   7223SM   HO3 9403   4.980   3.836  16.047 -1.6253  0.6450 -1.3015
   7223SM   C4S 9404   5.001   3.833  15.740 -0.3266 -0.0626 -0.1736
   7223SM   H4S 9405   5.049   3.775  15.659  0.1372  0.3182 -0.1786
   7223SM   C5S 9406   4.919   3.938  15.707  0.0414  0.4512  0.6760
   7223SM   H5S 9407   4.878   4.002  15.786 -1.6589  2.1223 -1.4498
   7223SM   C6S 9408   4.881   3.980  15.568 -0.0593 -0.3150 -0.5424
   7223SM   H6S 9409   4.899   4.088  15.548  1.5479 -0.2294  1.0585
   7223SM   H6T 9410   4.771   3.975  15.557 -0.4749 -0.1313  2.5278
   7223SM   C7S 9411   4.940   3.895  15.462 -0.6192  0.0823 -0.4170
   7223SM   H7S 9412   4.893   3.794  15.465 -1.8469  0.6248 -0.6184
   7223SM   H7T 9413   5.050   3.886  15.472 -0.6169  0.2105 -0.3353
   7223SM   C8S 9414   4.900   3.966  15.332 -0.1194 -0.1269 -0.9639
   7223SM   H8S 9415   4.961   4.057  15.317 -1.0730  1.0469  1.6200
   7223SM   H8T 9416   4.796   4.006  15.333  0.3150  1.0884  0.9600
   7223SM   C9S 9417   4.922   3.895  15.198 -0.1690  1.1113 -0.4532
   7223SM   H9S 9418   4.872   3.796  15.197 -0.9080  1.4785 -0.2669
   7223SM   H9T 9419   5.032   3.890  15.186 -0.0006  0.3237  1.1656
   7223SM  C10S 9420   4.867   3.977  15.075  0.3746 -0.5568 -0.4981
   7223SM  H10S 9421   4.900   4.083  15.074 -1.1026 -0.0577  0.4226
   7223SM  H10T 9422   4.756   3.979  15.086  0.3457 -2.8092  0.0376
   7223SM  C11S 9423   4.894   3.918  14.938 -0.1853 -0.1252 -0.6259
   7223SM  H11S 9424   4.882   3.808  14.941  0.3272 -0.2149 -1.3936
   7223SM  H11T 9425   4.999   3.944  14.911  0.3968 -0.1001  1.4993
   7223SM  C12S 9426   4.806   3.979  14.822 -0.2328  0.6251 -1.0326
   7223SM  H12S 9427   4.841   4.082  14.801 -1.6035  1.3325 -0.0160
   7223SM  H12T 9428   4.699   3.987  14.853 -0.1442  2.0485 -1.0329
   7223SM  C13S 9429   4.815   3.896  14.691 -0.4547 -0.2670 -0.3495
   7223SM  H13S 9430   4.792   3.790  14.715  0.6811 -0.2385  1.0237
   7223SM  H13T 9431   4.920   3.899  14.655 -0.6751  1.4034 -0.9206
   7223SM  C14S 9432   4.723   3.958  14.588  0.1296  0.1123 -0.0924
   7223SM  H14S 9433   4.753   4.065  14.586  0.7478 -0.0365  0.5301
   7223SM  H14T 9434   4.616   3.949  14.617  0.3041  0.9775  0.9034
   7223SM  C15S 9435   4.737   3.878  14.455 -0.1211  0.0428  0.8348
   7223SM  H15S 9436   4.708   3.772  14.472  1.5129 -0.3433  1.3227
   7223SM  H15T 9437   4.843   3.874  14.425 -0.5965  1.7169 -1.2877
   7223SM  C16S 9438   4.660   3.940  14.337 -0.4916 -0.1569  0.4020
   7223SM  H16S 9439   4.694   4.046  14.332  2.2722 -0.9472  0.7174
   7223SM  H16T 9440   4.551   3.933  14.356 -0.2995  0.0822  1.6496
   7223SM  C17S 9441   4.712   3.876  14.201  0.4297 -0.4165 -0.3265
   7223SM  H17S 9442   4.670   3.774  14.194 -0.1000 -0.2170 -0.1530
   7223SM  H17T 9443   4.823   3.874  14.202  0.4767  0.8682  0.4562
   7223SM  C18S 9444   4.675   3.974  14.086 -0.2258 -0.1445  0.2412
   7223SM  H18S 9445   4.726   3.941  13.993 -1.2346  1.6458 -0.9978
   7223SM  H18T 9446   4.711   4.073  14.119  1.1976 -1.3450  2.5818
   7223SM  H18U 9447   4.566   3.981  14.067  0.0692 -1.7687 -2.8290
   7223SM   C1F 9448   4.946   3.404  15.835 -0.8132 -0.0623  0.7492
   7223SM    OF 9449   4.854   3.371  15.905 -0.2642 -0.9710  0.3962
   7223SM   C2F 9450   5.012   3.295  15.754  0.1574 -0.0213 -0.2934
   7223SM   H2F 9451   5.029   3.205  15.817  1.7462  0.1041 -0.5128
   7223SM   H2G 9452   5.115   3.328  15.728  1.1518 -3.5584 -1.3611
   7223SM   C3F 9453   4.929   3.266  15.634 -0.1659  1.2044  0.3293
   7223SM   H3F 9454   4.823   3.238  15.655 -0.6890  1.9553 -1.1350
   7223SM   H3G 9455   4.970   3.176  15.584 -0.8505  1.5862 -0.9853
   7223SM   C4F 9456   4.927   3.384  15.526 -0.1172 -0.0744  0.2229
   7223SM   H4F 9457   5.031   3.408  15.498 -0.2751 -1.0981 -1.3858
   7223SM   H4G 9458   4.873   3.472  15.568 -0.8721 -0.6920  0.5819
   7223SM   C5F 9459   4.854   3.341  15.389 -0.5407  0.6366 -0.0170
   7223SM   H5F 9460   4.835   3.432  15.328  0.1477  0.7121 -0.1228
   7223SM   H5G 9461   4.755   3.296  15.413  0.0314 -0.9118 -0.4792
   7223SM   C6F 9462   4.937   3.240  15.308 -0.1200  0.2660 -0.3438
   7223SM   H6F 9463   4.965   3.154  15.373  0.9470 -0.6198 -1.9113
   7223SM   H6G 9464   5.027   3.291  15.267  0.8489 -1.3976 -0.3634
   7223SM   C7F 9465   4.853   3.180  15.193 -0.2844  0.2199 -0.0803
   7223SM   H7F 9466   4.756   3.141  15.230  0.5304 -0.5132  1.3265
   7223SM   H7G 9467   4.905   3.091  15.152 -0.5450  0.9127 -2.0261
   7223SM   C8F 9468   4.832   3.273  15.068  0.0841  0.1685 -0.2251
   7223SM   H8F 9469   4.926   3.294  15.013  0.0809  1.6009  0.2809
   7223SM   H8G 9470   4.793   3.373  15.095  1.2610 -0.0573  2.7267
   7223SM   C9F 9471   4.721   3.220  14.972  0.3468 -0.6733  0.3186
   7223SM   H9F 9472   4.622   3.250  15.013  1.0070  2.3091 -0.0043
   7223SM   H9G 9473   4.717   3.110  14.981 -0.0195 -0.6246  0.8224
   7223SM  C10F 9474   4.732   3.254  14.824 -0.0587 -0.1528  0.1665
   7223SM  H10F 9475   4.695   3.171  14.759 -0.5076  0.4416 -0.3471
   7223SM  H10G 9476   4.840   3.264  14.799  0.1361 -3.3961 -0.7757
   7223SM  C11F 9477   4.666   3.388  14.796 -0.0317 -0.1858  0.1533
   7223SM  H11F 9478   4.720   3.470  14.848  1.2609 -1.4218  0.8033
   7223SM  H11G 9479   4.570   3.373  14.850  0.1446  2.4869  1.3773
   7223SM  C12F 9480   4.647   3.425  14.654  0.3558 -0.3112  0.3178
   7223SM  H12F 9481   4.742   3.449  14.601 -0.6276 -1.6705 -2.2065
   7223SM  H12G 9482   4.587   3.519  14.651  1.4817  0.4062 -1.4920
   7223SM  C13F 9483   4.578   3.316  14.558 -0.3094 -0.3620  0.2969
   7223SM  H13F 9484   4.473   3.289  14.585 -0.7246 -1.7292 -2.3180
   7223SM  H13G 9485   4.633   3.222  14.579 -0.1598 -0.2721  0.3088
   7223SM  C14F 9486   4.571   3.339  14.405 -0.9894  0.0677  0.2141
   7223SM  H14F 9487   4.514   3.254  14.363 -2.7002  1.1003  0.3361
   7223SM  H14G 9488   4.679   3.346  14.379 -1.3906  4.0698 -1.1095
   7223SM  C15F 9489   4.509   3.474  14.364  0.5140  0.2769 -0.6188
   7223SM  H15F 9490   4.547   3.491  14.261  0.6330 -1.5052 -0.8970
   7223SM  H15G 9491   4.554   3.562  14.415 -2.3856  0.8738  1.1734
   7223SM  C16F 9492   4.349   3.482  14.361  0.4939  0.1411 -0.2632
   7223SM  H16F 9493   4.327   3.474  14.469  1.3222  0.8009 -0.0381
   7223SM  H16G 9494   4.298   3.393  14.317 -0.1948  1.5568 -2.5028
   7223SM  C17F 9495   4.297   3.623  14.314  0.3170  0.4457  0.6368
   7223SM  H17F 9496   4.359   3.693  14.374 -0.4616  2.1185 -0.4254
   7223SM  H17G 9497   4.192   3.645  14.343  0.3486  2.0746 -0.3504
   7223SM  C18F 9498   4.329   3.665  14.170  0.1724 -0.3011  0.2797
   7223SM  H18F 9499   4.440   3.663  14.160  0.0982  1.7840 -1.9140
   7223SM  H18G 9500   4.285   3.765  14.149 -1.0672 -0.6597  1.0513
   7223SM  C19F 9501   4.265   3.569  14.067 -0.2275 -0.5319 -0.3424
   7223SM  H19F 9502   4.160   3.543  14.091  0.0281 -1.2792 -0.0239
   7223SM  H19G 9503   4.320   3.473  14.080 -0.1487 -0.2441  1.7602
   7223SM  C20F 9504   4.278   3.625  13.923 -0.6496 -0.4724 -0.6070
   7223SM  H20F 9505   4.385   3.643  13.899 -0.4995 -1.8501 -1.0764
   7223SM  H20G 9506   4.230   3.724  13.907  1.9342  1.2328  1.3561
   7223SM  C21F 9507   4.219   3.529  13.820  0.9024 -0.0757  0.0950
   7223SM  H21F 9508   4.220   3.592  13.729 -0.1634 -0.9919 -0.5801
   7223SM  H21G 9509   4.112   3.504  13.841  0.7348  0.4405 -0.1295
   7223SM  C22F 9510   4.290   3.390  13.809  0.1112 -0.2955  0.4130
   7223SM  H22F 9511   4.317   3.354  13.911  0.4975  1.8433  1.1244
   7223SM  H22G 9512   4.384   3.401  13.750  0.8552 -1.6353  1.3085
   7223SM  C23F 9513   4.205   3.292  13.727  0.9414 -0.0475 -0.4255
   7223SM  H23F 9514   4.189   3.310  13.619  0.3118 -2.4356 -0.7958
   7223SM  H23G 9515   4.101   3.279  13.764  0.0784  0.7689 -2.4336
   7223SM  H23H 9516   4.248   3.190  13.736 -1.8418 -1.1991  1.2164
   7323SM     N 9517   3.950   1.480  16.390  0.3734 -0.0334 -1.0972
   7323SM   C15 9518   3.856   1.495  16.271  0.3379  0.0802 -0.2462
   7323SM  H15A 9519   3.795   1.406  16.276  3.9609 -2.6058  0.3449
   7323SM  H15B 9520   3.914   1.505  16.180  2.7720 -3.0998  0.7845
   7323SM  H15C 9521   3.798   1.585  16.285  0.6624 -0.0674  2.4744
   7323SM   C14 9522   4.043   1.597  16.398  0.1144 -0.9228  0.2636
   7323SM  H14A 9523   4.123   1.576  16.468  0.0071 -0.1503  0.6297
   7323SM  H14B 9524   3.998   1.685  16.442  0.3946 -1.0187  0.7578
   7323SM  H14C 9525   4.097   1.624  16.309 -1.0369  3.6724  0.7055
   7323SM   C13 9526   3.865   1.497  16.513  0.6602 -0.7538 -0.0411
   7323SM  H13A 9527   3.924   1.481  16.602 -2.9744 -1.7818  2.3786
   7323SM  H13B 9528   3.781   1.430  16.509  0.3121 -0.2825 -2.7853
   7323SM  H13C 9529   3.821   1.595  16.506  1.5080 -0.3658 -0.1146
   7323SM   C12 9530   4.020   1.347  16.381 -0.2732 -1.2541  0.4560
   7323SM  H12A 9531   3.946   1.268  16.387 -0.9950 -0.8275 -1.9485
   7323SM  H12B 9532   4.086   1.338  16.466  0.8964  0.9097 -0.1470
   7323SM   C11 9533   4.099   1.326  16.253  0.4962  0.6122  0.2765
   7323SM  H11A 9534   4.157   1.232  16.266 -2.8568 -1.3447  2.5953
   7323SM  H11B 9535   4.169   1.412  16.244  0.1966  0.7383 -1.1212
   7323SM     P 9536   3.956   1.194  16.068  0.1942 -0.4866  0.0684
   7323SM   O13 9537   4.073   1.117  16.024  0.3687 -0.1029  0.5892
   7323SM   O14 9538   3.854   1.139  16.155  0.1527 -0.0183  0.2831
   7323SM   O11 9539   3.890   1.265  15.940  0.2223 -0.6201 -0.5291
   7323SM   O12 9540   4.009   1.327  16.136 -0.7067 -0.7314 -0.0093
   7323SM   C1S 9541   3.751   1.280  15.919 -0.0945 -0.1675 -0.2652
   7323SM   H1S 9542   3.701   1.345  15.994  0.1257 -1.8681  1.4403
   7323SM   H1T 9543   3.697   1.183  15.924 -1.3456  0.5413  0.4656
   7323SM    NF 9544   3.581   1.353  15.762  0.3773 -0.1930  0.3510
   7323SM   HNF 9545   3.525   1.306  15.695 -1.7136 -1.1429  2.5849
   7323SM   C2S 9546   3.723   1.332  15.767 -0.0895 -0.3461  0.2294
   7323SM   H2S 9547   3.772   1.432  15.763 -1.3053  0.2606  0.3029
   7323SM   C3S 9548   3.795   1.237  15.662 -0.5618  0.4073  0.3692
   7323SM   H3S 9549   3.729   1.148  15.653 -0.9003  0.8248 -2.2638
   7323SM    O3 9550   3.922   1.183  15.700  0.0324 -0.0111 -0.1940
   7323SM   HO3 9551   3.933   1.219  15.789  2.6350 -2.3327  0.5424
   7323SM   C4S 9552   3.791   1.291  15.521 -0.0160 -1.0326 -0.6670
   7323SM   H4S 9553   3.714   1.239  15.462 -0.3584 -1.9620  0.5651
   7323SM   C5S 9554   3.870   1.382  15.464  0.2169  0.6372 -0.3030
   7323SM   H5S 9555   3.963   1.404  15.519  0.3005  0.8396 -0.5256
   7323SM   C6S 9556   3.862   1.430  15.315 -0.1970  0.7117 -0.1719
   7323SM   H6S 9557   3.968   1.436  15.281 -0.3933 -0.5089 -1.0739
   7323SM   H6T 9558   3.829   1.536  15.323 -0.9805  0.4285  0.4016
   7323SM   C7S 9559   3.775   1.346  15.223  0.0538  0.1104 -0.2691
   7323SM   H7S 9560   3.676   1.327  15.271  0.6455  0.0014  0.9367
   7323SM   H7T 9561   3.820   1.244  15.225  0.3884  0.2522 -0.4965
   7323SM   C8S 9562   3.780   1.405  15.072 -0.7759 -0.1047  0.0706
   7323SM   H8S 9563   3.887   1.427  15.055 -0.7806  1.4345  1.7104
   7323SM   H8T 9564   3.729   1.504  15.078  1.4417  1.1999 -1.5015
   7323SM   C9S 9565   3.716   1.309  14.978 -0.1289  0.5800  0.1251
   7323SM   H9S 9566   3.629   1.277  15.039 -2.1050  2.3500 -1.5887
   7323SM   H9T 9567   3.789   1.226  14.969  0.1807  0.9994 -1.9220
   7323SM  C10S 9568   3.680   1.362  14.844 -0.2451 -0.4104  0.3133
   7323SM  H10S 9569   3.602   1.441  14.857  0.5316  0.4072  0.1548
   7323SM  H10T 9570   3.645   1.286  14.772 -0.0206  1.3447 -1.7562
   7323SM  C11S 9571   3.793   1.452  14.781 -0.1031 -0.5329  0.7466
   7323SM  H11S 9572   3.893   1.416  14.813 -0.1499 -1.2113  0.1703
   7323SM  H11T 9573   3.783   1.554  14.822  1.9109 -0.8371  2.1343
   7323SM  C12S 9574   3.778   1.459  14.628  0.8904  0.3686 -0.2167
   7323SM  H12S 9575   3.815   1.560  14.601 -0.7433  0.4531 -2.4606
   7323SM  H12T 9576   3.669   1.450  14.609  0.7021 -0.3718  1.1247
   7323SM  C13S 9577   3.856   1.353  14.553 -0.1565 -0.0944 -0.3891
   7323SM  H13S 9578   3.835   1.258  14.607 -1.4166  0.8455  0.8657
   7323SM  H13T 9579   3.964   1.370  14.570 -0.2698  1.3241 -0.9777
   7323SM  C14S 9580   3.819   1.340  14.404 -0.0589  0.5232  0.1926
   7323SM  H14S 9581   3.831   1.441  14.359  1.1561  0.0809 -0.5285
   7323SM  H14T 9582   3.710   1.318  14.404  0.1514 -0.6310  1.6104
   7323SM  C15S 9583   3.897   1.230  14.331 -0.7569  0.2973  0.1811
   7323SM  H15S 9584   3.910   1.149  14.407  0.4379  1.9455  1.8166
   7323SM  H15T 9585   3.999   1.265  14.303 -1.3238  3.0405  1.2107
   7323SM  C16S 9586   3.832   1.163  14.205 -0.0549 -0.3811 -0.2466
   7323SM  H16S 9587   3.734   1.118  14.231 -0.8511  1.0247 -0.7069
   7323SM  H16T 9588   3.915   1.093  14.180  1.5584  2.2996 -3.2398
   7323SM  C17S 9589   3.806   1.260  14.083  0.5445  0.0079  0.2476
   7323SM  H17S 9590   3.794   1.200  13.990  2.0255 -2.0314  1.2920
   7323SM  H17T 9591   3.888   1.333  14.067  0.5172  0.3464  1.5254
   7323SM  C18S 9592   3.682   1.348  14.089  0.6431 -0.2855 -0.0133
   7323SM  H18S 9593   3.660   1.381  13.986  0.6788  0.0601  0.0885
   7323SM  H18T 9594   3.688   1.444  14.145 -0.6155  1.0666 -2.0748
   7323SM  H18U 9595   3.606   1.284  14.138  2.3420 -1.1072  1.7080
   7323SM   C1F 9596   3.510   1.430  15.843 -0.4290 -0.1020  0.4614
   7323SM    OF 9597   3.568   1.504  15.927 -0.0075  0.1490  0.6779
   7323SM   C2F 9598   3.363   1.432  15.823 -0.3494  0.0182 -0.1907
   7323SM   H2F 9599   3.322   1.439  15.926  0.5630 -1.1736  0.2792
   7323SM   H2G 9600   3.343   1.331  15.780  1.7435  0.4301 -2.3028
   7323SM   C3F 9601   3.313   1.549  15.732 -0.1558  0.2269 -0.6674
   7323SM   H3F 9602   3.370   1.643  15.750 -2.5231  1.6079  0.0540
   7323SM   H3G 9603   3.206   1.564  15.758  0.6444  0.7746  2.7122
   7323SM   C4F 9604   3.318   1.519  15.582 -0.1816 -0.2607  0.7610
   7323SM   H4F 9605   3.281   1.615  15.540  1.5528  0.0091 -0.2501
   7323SM   H4G 9606   3.243   1.441  15.557 -0.8135 -0.2296  2.4303
   7323SM   C5F 9607   3.457   1.508  15.517  0.5575  0.3588 -0.3259
   7323SM   H5F 9608   3.474   1.399  15.505 -1.4515 -0.0304  0.0148
   7323SM   H5G 9609   3.526   1.554  15.591  1.6719 -0.7240 -0.6573
   7323SM   C6F 9610   3.472   1.584  15.383 -0.2298  0.4497 -0.1582
   7323SM   H6F 9611   3.581   1.575  15.363 -0.0794 -0.6890  1.0374
   7323SM   H6G 9612   3.448   1.691  15.396  1.0708  0.6660  0.5517
   7323SM   C7F 9613   3.397   1.527  15.259 -0.6016  1.0807 -0.7591
   7323SM   H7F 9614   3.291   1.555  15.278  0.0433  4.4511 -1.4831
   7323SM   H7G 9615   3.407   1.418  15.242 -0.3337  0.6845  1.6121
   7323SM   C8F 9616   3.433   1.608  15.135  0.0933 -0.7788 -0.2886
   7323SM   H8F 9617   3.543   1.623  15.134  0.1866 -1.3621 -2.4155
   7323SM   H8G 9618   3.390   1.709  15.153 -2.4854 -2.3302  3.8997
   7323SM   C9F 9619   3.380   1.542  15.009 -0.2987 -0.8705 -0.3853
   7323SM   H9F 9620   3.277   1.517  15.041 -0.0688 -0.0832  1.0551
   7323SM   H9G 9621   3.433   1.445  14.999  1.1615 -0.1455  0.0054
   7323SM  C10F 9622   3.403   1.622  14.880  0.6879  0.8770 -0.9551
   7323SM  H10F 9623   3.514   1.626  14.880  0.7516 -0.1865  0.5531
   7323SM  H10G 9624   3.357   1.723  14.881 -2.7532 -0.5136  1.9063
   7323SM  C11F 9625   3.351   1.556  14.760 -0.0345  0.0672 -0.0236
   7323SM  H11F 9626   3.240   1.546  14.758 -0.2337  1.8669  0.1315
   7323SM  H11G 9627   3.394   1.456  14.740  0.1618 -0.2079  1.6425
   7323SM  C12F 9628   3.392   1.637  14.630  0.3253  0.7642  0.0095
   7323SM  H12F 9629   3.491   1.680  14.656  1.9281 -1.0494 -2.6254
   7323SM  H12G 9630   3.324   1.722  14.608 -1.8669 -0.6795  0.7988
   7323SM  C13F 9631   3.390   1.551  14.505  0.4646  0.1981  0.1166
   7323SM  H13F 9632   3.284   1.529  14.480  0.4548  1.5402 -1.1511
   7323SM  H13G 9633   3.444   1.454  14.516  0.0835  0.1810  2.1685
   7323SM  C14F 9634   3.448   1.624  14.388  0.4971  0.5469  0.4622
   7323SM  H14F 9635   3.558   1.633  14.391  0.5133  1.6441 -1.6730
   7323SM  H14G 9636   3.397   1.723  14.389  1.8369  1.2659 -0.1361
   7323SM  C15F 9637   3.428   1.554  14.251 -0.2621  1.0468 -0.8523
   7323SM  H15F 9638   3.323   1.524  14.231 -0.1482  0.6930 -0.9341
   7323SM  H15G 9639   3.490   1.462  14.239 -0.4113  0.5658  1.5995
   7323SM  C16F 9640   3.479   1.646  14.137  0.3558  0.9782  0.0584
   7323SM  H16F 9641   3.588   1.665  14.149  0.4759  0.4690 -0.1880
   7323SM  H16G 9642   3.437   1.749  14.144 -2.0961  0.0875 -0.3134
   7323SM  C17F 9643   3.448   1.595  13.997  0.4058  0.1679  0.6990
   7323SM  H17F 9644   3.453   1.484  14.008  1.1826  0.3664  2.7622
   7323SM  H17G 9645   3.520   1.624  13.917 -0.3124  1.1904  0.4111
   7323SM  C18F 9646   3.307   1.641  13.942 -0.4143 -0.0203 -0.0240
   7323SM  H18F 9647   3.292   1.751  13.944 -0.1657  0.0076  1.2810
   7323SM  H18G 9648   3.235   1.595  14.014  0.6168 -0.6405  0.6324
   7323SM  C19F 9649   3.287   1.597  13.796 -0.1014 -0.8355  0.1173
   7323SM  H19F 9650   3.329   1.499  13.767 -0.4429 -0.2858 -2.4577
   7323SM  H19G 9651   3.336   1.665  13.723 -4.3620 -1.1638 -3.4875
   7323SM  C20F 9652   3.147   1.603  13.754 -0.2303 -0.1956  0.1358
   7323SM  H20F 9653   3.110   1.708  13.763  1.4052  0.7638 -2.8323
   7323SM  H20G 9654   3.092   1.542  13.828  1.1657  0.5030  1.8127
   7323SM  C21F 9655   3.118   1.553  13.609 -0.5293 -0.7786 -0.7826
   7323SM  H21F 9656   3.164   1.456  13.582 -2.3452 -1.6989 -0.6855
   7323SM  H21G 9657   3.154   1.630  13.537 -1.4341  1.1395  0.7068
   7323SM  C22F 9658   2.966   1.543  13.582 -0.7427  0.4916  0.1583
   7323SM  H22F 9659   2.920   1.643  13.596  2.3471  1.8633  1.3058
   7323SM  H22G 9660   2.937   1.475  13.665  1.3150 -0.2822  0.3058
   7323SM  C23F 9661   2.928   1.480  13.446 -0.0999 -0.1532 -0.2265
   7323SM  H23F 9662   2.989   1.388  13.431  0.5359  0.1763  0.3008
   7323SM  H23G 9663   2.958   1.546  13.363 -0.1720 -0.8037 -0.7831
   7323SM  H23H 9664   2.821   1.447  13.449  0.8080 -3.6273  3.0581
   7423SM     N 9665   0.106   4.968  16.079 -0.0736 -0.5648  0.2725
   7423SM   C15 9666   0.013   5.076  16.032  0.1499  1.0192 -0.3523
   7423SM  H15A 9667   0.072   5.154  15.987  0.6543  0.3778 -0.8151
   7423SM  H15B 9668  -0.043   5.119  16.114  1.7755 -1.0446  1.9559
   7423SM  H15C 9669  -0.053   5.038  15.955 -1.1563  0.5279  0.9523
   7423SM   C14 9670   0.205   5.016  16.181 -0.3595 -0.0084 -0.8370
   7423SM  H14A 9671   0.143   5.040  16.266 -1.6530 -2.9726 -0.8262
   7423SM  H14B 9672   0.276   5.093  16.155  2.3251 -2.1295 -0.2099
   7423SM  H14C 9673   0.258   4.932  16.221 -0.2938  0.6197  0.4541
   7423SM   C13 9674   0.029   4.857  16.146  0.4337 -0.4792  0.8141
   7423SM  H13A 9675   0.093   4.772  16.167  0.6862 -0.5273 -0.1015
   7423SM  H13B 9676  -0.050   4.833  16.076  0.6875  0.5926  0.1473
   7423SM  H13C 9677  -0.024   4.898  16.231  0.7482 -0.3971  0.9691
   7423SM   C12 9678   0.180   4.906  15.962 -0.5113 -0.2794  0.6670
   7423SM  H12A 9679   0.245   4.826  15.996 -0.9277 -0.3189  1.3769
   7423SM  H12B 9680   0.235   4.989  15.921 -0.9539 -0.0241  0.5882
   7423SM   C11 9681   0.106   4.860  15.832  0.6908  0.0272  0.4558
   7423SM  H11A 9682   0.023   4.790  15.855 -0.5158  0.8743 -1.1059
   7423SM  H11B 9683   0.179   4.804  15.768 -0.7127  0.6051 -1.7737
   7423SM     P 9684   0.143   5.058  15.678 -0.3659  0.7055 -0.4606
   7423SM   O13 9685   0.079   5.190  15.671  0.6973 -0.3158 -0.0271
   7423SM   O14 9686   0.281   5.059  15.729 -0.4933 -0.8985  0.0841
   7423SM   O11 9687   0.140   5.007  15.530 -0.2970 -0.2170 -0.9432
   7423SM   O12 9688   0.047   4.960  15.756  0.3846 -0.1432 -0.2186
   7423SM   C1S 9689   0.017   4.965  15.482 -0.2686  0.2189  0.4869
   7423SM   H1S 9690  -0.068   5.033  15.506 -0.0481  0.5694  0.2827
   7423SM   H1T 9691  -0.010   4.862  15.515  0.7868 -0.0202  0.6230
   7423SM    NF 9692  -0.122   4.939  15.275 -0.0798 -0.1337  0.3302
   7423SM   HNF 9693  -0.141   4.841  15.263 -0.1205  0.0241 -0.9999
   7423SM   C2S 9694   0.013   4.969  15.322 -0.4652 -1.3684 -0.0371
   7423SM   H2S 9695   0.034   5.075  15.298  0.4134 -0.9369  2.3027
   7423SM   C3S 9696   0.131   4.898  15.271  0.7760  0.2899  0.3514
   7423SM   H3S 9697   0.119   4.793  15.305 -2.2361  0.4514  0.0658
   7423SM    O3 9698   0.254   4.945  15.319 -0.7677  0.5338  0.0613
   7423SM   HO3 9699   0.233   4.986  15.403 -1.3145  0.1093  0.1310
   7423SM   C4S 9700   0.131   4.882  15.123  0.0541  0.4958  1.2355
   7423SM   H4S 9701   0.070   4.795  15.093  0.9589  0.4387 -0.5743
   7423SM   C5S 9702   0.185   4.955  15.022 -0.0399 -0.2606  1.3594
   7423SM   H5S 9703   0.245   5.045  15.044  0.2736 -0.0929 -0.0889
   7423SM   C6S 9704   0.187   4.918  14.873 -0.4262  0.1713  0.5926
   7423SM   H6S 9705   0.293   4.904  14.843 -0.9590 -4.4625  0.0285
   7423SM   H6T 9706   0.164   5.013  14.821  4.0917  0.9823 -0.3826
   7423SM   C7S 9707   0.117   4.792  14.827  0.2713  0.6042  0.3482
   7423SM   H7S 9708   0.009   4.804  14.849  0.2071 -0.9559  0.9981
   7423SM   H7T 9709   0.147   4.702  14.884 -0.2617  0.5925  0.6168
   7423SM   C8S 9710   0.139   4.764  14.678 -0.0289 -0.3255 -0.1310
   7423SM   H8S 9711   0.092   4.668  14.650 -0.3556 -0.3602  0.5052
   7423SM   H8T 9712   0.244   4.758  14.643 -0.3839  0.9674 -1.5272
   7423SM   C9S 9713   0.059   4.863  14.595 -0.5303  0.1835  0.3333
   7423SM   H9S 9714   0.111   4.960  14.606 -1.4415  0.6577  0.4939
   7423SM   H9T 9715  -0.045   4.874  14.632 -1.6679 -1.6468 -2.0023
   7423SM  C10S 9716   0.016   4.831  14.449  0.4882  0.1634 -0.1623
   7423SM  H10S 9717  -0.035   4.926  14.421 -0.4739 -0.3014 -0.0257
   7423SM  H10T 9718  -0.061   4.751  14.440  0.5442  0.2243 -1.4556
   7423SM  C11S 9719   0.132   4.802  14.359  0.1410  0.3348 -0.6112
   7423SM  H11S 9720   0.190   4.712  14.388  0.7743  0.1548 -2.3150
   7423SM  H11T 9721   0.205   4.885  14.370  2.0140 -1.3501  0.2829
   7423SM  C12S 9722   0.094   4.786  14.215 -0.5017  0.7144  0.2923
   7423SM  H12S 9723  -0.010   4.824  14.201 -0.9325 -0.9007 -1.2251
   7423SM  H12T 9724   0.101   4.678  14.192  1.7786  0.7982  0.3913
   7423SM  C13S 9725   0.191   4.846  14.119 -0.1307 -0.3085 -0.3176
   7423SM  H13S 9726   0.270   4.770  14.097 -2.0753 -2.2855 -0.9079
   7423SM  H13T 9727   0.248   4.931  14.162  0.4021 -0.7487 -0.1391
   7423SM  C14S 9728   0.124   4.906  13.993  0.0895 -0.2123  0.9938
   7423SM  H14S 9729   0.062   4.998  13.997 -0.0795 -0.0894 -2.0684
   7423SM  H14T 9730   0.050   4.833  13.954  0.6386  0.1904 -0.9326
   7423SM  C15S 9731   0.235   4.941  13.888 -0.0532  0.1384  0.0277
   7423SM  H15S 9732   0.288   4.850  13.853 -0.1664 -0.2932  0.9556
   7423SM  H15T 9733   0.305   5.014  13.935  1.2310  1.8773 -4.1333
   7423SM  C16S 9734   0.176   5.019  13.772 -0.4978 -0.1537  0.4988
   7423SM  H16S 9735   0.122   5.107  13.812  0.4073  0.2292  0.9022
   7423SM  H16T 9736   0.105   4.958  13.712  1.0586  0.6230 -2.2521
   7423SM  C17S 9737   0.289   5.070  13.676 -0.1576  1.1756  0.0797
   7423SM  H17S 9738   0.338   4.975  13.643 -0.5132  0.7884  0.6520
   7423SM  H17T 9739   0.367   5.122  13.735  0.1036 -1.4208  2.1879
   7423SM  C18S 9740   0.234   5.143  13.556 -0.0638  1.1607  0.4788
   7423SM  H18S 9741   0.152   5.208  13.593 -0.0804  1.8386 -0.6971
   7423SM  H18T 9742   0.180   5.070  13.493 -0.2968 -0.4133  2.3861
   7423SM  H18U 9743   0.314   5.194  13.498  1.3760 -2.1533 -0.6704
   7423SM   C1F 9744  -0.217   5.029  15.280  0.0824 -0.1965  0.1763
   7423SM    OF 9745  -0.202   5.144  15.316  0.4255 -0.4502 -0.0297
   7423SM   C2F 9746  -0.361   4.994  15.248 -0.0937  0.0431 -0.5073
   7423SM   H2F 9747  -0.424   5.084  15.230 -1.7208 -0.9545 -0.0566
   7423SM   H2G 9748  -0.395   4.931  15.333  3.6110 -1.7790 -0.1845
   7423SM   C3F 9749  -0.370   4.891  15.132 -0.2929  0.6742 -0.3546
   7423SM   H3F 9750  -0.476   4.859  15.128 -0.6098  1.8076 -1.6762
   7423SM   H3G 9751  -0.313   4.797  15.150 -0.4254  0.8922  1.3973
   7423SM   C4F 9752  -0.322   4.947  14.990  1.1713  0.2119 -0.5895
   7423SM   H4F 9753  -0.212   4.933  14.987  1.1169 -0.2879 -0.2865
   7423SM   H4G 9754  -0.346   5.055  14.991  0.4898  0.0959  1.8839
   7423SM   C5F 9755  -0.391   4.872  14.879  0.5712 -1.1202 -0.1167
   7423SM   H5F 9756  -0.501   4.891  14.886  0.7618  0.0934 -0.2078
   7423SM   H5G 9757  -0.382   4.761  14.876  0.1282 -1.1433 -0.8461
   7423SM   C6F 9758  -0.362   4.923  14.742 -0.0624  0.3953 -0.5268
   7423SM   H6F 9759  -0.254   4.911  14.720 -0.5100 -2.1546 -1.8195
   7423SM   H6G 9760  -0.397   5.027  14.723 -0.9295  0.2343  0.1038
   7423SM   C7F 9761  -0.444   4.846  14.631  0.0192 -0.5931 -0.0022
   7423SM   H7F 9762  -0.550   4.834  14.662  0.2548  1.5389  1.9278
   7423SM   H7G 9763  -0.410   4.741  14.627 -1.5069 -1.0871 -0.9568
   7423SM   C8F 9764  -0.423   4.908  14.489 -0.3133  0.2843 -0.8724
   7423SM   H8F 9765  -0.314   4.913  14.467  0.2344  1.1058  1.6429
   7423SM   H8G 9766  -0.446   5.016  14.501  2.0870  0.6887  1.1320
   7423SM   C9F 9767  -0.490   4.839  14.370 -0.3068 -0.5330  0.4493
   7423SM   H9F 9768  -0.598   4.834  14.396  0.0097 -1.3883  1.6491
   7423SM   H9G 9769  -0.446   4.740  14.348  1.2575  0.3411 -0.5608
   7423SM  C10F 9770  -0.475   4.926  14.244 -0.4599 -0.4743  0.4028
   7423SM  H10F 9771  -0.381   4.896  14.194 -0.2078 -1.1361  1.2572
   7423SM  H10G 9772  -0.481   5.034  14.271  1.7318  0.1301 -1.3192
   7423SM  C11F 9773  -0.580   4.888  14.137  0.0962  0.2353  0.0834
   7423SM  H11F 9774  -0.676   4.931  14.172  0.2239  0.7089 -0.1294
   7423SM  H11G 9775  -0.588   4.778  14.138 -0.3434  0.2662  0.0424
   7423SM  C12F 9776  -0.540   4.936  13.998  0.1851  0.0360 -0.1709
   7423SM  H12F 9777  -0.438   4.900  13.973  0.1650 -0.0448 -0.1348
   7423SM  H12G 9778  -0.541   5.047  13.990 -0.7806 -0.0286 -1.1937
   7423SM  C13F 9779  -0.627   4.875  13.884  0.1417  0.2630  0.8076
   7423SM  H13F 9780  -0.731   4.906  13.907  0.2086 -0.6129  2.4315
   7423SM  H13G 9781  -0.630   4.765  13.898 -0.0486  0.6335  4.8896
   7423SM  C14F 9782  -0.565   4.893  13.742 -0.4455  0.1739 -0.6122
   7423SM  H14F 9783  -0.468   4.844  13.720 -0.5033 -0.3988  0.3378
   7423SM  H14G 9784  -0.536   5.000  13.743  1.4834 -0.2774  1.9944
   7423SM  C15F 9785  -0.654   4.863  13.619 -0.2707 -0.3308 -0.3437
   7423SM  H15F 9786  -0.622   4.910  13.523 -2.2770  0.6507 -0.5854
   7423SM  H15G 9787  -0.760   4.893  13.632  0.0136  1.4896 -1.8191
   7423SM  C16F 9788  -0.654   4.713  13.585 -0.0620 -0.1605  1.0389
   7423SM  H16F 9789  -0.683   4.657  13.677  0.0562  1.4492  2.0993
   7423SM  H16G 9790  -0.553   4.689  13.547 -0.3347 -0.1435  0.2846
   7423SM  C17F 9791  -0.750   4.665  13.475 -0.0757  0.2652  0.1854
   7423SM  H17F 9792  -0.738   4.554  13.481  1.3470  0.4159  0.6647
   7423SM  H17G 9793  -0.707   4.684  13.373  0.0491 -2.0332 -0.2498
   7423SM  C18F 9794  -0.893   4.700  13.490  0.1596 -0.2885 -0.0123
   7423SM  H18F 9795  -0.913   4.809  13.486 -0.8626 -0.4787 -0.3732
   7423SM  H18G 9796  -0.933   4.651  13.581  0.5043 -1.3890 -0.4310
   7423SM  C19F 9797  -0.978   4.639  13.372 -0.2465 -0.2227 -0.3191
   7423SM  H19F 9798  -0.957   4.530  13.372 -0.1724 -0.2270  1.1961
   7423SM  H19G 9799  -0.944   4.678  13.273  2.3807 -1.1878  0.1139
   7423SM  C20F 9800  -1.128   4.654  13.383  0.4635  0.4962  0.1918
   7423SM  H20F 9801  -1.186   4.621  13.294  0.9606  0.9196 -0.2908
   7423SM  H20G 9802  -1.146   4.764  13.385  0.3575  0.5748 -2.4884
   7423SM  C21F 9803  -1.197   4.583  13.504 -0.2115 -0.0259  0.0476
   7423SM  H21F 9804  -1.300   4.623  13.513 -0.4975 -1.1170  2.3590
   7423SM  H21G 9805  -1.142   4.612  13.596 -2.1959  0.3833  1.1425
   7423SM  C22F 9806  -1.205   4.432  13.497  0.0705  0.3716  0.2659
   7423SM  H22F 9807  -1.101   4.395  13.485  0.8924  2.0197  1.8868
   7423SM  H22G 9808  -1.263   4.394  13.409  1.8075  0.0229 -0.7839
   7423SM  C23F 9809  -1.256   4.360  13.619 -0.1929 -0.1474  0.2156
   7423SM  H23F 9810  -1.211   4.259  13.630  0.2995 -0.0633 -0.9265
   7423SM  H23G 9811  -1.367   4.354  13.615 -0.3298  2.1987 -0.7934
   7423SM  H23H 9812  -1.218   4.415  13.708  1.3966  1.2051 -1.2267
   7523SM     N 9813   4.264   0.048  15.971  0.1425 -0.3098 -0.5777
   7523SM   C15 9814   4.345   0.165  16.001 -0.2494  0.0574 -0.9184
   7523SM  H15A 9815   4.303   0.207  16.091 -0.3738 -1.0401 -0.4425
   7523SM  H15B 9816   4.335   0.237  15.921 -2.1736  1.7662  0.7405
   7523SM  H15C 9817   4.447   0.136  16.018 -0.1359  1.4293  0.9950
   7523SM   C14 9818   4.255  -0.043  16.091 -0.1694 -0.2237  0.1965
   7523SM  H14A 9819   4.353  -0.079  16.120 -0.6535 -0.9869  0.9099
   7523SM  H14B 9820   4.192  -0.126  16.064  2.1906 -1.0367 -3.5335
   7523SM  H14C 9821   4.206   0.014  16.168 -2.0775 -0.1412 -1.0181
   7523SM   C13 9822   4.131   0.100  15.937  0.3843 -0.0485 -0.1409
   7523SM  H13A 9823   4.052   0.027  15.933 -0.0618  0.4444 -0.5194
   7523SM  H13B 9824   4.133   0.156  15.845 -0.6011  0.8486  0.3583
   7523SM  H13C 9825   4.102   0.176  16.009 -0.3461  0.6372 -1.1237
   7523SM   C12 9826   4.316  -0.023  15.849 -0.8252  0.5967  0.2505
   7523SM  H12A 9827   4.328   0.047  15.767  0.7828  0.0485 -0.0217
   7523SM  H12B 9828   4.253  -0.102  15.810 -0.0591  0.5843 -1.0280
   7523SM   C11 9829   4.459  -0.093  15.872  0.5810  0.4333 -0.5474
   7523SM  H11A 9830   4.485  -0.131  15.771 -0.3092  0.6413 -0.8585
   7523SM  H11B 9831   4.434  -0.166  15.951 -1.2986  1.0791 -0.4891
   7523SM     P 9832   4.658   0.062  15.821  0.0669 -0.2343 -0.2410
   7523SM   O13 9833   4.680   0.201  15.865  0.1565  0.4048  0.0472
   7523SM   O14 9834   4.780  -0.030  15.815  0.0859  0.0491 -0.2527
   7523SM   O11 9835   4.584   0.065  15.686 -0.0107 -0.2341 -0.2095
   7523SM   O12 9836   4.556  -0.001  15.917  0.2591 -0.1053 -0.4332
   7523SM   C1S 9837   4.635   0.135  15.573  0.0076 -0.8003  0.8818
   7523SM   H1S 9838   4.736   0.178  15.588 -0.4580  0.6619  0.1067
   7523SM   H1T 9839   4.559   0.213  15.548 -0.7108 -1.2052  1.7319
   7523SM    NF 9840   4.710   0.143  15.333  0.8297 -0.0289 -0.0299
   7523SM   HNF 9841   4.663   0.165  15.247  2.5439 -0.4145 -1.1196
   7523SM   C2S 9842   4.649   0.057  15.435 -0.2323  0.5932 -0.6470
   7523SM   H2S 9843   4.720  -0.022  15.469  0.7959  1.9593  0.4823
   7523SM   C3S 9844   4.518  -0.014  15.398 -0.1896  0.5419 -0.1912
   7523SM   H3S 9845   4.465   0.067  15.344 -0.2136  0.0043 -0.9963
   7523SM    O3 9846   4.427  -0.053  15.500 -0.0353  0.7064  0.1763
   7523SM   HO3 9847   4.437   0.013  15.568  0.7084 -1.3814  2.2279
   7523SM   C4S 9848   4.545  -0.125  15.295 -0.7147 -0.0275 -0.6043
   7523SM   H4S 9849   4.535  -0.082  15.194 -0.8790  1.9014  0.1824
   7523SM   C5S 9850   4.565  -0.254  15.327  0.0262 -0.2549 -0.0752
   7523SM   H5S 9851   4.555  -0.277  15.434 -0.7116  0.8729  0.1144
   7523SM   C6S 9852   4.573  -0.369  15.225  0.3986  0.1979 -0.6048
   7523SM   H6S 9853   4.500  -0.449  15.252  0.0290  0.7590  0.1385
   7523SM   H6T 9854   4.674  -0.413  15.223  0.0194 -0.7707  0.3146
   7523SM   C7S 9855   4.556  -0.320  15.078 -0.2879  0.1925 -0.3499
   7523SM   H7S 9856   4.635  -0.248  15.049 -0.4801  0.3577 -0.4742
   7523SM   H7T 9857   4.453  -0.280  15.066 -0.8720 -1.3752 -0.8590
   7523SM   C8S 9858   4.580  -0.436  14.983  0.0587 -0.1511 -0.4733
   7523SM   H8S 9859   4.538  -0.527  15.031 -0.1435  0.4004  0.4154
   7523SM   H8T 9860   4.687  -0.457  14.960  0.8079  1.7089  1.1016
   7523SM   C9S 9861   4.503  -0.414  14.844  0.2475 -0.1310 -0.2088
   7523SM   H9S 9862   4.543  -0.328  14.786 -0.1321 -0.7137 -1.3606
   7523SM   H9T 9863   4.401  -0.390  14.880  0.7685  2.1462 -0.1216
   7523SM  C10S 9864   4.502  -0.546  14.761  0.2953 -0.6264  0.6986
   7523SM  H10S 9865   4.469  -0.630  14.825  0.3085 -1.9621 -0.9794
   7523SM  H10T 9866   4.604  -0.569  14.724 -0.6413 -4.1451  0.0046
   7523SM  C11S 9867   4.412  -0.528  14.632  0.6281 -0.1256 -0.0021
   7523SM  H11S 9868   4.315  -0.487  14.669  0.9961  1.8678 -1.1473
   7523SM  H11T 9869   4.387  -0.631  14.599 -0.5308  0.4249 -0.8894
   7523SM  C12S 9870   4.483  -0.458  14.519 -0.0218 -0.2004  0.5067
   7523SM  H12S 9871   4.582  -0.504  14.500 -0.6343 -1.6545  0.6733
   7523SM  H12T 9872   4.494  -0.348  14.529 -0.8929  0.7056 -5.0806
   7523SM  C13S 9873   4.409  -0.481  14.383 -0.2324  0.4649 -0.1872
   7523SM  H13S 9874   4.319  -0.416  14.381  1.0965  2.3853  0.1741
   7523SM  H13T 9875   4.376  -0.587  14.371  1.4873 -0.1558  0.2412
   7523SM  C14S 9876   4.491  -0.443  14.258  0.2912  0.0839  0.0594
   7523SM  H14S 9877   4.571  -0.515  14.231  0.6152 -0.6027  2.5747
   7523SM  H14T 9878   4.542  -0.346  14.276  1.2726 -0.5132  0.5655
   7523SM  C15S 9879   4.402  -0.431  14.141  0.1791  0.1296 -0.0681
   7523SM  H15S 9880   4.317  -0.365  14.170  0.8999  2.1974 -2.3186
   7523SM  H15T 9881   4.356  -0.531  14.121  1.1793 -0.2450 -0.5744
   7523SM  C16S 9882   4.478  -0.378  14.017  0.0791  0.2286 -0.0590
   7523SM  H16S 9883   4.561  -0.451  14.003  1.2776  1.1734  1.8176
   7523SM  H16T 9884   4.508  -0.272  14.030 -1.9318  1.1245 -1.9647
   7523SM  C17S 9885   4.386  -0.378  13.896  0.2366 -0.3789  0.3714
   7523SM  H17S 9886   4.293  -0.322  13.916 -0.6741 -2.1286  1.2627
   7523SM  H17T 9887   4.358  -0.483  13.872  2.2596 -0.3179 -3.0374
   7523SM  C18S 9888   4.457  -0.320  13.774  0.1269  0.6121 -0.2193
   7523SM  H18S 9889   4.394  -0.345  13.686 -2.1328 -0.6974  1.6447
   7523SM  H18T 9890   4.558  -0.363  13.758  0.0774 -0.3187  1.6377
   7523SM  H18U 9891   4.467  -0.210  13.788  2.0570  0.5463 -0.8186
   7523SM   C1F 9892   4.835   0.190  15.334 -0.2395 -0.0170  0.3011
   7523SM    OF 9893   4.913   0.156  15.424 -0.1681  0.1311  0.2805
   7523SM   C2F 9894   4.862   0.289  15.229  0.3300 -0.5113  1.0020
   7523SM   H2F 9895   4.827   0.387  15.266 -0.4477 -1.1284  1.9756
   7523SM   H2G 9896   4.801   0.268  15.139  0.5519  2.0127  0.1851
   7523SM   C3F 9897   5.009   0.289  15.185  0.2331 -0.7130  0.4364
   7523SM   H3F 9898   5.072   0.301  15.275 -0.6278  0.3079  0.9327
   7523SM   H3G 9899   5.033   0.373  15.117  0.5956 -1.3814 -0.2777
   7523SM   C4F 9900   5.061   0.168  15.116  0.4944 -0.0296  0.0413
   7523SM   H4F 9901   4.980   0.092  15.121  0.9057 -0.4401  0.6229
   7523SM   H4G 9902   5.147   0.130  15.175 -0.3151 -1.5900  0.2591
   7523SM   C5F 9903   5.097   0.194  14.966  0.0294  0.4112  0.6053
   7523SM   H5F 9904   5.006   0.244  14.927  1.3519  1.4983 -1.2222
   7523SM   H5G 9905   5.107   0.094  14.919 -1.4548 -0.0950  1.2969
   7523SM   C6F 9906   5.218   0.287  14.942  0.0905  0.1193  0.0352
   7523SM   H6F 9907   5.297   0.239  15.003 -0.9343 -0.1704  1.1768
   7523SM   H6G 9908   5.206   0.375  15.008  1.0768 -0.5278  1.1195
   7523SM   C7F 9909   5.243   0.322  14.797 -0.6492  0.4351  0.7711
   7523SM   H7F 9910   5.327   0.389  14.768 -0.5708  0.0921  0.1926
   7523SM   H7G 9911   5.155   0.375  14.753 -0.5125  0.5942  0.6871
   7523SM   C8F 9912   5.271   0.192  14.719 -0.3981  0.6465  0.4527
   7523SM   H8F 9913   5.180   0.129  14.730  1.5535 -2.2153  1.1607
   7523SM   H8G 9914   5.342   0.126  14.772  1.4393  0.5841 -1.9214
   7523SM   C9F 9915   5.310   0.224  14.576  0.3551 -0.1968  0.1587
   7523SM   H9F 9916   5.332   0.124  14.534  0.8157 -0.1038  0.1701
   7523SM   H9G 9917   5.400   0.289  14.580 -1.1646  2.1589 -1.1771
   7523SM  C10F 9918   5.221   0.316  14.483 -0.8620  0.1280 -0.8173
   7523SM  H10F 9919   5.267   0.321  14.382  0.4144  0.6259 -0.2355
   7523SM  H10G 9920   5.231   0.420  14.521  0.8575  0.3997 -1.9253
   7523SM  C11F 9921   5.075   0.276  14.490  0.3585  0.2404  0.4631
   7523SM  H11F 9922   5.020   0.319  14.577 -0.5625 -1.7366  0.9161
   7523SM  H11G 9923   5.066   0.165  14.493 -1.6258  0.3613 -0.1203
   7523SM  C12F 9924   5.005   0.321  14.359  0.1382  0.0740  0.1636
   7523SM  H12F 9925   5.036   0.253  14.276 -1.0135  1.1102 -1.1570
   7523SM  H12G 9926   5.050   0.419  14.332 -0.2007  0.0489 -0.5062
   7523SM  C13F 9927   4.853   0.318  14.365  0.2029 -0.3396 -0.3785
   7523SM  H13F 9928   4.833   0.388  14.449 -0.8562 -0.0593 -0.8457
   7523SM  H13G 9929   4.829   0.216  14.400  2.0154 -1.1876 -1.4616
   7523SM  C14F 9930   4.773   0.349  14.237  0.2874 -0.4172 -0.0669
   7523SM  H14F 9931   4.671   0.378  14.269 -0.6327 -0.9510 -2.3258
   7523SM  H14G 9932   4.765   0.254  14.180  0.5216 -0.6137  0.2219
   7523SM  C15F 9933   4.821   0.477  14.164 -0.8957  0.4199  0.9390
   7523SM  H15F 9934   4.931   0.471  14.154 -0.9328 -2.2649  1.2317
   7523SM  H15G 9935   4.804   0.567  14.226 -0.8108  1.0119  0.1148
   7523SM  C16F 9936   4.749   0.477  14.030  0.0540 -0.7673 -0.0201
   7523SM  H16F 9937   4.639   0.472  14.035 -0.1018 -0.0540 -2.0394
   7523SM  H16G 9938   4.793   0.401  13.962 -0.0871 -0.8025 -0.0707
   7523SM  C17F 9939   4.757   0.612  13.953  0.2871  1.0089  0.3902
   7523SM  H17F 9940   4.865   0.636  13.941  0.0790  1.9294  0.2925
   7523SM  H17G 9941   4.707   0.682  14.025  0.7518  2.0267 -0.2480
   7523SM  C18F 9942   4.693   0.607  13.816  0.6810 -0.2205  0.4290
   7523SM  H18F 9943   4.583   0.591  13.823  0.7436 -0.5754  0.6231
   7523SM  H18G 9944   4.736   0.523  13.758 -0.9116  0.4562 -1.8813
   7523SM  C19F 9945   4.730   0.746  13.750 -0.5030 -0.0843  0.2081
   7523SM  H19F 9946   4.841   0.750  13.746 -0.5521  1.6349 -0.2797
   7523SM  H19G 9947   4.697   0.829  13.816 -0.7413  1.0404 -1.2858
   7523SM  C20F 9948   4.682   0.773  13.608  0.2205 -0.7474 -0.8065
   7523SM  H20F 9949   4.732   0.707  13.535  1.3369 -0.4914 -0.2934
   7523SM  H20G 9950   4.713   0.873  13.569  0.0776 -1.0319 -1.6679
   7523SM  C21F 9951   4.531   0.768  13.601  0.4674  0.4200 -0.2053
   7523SM  H21F 9952   4.498   0.844  13.674 -0.1495  0.5767 -0.6371
   7523SM  H21G 9953   4.498   0.666  13.629 -0.7075 -0.4580 -4.1677
   7523SM  C22F 9954   4.473   0.817  13.471 -0.1174  0.3376 -0.1243
   7523SM  H22F 9955   4.543   0.901  13.452  0.8175  0.0128  1.7071
   7523SM  H22G 9956   4.371   0.853  13.494 -0.6640 -1.1921 -0.0636
   7523SM  C23F 9957   4.471   0.735  13.344  0.0288 -0.3703 -0.6516
   7523SM  H23F 9958   4.576   0.707  13.318  1.0806  0.5583  2.1336
   7523SM  H23G 9959   4.420   0.785  13.260  0.4218  2.3451  0.6041
   7523SM  H23H 9960   4.419   0.639  13.363  1.3859 -0.8754  0.7652
   7623SM     N 9961   6.021   6.666  16.246  0.5606 -0.1329 -0.3839
   7623SM   C15 9962   5.920   6.561  16.268  0.4964 -0.3196  0.1110
   7623SM  H15A 9963   5.823   6.607  16.261  1.3750  1.5715 -0.5247
   7623SM  H15B 9964   5.944   6.516  16.363  3.6534 -1.6527 -1.1412
   7623SM  H15C 9965   5.925   6.489  16.188 -0.5556  0.4161 -0.6480
   7623SM   C14 9966   6.037   6.749  16.367  0.2759 -0.1088 -0.3642
   7623SM  H14A 9967   5.950   6.813  16.378  0.4356 -0.0049  0.3639
   7623SM  H14B 9968   6.120   6.816  16.352  0.7585 -0.8917 -1.2727
   7623SM  H14C 9969   6.060   6.691  16.455  2.2056  0.9970 -0.0709
   7623SM   C13 9970   6.149   6.593  16.229 -1.0423 -0.0314  0.3427
   7623SM  H13A 9971   6.236   6.649  16.197  0.0640 -0.1565  2.9116
   7623SM  H13B 9972   6.153   6.514  16.155  1.7523  0.9667 -0.7180
   7623SM  H13C 9973   6.176   6.559  16.328  1.6928  1.2284  0.1237
   7623SM   C12 9974   5.995   6.753  16.123 -0.5742  1.0182  0.1542
   7623SM  H12A 9975   6.070   6.830  16.111 -1.0614  1.4013 -0.4698
   7623SM  H12B 9976   5.900   6.801  16.143 -0.5689  0.6604  1.1210
   7623SM   C11 9977   5.967   6.688  15.991 -1.2316  0.1606 -0.6755
   7623SM  H11A 9978   6.038   6.603  15.975  1.8332  2.2345  0.8342
   7623SM  H11B 9979   5.982   6.764  15.912 -1.9221  0.0404 -0.9276
   7623SM     P 9980   5.789   6.505  15.911  0.1290 -0.1149  0.2364
   7623SM   O13 9981   5.863   6.390  15.964 -0.0911 -0.0077 -0.0667
   7623SM   O14 9982   5.641   6.497  15.913  0.1564  0.3053 -0.2303
   7623SM   O11 9983   5.845   6.540  15.764  0.0411  0.1201 -0.4367
   7623SM   O12 9984   5.834   6.644  15.992 -0.5978 -0.4553 -0.2032
   7623SM   C1S 9985   5.761   6.622  15.678 -0.6223  0.0602 -0.0012
   7623SM   H1S 9986   5.758   6.724  15.723 -1.8303 -0.3326  0.8502
   7623SM   H1T 9987   5.659   6.584  15.656 -1.1781  1.4825  0.0147
   7623SM    NF 9988   5.763   6.746  15.468 -0.2604 -0.1040 -0.2714
   7623SM   HNF 9989   5.698   6.705  15.405  0.4450 -0.4238 -0.8141
   7623SM   C2S 9990   5.832   6.640  15.541 -0.1776 -0.7300 -0.6270
   7623SM   H2S 9991   5.935   6.673  15.565 -1.3599  2.4112  0.6631
   7623SM   C3S 9992   5.834   6.503  15.472  0.1699 -0.1220  0.8122
   7623SM   H3S 9993   5.731   6.464  15.463  0.5654 -0.9606 -0.2642
   7623SM    O3 9994   5.916   6.412  15.539  0.7855  0.1437 -0.5674
   7623SM   HO3 9995   5.890   6.426  15.630  2.7864  0.1204  0.0640
   7623SM   C4S 9996   5.879   6.508  15.324  0.6478 -0.0494 -0.2562
   7623SM   H4S 9997   5.985   6.537  15.312  0.6412 -0.3893 -1.1918
   7623SM   C5S 9998   5.794   6.509  15.217 -0.5558  1.1451 -0.1560
   7623SM   H5S 9999   5.686   6.488  15.223  0.2577 -5.5134 -0.8800
   7623SM   C6S10000   5.839   6.533  15.072 -0.5484 -0.9998  0.4437
   7623SM   H6S10001   5.806   6.448  15.009  1.0689 -1.4176  0.1046
   7623SM   H6T10002   5.949   6.528  15.057 -0.6393 -1.8942 -0.0114
   7623SM   C7S10003   5.777   6.664  15.014  0.1639  0.4367  0.0399
   7623SM   H7S10004   5.835   6.744  15.064  1.1219 -0.9592  1.2466
   7623SM   H7T10005   5.671   6.676  15.045 -0.4858 -3.6430  0.0173
   7623SM   C8S10006   5.784   6.668  14.862 -0.2174  0.4059  0.2720
   7623SM   H8S10007   5.759   6.565  14.828  1.6972 -0.1074  0.2927
   7623SM   H8T10008   5.888   6.675  14.822 -0.1027 -1.8631  0.0199
   7623SM   C9S10009   5.688   6.780  14.810  0.2845 -0.2572  0.0695
   7623SM   H9S10010   5.711   6.883  14.844  0.9249 -1.4552  3.6711
   7623SM   H9T10011   5.587   6.747  14.841  0.4435  1.1880  2.2835
   7623SM  C10S10012   5.684   6.784  14.659  0.0561  0.2546 -0.3827
   7623SM  H10S10013   5.593   6.841  14.634 -0.7140 -1.0605 -0.6525
   7623SM  H10T10014   5.676   6.682  14.616  0.2026 -0.8618  2.0495
   7623SM  C11S10015   5.810   6.849  14.612  0.1902 -0.1220  0.2310
   7623SM  H11S10016   5.902   6.793  14.638  0.1104 -1.4889 -2.1310
   7623SM  H11T10017   5.818   6.946  14.665 -0.2962 -0.6570  1.3164
   7623SM  C12S10018   5.806   6.880  14.457  0.1667  0.0773  0.1383
   7623SM  H12S10019   5.860   6.975  14.439 -0.2903  0.3953  0.4394
   7623SM  H12T10020   5.701   6.896  14.424 -0.1417 -1.6613  0.1615
   7623SM  C13S10021   5.869   6.767  14.374 -0.1545  0.1744  0.8584
   7623SM  H13S10022   5.832   6.672  14.419  2.9499 -0.5776  2.1133
   7623SM  H13T10023   5.979   6.757  14.381 -0.2695 -1.8440  0.5356
   7623SM  C14S10024   5.830   6.775  14.221 -0.4152  0.7366  0.7258
   7623SM  H14S10025   5.895   6.852  14.174  0.6045 -0.9757 -0.8766
   7623SM  H14T10026   5.725   6.810  14.211 -0.4882  1.0316  2.3980
   7623SM  C15S10027   5.864   6.647  14.147 -0.6484  0.1273 -0.1114
   7623SM  H15S10028   5.843   6.556  14.205 -0.1201 -0.6339 -1.0787
   7623SM  H15T10029   5.974   6.639  14.134 -0.8833  0.3874 -3.0992
   7623SM  C16S10030   5.812   6.649  14.001  0.2475 -0.4496 -0.1076
   7623SM  H16S10031   5.848   6.726  13.930  0.6919 -1.2622 -0.7896
   7623SM  H16T10032   5.703   6.663  14.019  0.4911 -0.6698  1.6492
   7623SM  C17S10033   5.840   6.516  13.930 -1.0968 -0.0764  0.6687
   7623SM  H17S10034   5.788   6.445  13.999 -0.3408  1.4997  2.9739
   7623SM  H17T10035   5.950   6.502  13.928 -1.1202 -0.1840 -0.3147
   7623SM  C18S10036   5.771   6.520  13.790 -0.2254  0.5248  0.3316
   7623SM  H18S10037   5.795   6.433  13.726  0.0609 -0.6685  1.9769
   7623SM  H18T10038   5.818   6.605  13.736 -0.0960 -1.0686 -2.1759
   7623SM  H18U10039   5.660   6.523  13.790 -0.2470 -0.0949  0.8054
   7623SM   C1F10040   5.770   6.877  15.496 -0.1313 -0.2120  0.0143
   7623SM    OF10041   5.825   6.933  15.585  0.0810 -0.0204 -0.0434
   7623SM   C2F10042   5.688   6.969  15.408  0.0913 -0.3529  0.1141
   7623SM   H2F10043   5.724   7.075  15.408  0.4699 -0.4559 -1.2967
   7623SM   H2G10044   5.582   6.947  15.431 -0.0951 -0.6390 -0.9780
   7623SM   C3F10045   5.695   6.924  15.262  0.1469  0.4050  0.2027
   7623SM   H3F10046   5.655   6.822  15.247 -1.1473  1.1521 -1.8175
   7623SM   H3G10047   5.794   6.917  15.211  0.9429  0.0475  1.7299
   7623SM   C4F10048   5.610   7.016  15.170 -0.5491  0.4059 -0.1655
   7623SM   H4F10049   5.522   7.052  15.227  1.6090  2.4168  2.1638
   7623SM   H4G10050   5.571   6.945  15.094  0.8504 -0.4943 -0.0654
   7623SM   C5F10051   5.682   7.131  15.093  0.1317 -0.0650  0.4994
   7623SM   H5F10052   5.774   7.083  15.056 -0.3899 -0.2436 -0.6139
   7623SM   H5G10053   5.708   7.211  15.165 -1.8048  1.8278 -0.7695
   7623SM   C6F10054   5.603   7.187  14.966 -0.1300  0.4066  0.0206
   7623SM   H6F10055   5.496   7.209  14.985 -0.1935 -0.5487  0.8847
   7623SM   H6G10056   5.603   7.111  14.885  1.2799 -1.8438  2.0013
   7623SM   C7F10057   5.674   7.309  14.917 -0.6527  0.0735  0.5062
   7623SM   H7F10058   5.780   7.275  14.918 -1.0533 -1.4884 -2.1665
   7623SM   H7G10059   5.664   7.393  14.989 -1.3128 -0.1420  0.6704
   7623SM   C8F10060   5.637   7.360  14.775  0.8327 -0.1285 -0.7108
   7623SM   H8F10061   5.721   7.432  14.760  2.1292 -0.7396  2.6894
   7623SM   H8G10062   5.534   7.401  14.770  0.9070 -0.0712 -2.0304
   7623SM   C9F10063   5.638   7.258  14.664 -0.2210  0.0816 -0.5460
   7623SM   H9F10064   5.554   7.186  14.671 -1.4112  1.4601 -0.3330
   7623SM   H9G10065   5.729   7.197  14.685  0.2543  1.5797  2.2256
   7623SM  C10F10066   5.652   7.317  14.521 -0.6345 -0.4126  0.8159
   7623SM  H10F10067   5.744   7.378  14.507 -0.7986 -0.3816 -0.2970
   7623SM  H10G10068   5.566   7.384  14.500 -0.9048 -0.9696  0.0794
   7623SM  C11F10069   5.644   7.221  14.398 -0.6741 -0.4935 -0.4187
   7623SM  H11F10070   5.554   7.155  14.393  0.5771 -2.2221 -1.2401
   7623SM  H11G10071   5.730   7.157  14.427  1.7522  2.1352 -1.4109
   7623SM  C12F10072   5.665   7.291  14.264 -0.4868  0.3813  0.6104
   7623SM  H12F10073   5.768   7.323  14.241 -0.6558 -1.2510 -3.1676
   7623SM  H12G10074   5.604   7.383  14.253 -0.3802  0.2236 -1.6816
   7623SM  C13F10075   5.629   7.204  14.139 -0.2644  0.3593  0.2433
   7623SM  H13F10076   5.518   7.195  14.143 -0.1045 -2.3427  0.5103
   7623SM  H13G10077   5.666   7.100  14.148 -0.4626  0.2681  0.0134
   7623SM  C14F10078   5.685   7.255  14.003 -0.1868 -0.8319 -0.6708
   7623SM  H14F10079   5.790   7.288  14.016 -0.4485 -0.3742  0.4054
   7623SM  H14G10080   5.624   7.340  13.968  2.2003  1.8617  1.2438
   7623SM  C15F10081   5.681   7.146  13.897 -0.2290 -0.0811  0.5110
   7623SM  H15F10082   5.736   7.054  13.927  0.7136  1.0029  2.2869
   7623SM  H15G10083   5.732   7.177  13.804 -1.3632 -1.0790 -0.4668
   7623SM  C16F10084   5.545   7.107  13.852 -0.0807  0.4269  0.1619
   7623SM  H16F10085   5.508   7.192  13.791  1.8015  1.1496 -0.0079
   7623SM  H16G10086   5.477   7.092  13.939 -0.7592 -2.6116 -0.7526
   7623SM  C17F10087   5.534   6.982  13.772  1.1141  0.1898  0.7511
   7623SM  H17F10088   5.547   6.887  13.829  1.1221 -0.7659 -0.7651
   7623SM  H17G10089   5.606   6.984  13.687 -1.1646 -0.7139 -1.3160
   7623SM  C18F10090   5.391   6.970  13.716 -0.2249 -0.0149  0.2532
   7623SM  H18F10091   5.362   7.069  13.673 -0.9001 -1.4192 -2.8085
   7623SM  H18G10092   5.324   6.947  13.802  3.5846  0.3870  3.5973
   7623SM  C19F10093   5.376   6.865  13.604 -0.3049  0.4418  0.0670
   7623SM  H19F10094   5.435   6.922  13.529 -0.2164  3.0371  1.9682
   7623SM  H19G10095   5.273   6.855  13.564  0.5005 -3.0324 -1.5939
   7623SM  C20F10096   5.430   6.726  13.642  1.0967  0.2533  0.0331
   7623SM  H20F10097   5.364   6.704  13.728  0.5032  1.0107 -0.2144
   7623SM  H20G10098   5.535   6.725  13.677  1.0513  1.4359  0.2372
   7623SM  C21F10099   5.414   6.619  13.527 -0.1320  0.2445 -0.1326
   7623SM  H21F10100   5.305   6.625  13.505 -0.3595  0.0231  0.8976
   7623SM  H21G10101   5.448   6.522  13.569  0.3267  0.2115 -0.5734
   7623SM  C22F10102   5.483   6.651  13.395  0.2439 -0.1277  0.3563
   7623SM  H22F10103   5.591   6.666  13.416  0.2434 -0.6312  0.7312
   7623SM  H22G10104   5.440   6.747  13.359 -1.5221 -0.8623  0.4302
   7623SM  C23F10105   5.478   6.533  13.289 -0.3369  0.1703 -0.0209
   7623SM  H23F10106   5.383   6.543  13.232 -1.2559  0.7727  1.5395
   7623SM  H23G10107   5.498   6.437  13.342  2.0166  0.3679 -0.4574
   7623SM  H23H10108   5.561   6.544  13.217  0.6697 -2.6989  0.5350
   7723SM     N10109   6.089   2.535  16.670 -0.1535 -0.4641  0.1108
   7723SM   C1510110   6.134   2.674  16.662  0.1732 -0.7464  0.7115
   7723SM  H15A10111   6.161   2.705  16.762 -1.6069 -3.2057  2.0718
   7723SM  H15B10112   6.057   2.743  16.628  0.6651 -0.4725  0.1371
   7723SM  H15C10113   6.215   2.681  16.591 -0.3136 -0.6622  0.1618
   7723SM   C1410114   6.199   2.445  16.726 -0.1848  0.7755 -0.2511
   7723SM  H14A10115   6.288   2.448  16.664  0.5634  0.4492  0.7870
   7723SM  H14B10116   6.168   2.344  16.745 -1.0078  1.0524 -0.0571
   7723SM  H14C10117   6.216   2.483  16.825  1.2579 -2.9084  1.0544
   7723SM   C1310118   5.971   2.529  16.768  0.0634  0.3712  0.2025
   7723SM  H13A10119   5.888   2.586  16.730 -1.7523 -0.7322  2.2962
   7723SM  H13B10120   5.992   2.557  16.870 -0.5371  2.5928 -0.2298
   7723SM  H13C10121   5.927   2.431  16.773 -1.5335  1.0551  0.0813
   7723SM   C1210122   6.031   2.487  16.540  0.0149  0.7683 -0.1351
   7723SM  H12A10123   5.949   2.547  16.502 -0.4378  0.1793 -0.0941
   7723SM  H12B10124   5.971   2.399  16.558 -1.7605  2.1506  1.0729
   7723SM   C1110125   6.121   2.461  16.416  0.2732  0.2041 -0.3151
   7723SM  H11A10126   6.058   2.453  16.325 -1.7591 -1.5329  1.1441
   7723SM  H11B10127   6.171   2.363  16.436 -1.3332 -0.5068  0.4051
   7723SM     P10128   6.339   2.561  16.312  0.0160 -0.0254 -0.1099
   7723SM   O1310129   6.384   2.699  16.286  0.3517 -0.3233  0.3548
   7723SM   O1410130   6.437   2.467  16.373  0.0496  0.4656 -0.0732
   7723SM   O1110131   6.302   2.494  16.182 -0.3438 -0.1311 -0.4473
   7723SM   O1210132   6.208   2.572  16.396  0.4687 -0.3540 -0.2508
   7723SM   C1S10133   6.204   2.558  16.101 -0.2094  0.5281  0.3958
   7723SM   H1S10134   6.225   2.665  16.084 -2.0942  0.6271 -1.7978
   7723SM   H1T10135   6.103   2.554  16.149  1.2860 -0.6138  3.7940
   7723SM    NF10136   6.098   2.567  15.879  0.1956  0.6317  0.0335
   7723SM   HNF10137   6.021   2.515  15.840  0.8952 -0.7317  0.4025
   7723SM   C2S10138   6.198   2.495  15.954 -0.2136  0.3157 -0.2163
   7723SM   H2S10139   6.294   2.533  15.913 -0.3446  1.9291  0.8937
   7723SM   C3S10140   6.195   2.337  15.945 -0.0015 -0.4143  0.5814
   7723SM   H3S10141   6.089   2.325  15.976 -0.5813 -0.3925 -1.3175
   7723SM    O310142   6.266   2.260  16.042  0.6034 -0.1342  0.0456
   7723SM   HO310143   6.297   2.330  16.100  1.8827 -0.7137  0.0970
   7723SM   C4S10144   6.214   2.290  15.803 -0.3227 -0.0114  0.1198
   7723SM   H4S10145   6.142   2.321  15.725  0.2727 -0.6867 -0.7157
   7723SM   C5S10146   6.323   2.229  15.756 -1.0885  0.1132 -1.0944
   7723SM   H5S10147   6.399   2.213  15.833  0.1371  2.6855 -1.6753
   7723SM   C6S10148   6.343   2.185  15.618 -0.1674 -0.0378  0.6554
   7723SM   H6S10149   6.326   2.076  15.626  1.3016 -0.2029  2.2448
   7723SM   H6T10150   6.451   2.184  15.591 -0.4635 -0.8798 -0.5611
   7723SM   C7S10151   6.253   2.238  15.508  0.9849  0.2292 -0.5721
   7723SM   H7S10152   6.264   2.347  15.522  1.6782 -0.0173  1.0683
   7723SM   H7T10153   6.146   2.208  15.510  1.6455 -2.3422  0.3327
   7723SM   C8S10154   6.307   2.204  15.366 -0.4955  0.3132 -0.1536
   7723SM   H8S10155   6.304   2.095  15.349 -4.1917  0.5103 -1.5867
   7723SM   H8T10156   6.411   2.242  15.353 -0.4521  0.3440  0.2533
   7723SM   C9S10157   6.229   2.277  15.248 -0.3770  0.3516 -0.6219
   7723SM   H9S10158   6.210   2.380  15.284 -0.4015 -0.0543  0.5596
   7723SM   H9T10159   6.133   2.223  15.238 -1.0237  1.2721  0.4442
   7723SM  C10S10160   6.310   2.252  15.120  0.3409 -0.4728 -0.0154
   7723SM  H10S10161   6.326   2.143  15.105  0.7523 -0.6330  1.3929
   7723SM  H10T10162   6.410   2.301  15.125 -0.4036  1.2656 -1.1126
   7723SM  C11S10163   6.232   2.293  14.996  0.1042  0.3039 -0.5133
   7723SM  H11S10164   6.221   2.403  15.003 -0.0007  0.2527  0.1965
   7723SM  H11T10165   6.135   2.239  14.998 -0.6545  1.6096  1.5317
   7723SM  C12S10166   6.310   2.260  14.867 -0.3541  0.2794 -0.2089
   7723SM  H12S10167   6.322   2.150  14.852  0.3093  0.2420  0.5749
   7723SM  H12T10168   6.413   2.299  14.862 -0.4954  1.1407  2.2558
   7723SM  C13S10169   6.235   2.310  14.746  0.6939 -0.2470  0.2290
   7723SM  H13S10170   6.220   2.420  14.759 -2.0183 -0.3536 -1.2918
   7723SM  H13T10171   6.133   2.267  14.745 -0.3047  1.8422  1.9244
   7723SM  C14S10172   6.301   2.278  14.607 -0.4340 -0.6437 -0.0415
   7723SM  H14S10173   6.229   2.303  14.527 -0.3806  1.7274  0.5863
   7723SM  H14T10174   6.335   2.172  14.601 -1.7630 -1.0560 -0.9187
   7723SM  C15S10175   6.419   2.378  14.582  0.2122 -0.8639 -0.6206
   7723SM  H15S10176   6.508   2.357  14.646  0.2477 -0.3805 -0.5118
   7723SM  H15T10177   6.373   2.475  14.609 -1.4588 -1.5059 -1.0358
   7723SM  C16S10178   6.465   2.378  14.431 -0.6271 -0.4535 -0.0787
   7723SM  H16S10179   6.476   2.276  14.388 -0.1760  0.2344 -1.6928
   7723SM  H16T10180   6.561   2.433  14.435 -0.3376 -0.6029 -2.9160
   7723SM  C17S10181   6.374   2.460  14.336 -0.7530 -0.5131 -0.4579
   7723SM  H17S10182   6.343   2.559  14.375 -1.4979 -0.2715 -1.6060
   7723SM  H17T10183   6.277   2.405  14.336 -0.8452 -0.4017  1.0504
   7723SM  C18S10184   6.437   2.476  14.194  0.0616 -0.2543 -0.8436
   7723SM  H18S10185   6.547   2.478  14.207  0.1440  2.0270 -1.4071
   7723SM  H18T10186   6.403   2.571  14.148  0.3129  0.9395  1.2812
   7723SM  H18U10187   6.413   2.397  14.120  1.8954 -0.3988 -1.3366
   7723SM   C1F10188   6.094   2.697  15.853  0.5845  0.6401  0.8059
   7723SM    OF10189   6.168   2.779  15.900 -0.5194  0.5221  0.2019
   7723SM   C2F10190   5.989   2.745  15.750  0.2647 -0.5209 -0.0719
   7723SM   H2F10191   5.986   2.856  15.757 -2.2734 -0.5700  0.4604
   7723SM   H2G10192   5.890   2.707  15.782  0.2124 -1.1305 -0.9246
   7723SM   C3F10193   6.022   2.698  15.605 -0.2698  0.2900  0.2681
   7723SM   H3F10194   5.926   2.656  15.568 -0.7249  1.6188 -0.1104
   7723SM   H3G10195   6.096   2.615  15.601 -1.0010 -0.3335 -0.5479
   7723SM   C4F10196   6.056   2.808  15.506 -0.1319  0.0375 -0.3931
   7723SM   H4F10197   6.140   2.869  15.546 -1.7744  1.9259  0.3061
   7723SM   H4G10198   5.964   2.868  15.487 -0.9183 -0.6246  1.1772
   7723SM   C5F10199   6.119   2.747  15.373 -0.4032 -0.7226  1.3265
   7723SM   H5F10200   6.209   2.690  15.404 -0.9671 -2.6119 -0.2530
   7723SM   H5G10201   6.154   2.832  15.312  0.1461 -2.2146 -0.5331
   7723SM   C6F10202   6.021   2.661  15.292  0.1281  0.3710  0.0077
   7723SM   H6F10203   5.925   2.714  15.278 -0.1902 -0.5494 -1.5514
   7723SM   H6G10204   5.980   2.571  15.343  1.7748 -0.8092 -0.6217
   7723SM   C7F10205   6.074   2.624  15.155  0.1601 -0.1646 -0.0162
   7723SM   H7F10206   6.004   2.546  15.117 -1.0500  1.7674 -2.0336
   7723SM   H7G10207   6.179   2.593  15.168  0.5674  0.5301 -1.4919
   7723SM   C8F10208   6.063   2.744  15.053  0.7742  0.7764  0.4570
   7723SM   H8F10209   6.129   2.820  15.099  1.5353 -0.4335  1.4416
   7723SM   H8G10210   5.959   2.784  15.054  1.2973  2.1859  0.6067
   7723SM   C9F10211   6.122   2.729  14.921  0.0127 -0.0280 -0.0117
   7723SM   H9F10212   6.228   2.696  14.922 -0.3986 -1.4185 -0.2806
   7723SM   H9G10213   6.127   2.835  14.888 -3.4731  0.2993  0.1234
   7723SM  C10F10214   6.036   2.647  14.817  0.0645  0.3690 -0.7251
   7723SM  H10F10215   5.928   2.667  14.826 -0.1788 -0.8175 -0.8593
   7723SM  H10G10216   6.047   2.540  14.843 -2.2022  0.0707 -0.8375
   7723SM  C11F10217   6.091   2.677  14.675  0.3564 -0.9881 -0.1001
   7723SM  H11F10218   6.190   2.631  14.652  1.2322  0.7298  0.0485
   7723SM  H11G10219   6.098   2.788  14.676  1.0844 -0.9520 -2.6460
   7723SM  C12F10220   5.991   2.627  14.566  0.4041  0.1508 -0.1973
   7723SM  H12F10221   5.897   2.685  14.572 -0.8566 -1.7160 -0.8641
   7723SM  H12G10222   5.966   2.522  14.591  0.0366  0.2042 -0.3315
   7723SM  C13F10223   6.049   2.629  14.426  0.3393  0.4563  0.3039
   7723SM  H13F10224   6.155   2.598  14.435  0.8205  1.7834 -0.5795
   7723SM  H13G10225   6.053   2.733  14.388  3.4085  0.0375 -0.8264
   7723SM  C14F10226   5.986   2.529  14.330  0.0364  0.5014  0.1974
   7723SM  H14F10227   5.875   2.536  14.324  0.0960  0.0579 -2.3519
   7723SM  H14G10228   6.002   2.426  14.367 -1.2561  0.2031 -0.0354
   7723SM  C15F10229   6.032   2.555  14.184 -0.2734 -0.3714  0.1044
   7723SM  H15F10230   5.999   2.474  14.116  0.5805  1.0427 -2.1172
   7723SM  H15G10231   6.143   2.545  14.188 -0.3910 -3.1091 -1.3836
   7723SM  C16F10232   5.984   2.689  14.143  0.3575 -1.0387  0.1099
   7723SM  H16F10233   6.047   2.762  14.198  0.7077 -0.3587 -1.1646
   7723SM  H16G10234   5.875   2.711  14.149  0.4987  0.2096 -1.3649
   7723SM  C17F10235   6.029   2.724  13.999  0.2497  0.0552 -0.1770
   7723SM  H17F10236   6.030   2.834  13.984  2.2233 -0.0724 -1.2847
   7723SM  H17G10237   5.956   2.688  13.923 -0.3704  1.4447 -0.2751
   7723SM  C18F10238   6.168   2.667  13.958 -0.1741 -0.0089  0.6187
   7723SM  H18F10239   6.155   2.557  13.953  0.2052 -0.0150 -0.2580
   7723SM  H18G10240   6.243   2.699  14.034 -0.0731 -2.0694  1.4425
   7723SM  C19F10241   6.205   2.727  13.816 -0.5944  0.6594  0.5995
   7723SM  H19F10242   6.194   2.838  13.814 -0.5194  0.7054 -2.4438
   7723SM  H19G10243   6.129   2.705  13.737  1.9414  0.2011 -1.8449
   7723SM  C20F10244   6.339   2.671  13.771 -0.0633 -0.4426  0.2438
   7723SM  H20F10245   6.339   2.670  13.660  0.3154 -3.5603  0.1729
   7723SM  H20G10246   6.330   2.562  13.789 -1.4412 -0.5279 -0.7540
   7723SM  C21F10247   6.462   2.745  13.825 -0.1017 -0.8188  0.2209
   7723SM  H21F10248   6.472   2.707  13.929 -1.4339 -0.1136  0.6383
   7723SM  H21G10249   6.437   2.852  13.845 -0.4840 -1.1601  1.7162
   7723SM  C22F10250   6.594   2.728  13.744 -0.1887 -0.0483 -0.3304
   7723SM  H22F10251   6.682   2.771  13.796  1.4958 -3.1016 -0.4230
   7723SM  H22G10252   6.582   2.767  13.641  0.3461 -1.7529 -1.0807
   7723SM  C23F10253   6.622   2.582  13.724 -0.3917  0.0470  0.0453
   7723SM  H23F10254   6.707   2.561  13.656 -1.9223 -0.7509 -1.7183
   7723SM  H23G10255   6.536   2.524  13.683 -1.0966 -0.9838  2.7443
   7723SM  H23H10256   6.646   2.547  13.827 -1.1244  0.5396  0.3962
   7823SM     N10257   6.700   0.433  16.361  0.2955 -0.1622 -0.1664
   7823SM   C1510258   6.588   0.541  16.357 -0.8063  0.5424  0.5224
   7823SM  H15A10259   6.500   0.500  16.404 -0.2651 -0.4833  0.6612
   7823SM  H15B10260   6.567   0.566  16.254  2.5610  0.0544 -0.4199
   7823SM  H15C10261   6.622   0.629  16.410  1.7378  1.3453 -2.1788
   7823SM   C1410262   6.721   0.394  16.504  0.2999  0.0404 -0.3439
   7823SM  H14A10263   6.750   0.481  16.561  1.4061 -0.5904  0.0975
   7823SM  H14B10264   6.797   0.318  16.516 -0.5787 -1.2846 -2.6665
   7823SM  H14C10265   6.625   0.365  16.544 -0.4070  1.8615 -0.6563
   7823SM   C1310266   6.652   0.321  16.283 -0.3489 -0.1258 -0.1306
   7823SM  H13A10267   6.547   0.298  16.292 -0.4639 -1.4463 -3.2813
   7823SM  H13B10268   6.708   0.229  16.296  1.0597  0.6878 -0.2687
   7823SM  H13C10269   6.663   0.343  16.177  2.9591 -0.4863  0.0388
   7823SM   C1210270   6.837   0.478  16.304  0.1410  0.1263 -0.2056
   7823SM  H12A10271   6.914   0.402  16.307 -0.1414 -0.4042 -3.4272
   7823SM  H12B10272   6.868   0.558  16.370 -1.1178 -0.3451  1.0011
   7823SM   C1110273   6.836   0.510  16.156 -0.1058  0.4622  0.0912
   7823SM  H11A10274   6.912   0.588  16.135 -0.2816  1.3592  2.4131
   7823SM  H11B10275   6.741   0.552  16.118  0.2589  0.5563 -0.7426
   7823SM     P10276   6.983   0.332  16.044 -0.0887 -0.0183 -0.2869
   7823SM   O1310277   7.043   0.281  16.167 -0.0321 -0.6217  0.2157
   7823SM   O1410278   6.981   0.230  15.941 -0.1477 -0.0916  0.3840
   7823SM   O1110279   7.064   0.459  15.992 -0.1894  0.3457 -0.5399
   7823SM   O1210280   6.843   0.389  16.073 -0.3531 -0.1427 -0.5726
   7823SM   C1S10281   7.000   0.548  15.899  0.6316 -0.0842 -0.0783
   7823SM   H1S10282   7.046   0.649  15.907  0.5350 -0.0703  0.3047
   7823SM   H1T10283   6.893   0.568  15.921  0.5482 -0.2352 -0.3473
   7823SM    NF10284   6.899   0.439  15.701 -0.3343 -0.9995 -0.9373
   7823SM   HNF10285   6.901   0.339  15.702 -1.0855 -1.0167 -0.1888
   7823SM   C2S10286   7.018   0.508  15.752  0.2578  0.2206  0.0815
   7823SM   H2S10287   7.025   0.601  15.692 -1.1251  0.9137  0.9295
   7823SM   C3S10288   7.154   0.438  15.729  0.3949  0.2745  0.1887
   7823SM   H3S10289   7.171   0.347  15.790  3.2882  0.5845 -0.0139
   7823SM    O310290   7.262   0.516  15.754 -0.7848 -0.8587 -0.2220
   7823SM   HO310291   7.231   0.580  15.818  0.5184 -0.7450  0.3424
   7823SM   C4S10292   7.160   0.391  15.584  0.3383  0.2369  0.2433
   7823SM   H4S10293   7.119   0.289  15.572 -0.9592  0.3341  2.9935
   7823SM   C5S10294   7.180   0.461  15.476 -0.7840  0.2412 -0.2179
   7823SM   H5S10295   7.198   0.568  15.490  0.6374 -0.2436  2.4649
   7823SM   C6S10296   7.202   0.407  15.338 -0.3392  0.0752 -0.6215
   7823SM   H6S10297   7.208   0.296  15.339  0.7096  0.1222 -0.5515
   7823SM   H6T10298   7.297   0.442  15.292  0.4600  0.3531  1.1594
   7823SM   C7S10299   7.077   0.427  15.255 -0.1661 -0.0114  0.7254
   7823SM   H7S10300   7.045   0.531  15.278  0.1169 -0.1057  1.5791
   7823SM   H7T10301   7.001   0.355  15.291 -0.4261 -1.8647 -3.0673
   7823SM   C8S10302   7.107   0.410  15.102 -0.7399 -0.7888  0.9822
   7823SM   H8S10303   7.110   0.308  15.058  0.9221  0.1439 -1.3059
   7823SM   H8T10304   7.196   0.473  15.080 -0.6415 -0.9301  0.9759
   7823SM   C9S10305   6.997   0.463  15.010 -0.1764 -0.3852 -0.1337
   7823SM   H9S10306   6.977   0.568  15.042  1.6094 -0.4891  1.4960
   7823SM   H9T10307   6.910   0.396  15.025  1.6179 -2.7411  0.2840
   7823SM  C10S10308   7.053   0.468  14.869 -0.1504  0.3916  0.2100
   7823SM  H10S10309   7.077   0.362  14.845 -2.7334 -0.3734  0.6592
   7823SM  H10T10310   7.145   0.530  14.875  0.2145 -0.2311  1.2377
   7823SM  C11S10311   6.968   0.541  14.762  0.1675  0.5018 -0.2761
   7823SM  H11S10312   6.966   0.651  14.779 -0.7176  0.6339 -1.1602
   7823SM  H11T10313   6.867   0.495  14.757  0.3757  0.1067 -0.9346
   7823SM  C12S10314   7.020   0.510  14.617  0.6919  0.2815  0.1038
   7823SM  H12S10315   7.029   0.400  14.603  1.3847  0.4538 -0.9321
   7823SM  H12T10316   7.121   0.555  14.609  0.5486  0.3633 -1.9029
   7823SM  C13S10317   6.936   0.578  14.517  0.1482  0.2623 -0.8727
   7823SM  H13S10318   6.953   0.687  14.528  0.6736 -0.0682  2.9179
   7823SM  H13T10319   6.829   0.546  14.517  0.1063  0.3688 -1.6448
   7823SM  C14S10320   6.997   0.545  14.376  0.8273 -0.4879 -0.2299
   7823SM  H14S10321   6.981   0.439  14.346 -1.1134 -0.0603 -0.8541
   7823SM  H14T10322   7.104   0.572  14.372  0.9415 -0.3054  2.2868
   7823SM  C15S10323   6.921   0.603  14.252 -0.1086 -0.2150  0.0063
   7823SM  H15S10324   6.939   0.713  14.248  2.1778 -0.5638 -2.1565
   7823SM  H15T10325   6.811   0.596  14.259 -0.4710  2.2655 -1.6405
   7823SM  C16S10326   6.975   0.542  14.118  0.2303 -0.3348  0.3140
   7823SM  H16S10327   6.906   0.458  14.101 -1.4091  0.6114  1.9542
   7823SM  H16T10328   7.082   0.513  14.117  0.3315  0.0427 -1.3438
   7823SM  C17S10329   6.958   0.635  14.000 -0.2337  0.0903  0.0525
   7823SM  H17S10330   7.006   0.731  14.031 -2.0407  0.9730  0.2193
   7823SM  H17T10331   6.849   0.653  13.990 -0.5245 -1.6283 -0.2497
   7823SM  C18S10332   7.028   0.604  13.861 -0.2551  0.6870 -0.0444
   7823SM  H18S10333   7.045   0.687  13.790  0.8574 -0.2251 -0.8958
   7823SM  H18T10334   6.962   0.528  13.814  0.3568  0.8005 -1.1024
   7823SM  H18U10335   7.131   0.562  13.868 -0.9689 -1.5077 -1.4826
   7823SM   C1F10336   6.779   0.496  15.683 -0.4525  0.0861 -0.6707
   7823SM    OF10337   6.767   0.613  15.674  0.3351  0.0035 -0.2688
   7823SM   C2F10338   6.658   0.408  15.678  0.0606  0.7068  0.0018
   7823SM   H2F10339   6.610   0.399  15.778 -0.9971  0.8308 -0.4763
   7823SM   H2G10340   6.687   0.301  15.665 -0.9529  0.1020  2.1574
   7823SM   C3F10341   6.552   0.462  15.573  0.4348  0.3124 -0.1748
   7823SM   H3F10342   6.522   0.564  15.604  1.2220  0.6496 -0.4785
   7823SM   H3G10343   6.454   0.410  15.572  0.2586  0.3848  2.8297
   7823SM   C4F10344   6.604   0.453  15.431 -0.0935  0.3568  0.5390
   7823SM   H4F10345   6.624   0.345  15.415 -1.1921 -0.1829  2.5582
   7823SM   H4G10346   6.695   0.516  15.429 -0.4431  0.9024  1.3400
   7823SM   C5F10347   6.493   0.478  15.327  0.4164 -0.5250 -0.1659
   7823SM   H5F10348   6.459   0.583  15.331 -1.8034 -1.2196  0.4717
   7823SM   H5G10349   6.407   0.412  15.352 -0.1214  0.8400  1.8529
   7823SM   C6F10350   6.551   0.453  15.185 -0.0404  0.0755 -0.3051
   7823SM   H6F10351   6.550   0.345  15.159  0.7712  0.2506 -1.1220
   7823SM   H6G10352   6.661   0.472  15.182  0.2192 -0.9133  1.4905
   7823SM   C7F10353   6.474   0.519  15.064  0.1514 -0.3938  0.3641
   7823SM   H7F10354   6.473   0.629  15.078  1.8685 -0.4042  0.7603
   7823SM   H7G10355   6.366   0.496  15.059 -0.1386  1.0780 -1.5649
   7823SM   C8F10356   6.537   0.473  14.928 -0.2612 -0.6391 -0.7272
   7823SM   H8F10357   6.535   0.362  14.916 -1.2631 -0.8556  1.0629
   7823SM   H8G10358   6.639   0.515  14.920 -1.0555  1.7375  0.5995
   7823SM   C9F10359   6.462   0.538  14.813  0.3349 -0.1705  1.6692
   7823SM   H9F10360   6.449   0.648  14.826  1.5110  0.1500  0.2919
   7823SM   H9G10361   6.357   0.502  14.802 -0.1865  1.9812 -2.2236
   7823SM  C10F10362   6.529   0.514  14.683 -0.0360 -0.3341  0.5170
   7823SM  H10F10363   6.537   0.407  14.655 -1.8589  0.1525 -2.1778
   7823SM  H10G10364   6.633   0.550  14.698 -0.1942  0.6955 -0.7485
   7823SM  C11F10365   6.457   0.585  14.566  0.4096  0.4215  0.2679
   7823SM  H11F10366   6.451   0.694  14.589  0.3249  0.3020  0.8328
   7823SM  H11G10367   6.352   0.549  14.573  0.5067 -0.1923 -1.0743
   7823SM  C12F10368   6.524   0.565  14.430  0.4163 -0.6113 -0.1178
   7823SM  H12F10369   6.532   0.457  14.403 -0.3907 -0.7375  0.1224
   7823SM  H12G10370   6.624   0.613  14.428 -0.4831  1.3772  0.1249
   7823SM  C13F10371   6.434   0.623  14.313 -0.6983 -0.5849  0.2209
   7823SM  H13F10372   6.407   0.728  14.338 -1.8580 -0.6719 -0.6119
   7823SM  H13G10373   6.340   0.567  14.298 -2.2274  1.4336  1.7539
   7823SM  C14F10374   6.505   0.628  14.171  1.1071  0.7120 -0.1927
   7823SM  H14F10375   6.527   0.535  14.115 -1.1074  0.9149 -1.4962
   7823SM  H14G10376   6.598   0.690  14.173  1.2683  0.4604  0.9082
   7823SM  C15F10377   6.398   0.679  14.073 -0.0133 -0.5362 -0.6305
   7823SM  H15F10378   6.349   0.768  14.117 -0.6600 -0.9486 -0.4943
   7823SM  H15G10379   6.315   0.606  14.059 -0.4789  0.0383 -0.9006
   7823SM  C16F10380   6.456   0.714  13.940  0.7813  0.4815  0.4210
   7823SM  H16F10381   6.451   0.626  13.873 -1.6143  0.8886 -0.0245
   7823SM  H16G10382   6.564   0.735  13.959  1.3160 -2.3680  1.0122
   7823SM  C17F10383   6.384   0.822  13.868  0.1271 -0.9466  1.0655
   7823SM  H17F10384   6.381   0.907  13.940  0.7399 -0.2251  0.2549
   7823SM  H17G10385   6.279   0.791  13.851  0.2841 -0.7251 -0.4686
   7823SM  C18F10386   6.447   0.866  13.731  0.3995 -0.2991  0.2984
   7823SM  H18F10387   6.448   0.786  13.653 -0.2593 -0.3120  0.3008
   7823SM  H18G10388   6.554   0.894  13.742  0.4759 -0.7542  0.7289
   7823SM  C19F10389   6.379   0.984  13.665 -0.2660 -0.2033  0.4534
   7823SM  H19F10390   6.387   1.072  13.732  0.4908  1.1304 -1.3246
   7823SM  H19G10391   6.270   0.960  13.660 -0.0396 -1.3101  0.5150
   7823SM  C20F10392   6.426   1.024  13.527  0.1253 -0.1699 -0.5703
   7823SM  H20F10393   6.365   0.977  13.446  0.8390 -0.6607 -0.8307
   7823SM  H20G10394   6.533   0.998  13.518 -0.0556 -2.2494  2.0581
   7823SM  C21F10395   6.416   1.174  13.490 -0.0032 -0.1333  0.8429
   7823SM  H21F10396   6.318   1.221  13.512  1.2344  1.6152  3.2333
   7823SM  H21G10397   6.430   1.176  13.380 -3.3366 -2.8759  0.2139
   7823SM  C22F10398   6.524   1.256  13.559  0.3655  0.2285 -0.9790
   7823SM  H22F10399   6.616   1.194  13.565  0.8798  1.1466  2.2482
   7823SM  H22G10400   6.506   1.267  13.668  0.2898  0.5540 -1.0248
   7823SM  C23F10401   6.569   1.392  13.503  0.6514  0.7040  0.4657
   7823SM  H23F10402   6.488   1.466  13.491 -0.1307 -0.3146 -0.8271
   7823SM  H23G10403   6.599   1.385  13.396 -0.1915  2.2244  0.1069
   7823SM  H23H10404   6.658   1.431  13.558  2.0057 -0.6456 -0.6498
   7923SM     N10405   4.995   1.172  15.861  0.2108 -0.2241  0.4537
   7923SM   C1510406   4.994   1.024  15.849 -0.6029 -0.3045  0.5667
   7923SM  H15A10407   4.974   0.977  15.944  1.8804 -0.5132  1.0383
   7923SM  H15B10408   5.091   0.987  15.819 -1.5043 -0.4345 -2.5969
   7923SM  H15C10409   4.917   0.994  15.779  0.5677 -1.3948 -0.3019
   7923SM   C1410410   5.086   1.212  15.970  0.0540  0.5694  0.4678
   7923SM  H14A10411   5.047   1.179  16.065 -1.8552  3.0844  0.6826
   7923SM  H14B10412   5.083   1.319  15.982 -1.0026  0.4921  1.0366
   7923SM  H14C10413   5.184   1.166  15.966 -0.4981 -0.6986  0.9056
   7923SM   C1310414   5.041   1.230  15.732 -0.1831 -0.2284 -0.1785
   7923SM  H13A10415   4.994   1.323  15.703  2.0112  0.7909 -0.6708
   7923SM  H13B10416   5.032   1.163  15.648  0.6221  0.3526 -0.7448
   7923SM  H13C10417   5.147   1.249  15.743 -0.2200  3.8355 -4.0253
   7923SM   C1210418   4.852   1.214  15.904 -0.4830  0.0715  0.1391
   7923SM  H12A10419   4.811   1.143  15.974  3.0410 -2.2078  0.1818
   7923SM  H12B10420   4.793   1.199  15.815 -0.0446  1.0341 -0.3296
   7923SM   C1110421   4.831   1.354  15.947  0.0020 -0.2953  0.3343
   7923SM  H11A10422   4.846   1.422  15.860  2.5141 -0.7861  0.3196
   7923SM  H11B10423   4.906   1.392  16.020 -1.2795  0.6105  1.2323
   7923SM     P10424   4.576   1.398  15.922 -0.3551 -0.5439 -0.1158
   7923SM   O1310425   4.481   1.290  15.954 -0.0451  0.3894  0.4014
   7923SM   O1410426   4.526   1.539  15.951 -0.5238 -0.3969 -0.8243
   7923SM   O1110427   4.630   1.382  15.774 -0.2343  0.3655  0.5295
   7923SM   O1210428   4.702   1.368  16.013  0.1904  0.0350 -0.3210
   7923SM   C1S10429   4.542   1.326  15.676  0.1314 -0.2429  0.1194
   7923SM   H1S10430   4.433   1.334  15.697 -0.7677 -1.2339 -3.3991
   7923SM   H1T10431   4.547   1.216  15.663  0.5162 -0.1308 -0.7962
   7923SM    NF10432   4.481   1.328  15.438 -0.2976 -0.1567 -0.1474
   7923SM   HNF10433   4.528   1.289  15.359  0.5881 -0.7906  0.6655
   7923SM   C2S10434   4.565   1.391  15.532  0.1857 -0.6353  0.1154
   7923SM   H2S10435   4.533   1.498  15.531 -0.1155 -0.7140 -2.0216
   7923SM   C3S10436   4.717   1.392  15.503 -0.2350  0.3015  0.2902
   7923SM   H3S10437   4.739   1.284  15.514 -1.9987 -0.2475 -1.0776
   7923SM    O310438   4.806   1.459  15.593 -0.0395 -0.3997 -0.4246
   7923SM   HO310439   4.750   1.491  15.664 -0.4723  0.4610 -1.1322
   7923SM   C4S10440   4.741   1.441  15.360 -0.8035  0.1993 -0.0054
   7923SM   H4S10441   4.792   1.369  15.294  2.1384  0.8342  1.3739
   7923SM   C5S10442   4.739   1.567  15.316  0.5984 -0.0741 -0.5204
   7923SM   H5S10443   4.699   1.645  15.384  2.7868  0.6985 -0.0494
   7923SM   C6S10444   4.789   1.623  15.188  0.4222 -0.3680 -0.3895
   7923SM   H6S10445   4.899   1.637  15.182  0.2675  0.6634 -1.2734
   7923SM   H6T10446   4.745   1.724  15.177 -1.2145 -0.5909  2.9638
   7923SM   C7S10447   4.735   1.540  15.060 -0.3618  0.4263  0.4682
   7923SM   H7S10448   4.625   1.537  15.074 -0.6437 -0.8684 -1.6173
   7923SM   H7T10449   4.760   1.432  15.070  0.3080  0.5926  0.7205
   7923SM   C8S10450   4.774   1.598  14.917  0.6828  0.1359 -0.2879
   7923SM   H8S10451   4.883   1.579  14.920  0.3851 -1.7161  2.5658
   7923SM   H8T10452   4.770   1.709  14.925  1.1259  0.3140 -2.0493
   7923SM   C9S10453   4.696   1.528  14.809  0.1420 -0.1850 -0.2529
   7923SM   H9S10454   4.586   1.532  14.827  0.0158 -0.1404 -0.9988
   7923SM   H9T10455   4.735   1.426  14.825  2.0725  0.7548  1.4322
   7923SM  C10S10456   4.728   1.583  14.671 -0.0192 -0.0192 -0.1992
   7923SM  H10S10457   4.839   1.584  14.668  0.1034 -0.6198  2.1058
   7923SM  H10T10458   4.669   1.676  14.660 -0.4992 -0.0032  1.9978
   7923SM  C11S10459   4.678   1.483  14.567  0.3835  0.1631  0.1509
   7923SM  H11S10460   4.575   1.449  14.591 -0.5024  1.8596 -1.0086
   7923SM  H11T10461   4.752   1.401  14.563 -0.0854 -0.2710  0.2924
   7923SM  C12S10462   4.667   1.544  14.424  0.0210 -0.1474  0.5572
   7923SM  H12S10463   4.769   1.560  14.383 -0.0857 -1.6293 -0.3813
   7923SM  H12T10464   4.613   1.640  14.436  1.9439  1.3630 -1.7697
   7923SM  C13S10465   4.615   1.447  14.317  0.4089 -0.1911  0.2109
   7923SM  H13S10466   4.506   1.427  14.322  0.3731  0.0873  0.5732
   7923SM  H13T10467   4.667   1.353  14.346  2.1553  0.7365  0.2530
   7923SM  C14S10468   4.668   1.480  14.181  0.1761 -0.0444  0.6674
   7923SM  H14S10469   4.657   1.392  14.114  0.1335  1.2944 -1.1728
   7923SM  H14T10470   4.772   1.519  14.189  0.0746  0.7380 -1.2366
   7923SM  C15S10471   4.595   1.598  14.113  0.8047 -0.4482 -0.3504
   7923SM  H15S10472   4.600   1.697  14.162  1.4440  0.2836 -1.8325
   7923SM  H15T10473   4.485   1.576  14.112  0.5141  0.7307 -3.2603
   7923SM  C16S10474   4.619   1.622  13.962 -0.4913 -0.1122 -0.0469
   7923SM  H16S10475   4.552   1.706  13.935 -0.7907 -0.9957 -2.2547
   7923SM  H16T10476   4.607   1.530  13.901 -0.5844 -0.2551  0.1853
   7923SM  C17S10477   4.766   1.675  13.948 -0.1624 -0.4980  0.9210
   7923SM  H17S10478   4.826   1.601  14.004 -1.2679 -2.4104 -0.2994
   7923SM  H17T10479   4.773   1.777  13.991  1.1687  0.0193 -0.4339
   7923SM  C18S10480   4.812   1.682  13.797  0.0092 -0.2393 -0.0747
   7923SM  H18S10481   4.914   1.726  13.795 -0.0264 -0.1695 -0.3682
   7923SM  H18T10482   4.756   1.753  13.733 -1.3087 -1.9981 -0.9494
   7923SM  H18U10483   4.810   1.578  13.758 -1.7353 -0.9690  1.7681
   7923SM   C1F10484   4.341   1.333  15.439  0.0971 -0.5761  0.1271
   7923SM    OF10485   4.286   1.424  15.506  0.5561  0.4163  0.0607
   7923SM   C2F10486   4.260   1.229  15.368  0.3134 -0.0198  0.1910
   7923SM   H2F10487   4.163   1.201  15.414  0.5548 -3.7655 -1.2181
   7923SM   H2G10488   4.316   1.134  15.374  0.6902  0.1920  0.0918
   7923SM   C3F10489   4.235   1.268  15.219  0.6216  0.3501 -0.1899
   7923SM   H3F10490   4.337   1.278  15.177  1.1467 -0.3594  0.8750
   7923SM   H3G10491   4.183   1.366  15.221  0.3303  0.1900  0.3472
   7923SM   C4F10492   4.159   1.156  15.149 -0.8178 -0.2447 -0.8093
   7923SM   H4F10493   4.058   1.150  15.196 -0.8629 -0.8121 -0.9738
   7923SM   H4G10494   4.206   1.061  15.180  1.3010  1.2699  0.8991
   7923SM   C5F10495   4.149   1.158  15.000 -0.1707 -0.2570  0.1023
   7923SM   H5F10496   4.250   1.166  14.954 -1.2479 -0.7741 -2.5440
   7923SM   H5G10497   4.095   1.240  14.948 -0.2176 -0.0851  0.4205
   7923SM   C6F10498   4.079   1.024  14.966  0.3231  0.3711  0.4368
   7923SM   H6F10499   3.974   1.026  15.001  0.3691 -0.9979  0.6939
   7923SM   H6G10500   4.118   0.928  15.006 -4.3788 -0.7712  2.9926
   7923SM   C7F10501   4.052   1.000  14.819  0.2371  0.1660  0.6895
   7923SM   H7F10502   4.150   0.980  14.770 -1.5470  0.4045 -3.3345
   7923SM   H7G10503   4.013   1.089  14.765 -0.1917 -1.6625 -2.1772
   7923SM   C8F10504   3.950   0.889  14.789  0.0364  0.3207  0.0227
   7923SM   H8F10505   3.854   0.906  14.843 -1.2208 -0.1042 -2.0008
   7923SM   H8G10506   3.979   0.788  14.827 -2.4437  0.9567  4.2686
   7923SM   C9F10507   3.913   0.869  14.639  0.2881  0.0613 -0.4459
   7923SM   H9F10508   3.866   0.962  14.599  0.3653  0.0012 -0.6744
   7923SM   H9G10509   3.835   0.791  14.633  0.2938  0.0854 -0.8901
   7923SM  C10F10510   4.024   0.818  14.546 -0.2543  0.7928  0.3122
   7923SM  H10F10511   4.099   0.763  14.607 -1.3994 -1.2361 -0.0419
   7923SM  H10G10512   4.075   0.910  14.508  1.3045  0.0322  0.4964
   7923SM  C11F10513   3.975   0.726  14.433 -0.0736 -0.3722  0.2809
   7923SM  H11F10514   3.913   0.650  14.486  1.6504 -2.6100 -0.7599
   7923SM  H11G10515   4.062   0.674  14.388 -0.5448 -1.8177  0.9710
   7923SM  C12F10516   3.901   0.800  14.323 -0.3747 -0.5510  0.4813
   7923SM  H12F10517   3.954   0.894  14.295 -1.8401  0.6758  1.5927
   7923SM  H12G10518   3.813   0.850  14.371  0.0223 -0.0018  0.6439
   7923SM  C13F10519   3.871   0.714  14.204  0.7727  0.0791  0.1619
   7923SM  H13F10520   3.820   0.623  14.240  2.0023 -1.3180 -1.4828
   7923SM  H13G10521   3.954   0.674  14.142  0.2115 -0.8165 -0.0221
   7923SM  C14F10522   3.776   0.791  14.104 -0.1683  0.8267  0.0951
   7923SM  H14F10523   3.811   0.887  14.062 -0.1051  0.3894 -0.8907
   7923SM  H14G10524   3.689   0.816  14.168  0.3358 -0.3014  1.2771
   7923SM  C15F10525   3.730   0.679  14.000 -0.0882  0.4586 -0.4108
   7923SM  H15F10526   3.688   0.589  14.049  0.9932  0.2495  0.1347
   7923SM  H15G10527   3.823   0.656  13.945  1.0797  1.4237  1.0803
   7923SM  C16F10528   3.631   0.720  13.889 -0.3795 -0.5779  0.0058
   7923SM  H16F10529   3.668   0.805  13.828  0.3744 -1.2011 -0.4237
   7923SM  H16G10530   3.534   0.750  13.934  0.2055  2.4694 -0.5290
   7923SM  C17F10531   3.616   0.603  13.790  0.2389  0.3941  0.0719
   7923SM  H17F10532   3.607   0.512  13.853  0.7654  1.1840  1.3164
   7923SM  H17G10533   3.708   0.589  13.729 -0.1363  2.4906 -1.0928
   7923SM  C18F10534   3.494   0.610  13.695  0.2937  0.3886  0.3437
   7923SM  H18F10535   3.499   0.704  13.636  1.6216  1.1405  1.5879
   7923SM  H18G10536   3.402   0.633  13.752 -1.1198  1.2080 -2.1090
   7923SM  C19F10537   3.468   0.479  13.615  0.0756 -0.0583 -0.9830
   7923SM  H19F10538   3.567   0.454  13.571 -0.9076 -1.4312 -2.5340
   7923SM  H19G10539   3.394   0.488  13.533 -2.0459 -2.5743  0.4800
   7923SM  C20F10540   3.429   0.358  13.702  0.7304  0.0580 -0.0367
   7923SM  H20F10541   3.508   0.335  13.776 -0.5049 -1.9282  0.7446
   7923SM  H20G10542   3.425   0.272  13.632  1.6653  2.1292 -2.7928
   7923SM  C21F10543   3.293   0.369  13.775 -0.0260 -0.0205  0.1888
   7923SM  H21F10544   3.303   0.463  13.833  2.5969 -0.4499  0.5310
   7923SM  H21G10545   3.280   0.279  13.838 -1.0439  0.2252  0.3502
   7923SM  C22F10546   3.167   0.372  13.692  0.0691 -0.3926  0.2587
   7923SM  H22F10547   3.153   0.275  13.640 -2.4346 -0.5195  1.0074
   7923SM  H22G10548   3.171   0.456  13.620  2.2900  0.3935  1.2103
   7923SM  C23F10549   3.045   0.408  13.771 -0.7047  0.0160 -0.3138
   7923SM  H23F10550   2.951   0.385  13.717 -0.9220 -1.7087  0.6921
   7923SM  H23G10551   3.032   0.512  13.806 -4.3119 -0.8074  1.2673
   7923SM  H23H10552   3.034   0.349  13.865  1.1912  0.4774  0.2595
   8023SM     N10553   5.711   0.874  16.382  0.1752 -0.1675  0.0597
   8023SM   C1510554   5.807   0.870  16.499  0.1304  0.8824  0.5877
   8023SM  H15A10555   5.900   0.923  16.483  0.4172  1.2657  3.0722
   8023SM  H15B10556   5.844   0.769  16.511 -0.3886  0.4927 -0.8807
   8023SM  H15C10557   5.770   0.918  16.588  1.0662 -0.4642  1.7550
   8023SM   C1410558   5.660   1.009  16.368  0.2964 -0.7991 -0.3282
   8023SM  H14A10559   5.730   1.081  16.328 -2.4536  0.5202 -3.1440
   8023SM  H14B10560   5.623   1.030  16.467  0.6260 -0.8471 -0.1936
   8023SM  H14C10561   5.575   1.010  16.301  0.2080  1.3798 -0.2299
   8023SM   C1310562   5.793   0.842  16.263  0.7114 -0.4845  0.4267
   8023SM  H13A10563   5.747   0.854  16.166  2.0583  1.0429 -0.0748
   8023SM  H13B10564   5.817   0.736  16.264  0.8283 -0.4682 -0.2254
   8023SM  H13C10565   5.883   0.902  16.260  0.7040 -0.4840 -1.9980
   8023SM   C1210566   5.597   0.771  16.397 -0.1715 -0.1592  0.8115
   8023SM  H12A10567   5.540   0.791  16.486  1.5472  3.2476  1.3151
   8023SM  H12B10568   5.651   0.678  16.409  0.8059  0.5748  2.4233
   8023SM   C1110569   5.495   0.760  16.286 -0.0253 -0.2211 -0.1556
   8023SM  H11A10570   5.430   0.673  16.310  0.1554 -0.2202  0.3541
   8023SM  H11B10571   5.547   0.735  16.192  3.5504 -0.5807  1.7508
   8023SM     P10572   5.305   0.882  16.168  0.2366  0.3193  0.0339
   8023SM   O1310573   5.245   0.743  16.149  0.1966 -0.1532 -0.2303
   8023SM   O1410574   5.218   0.992  16.209  0.1626  0.3053 -0.1518
   8023SM   O1110575   5.361   0.927  16.032  0.1666 -0.4389  0.9699
   8023SM   O1210576   5.416   0.880  16.276  0.2324  0.5361 -0.1284
   8023SM   C1S10577   5.485   0.999  16.024 -0.2229 -0.0594 -0.3055
   8023SM   H1S10578   5.576   0.952  16.068  1.1837  2.5451 -0.2488
   8023SM   H1T10579   5.469   1.099  16.071 -0.4582 -0.0718 -0.3598
   8023SM    NF10580   5.658   1.083  15.884  0.7914 -0.4032  0.0130
   8023SM   HNF10581   5.654   1.177  15.850 -0.2521 -0.3180  0.3466
   8023SM   C2S10582   5.536   1.020  15.880  0.6098  0.1220 -0.0518
   8023SM   H2S10583   5.547   0.916  15.841  0.9153  0.5721 -1.1912
   8023SM   C3S10584   5.438   1.089  15.779  0.6853 -0.0227 -0.1216
   8023SM   H3S10585   5.403   1.192  15.801 -3.0411 -0.8804 -1.1982
   8023SM    O310586   5.308   1.030  15.782 -0.0144 -0.3910  0.4402
   8023SM   HO310587   5.318   0.955  15.842  0.5096  1.3816  2.7452
   8023SM   C4S10588   5.489   1.081  15.638  0.2710 -0.3514  0.2966
   8023SM   H4S10589   5.516   0.976  15.623 -3.6745 -1.7922  1.8382
   8023SM   C5S10590   5.480   1.173  15.534 -0.1115 -0.1474  0.3658
   8023SM   H5S10591   5.437   1.274  15.546  2.0217  0.8123  0.4223
   8023SM   C6S10592   5.542   1.163  15.400 -0.4463  0.6625 -0.7288
   8023SM   H6S10593   5.597   1.256  15.375  0.2602  0.9887  1.7476
   8023SM   H6T10594   5.458   1.155  15.328  0.3674 -0.4172 -1.5881
   8023SM   C7S10595   5.625   1.035  15.378 -0.6633  0.7185 -0.7023
   8023SM   H7S10596   5.560   0.949  15.406  1.7844 -1.0490 -0.1108
   8023SM   H7T10597   5.714   1.030  15.444 -1.2543  1.1260  0.1404
   8023SM   C8S10598   5.683   1.006  15.238  0.3381 -0.5820  0.0440
   8023SM   H8S10599   5.607   0.975  15.163 -0.0200 -2.1024  0.9959
   8023SM   H8T10600   5.751   0.919  15.224  1.1475  0.5480 -4.9760
   8023SM   C9S10601   5.749   1.135  15.178  0.1552  0.3364  0.1311
   8023SM   H9S10602   5.828   1.173  15.246 -0.8733  2.1480  0.4093
   8023SM   H9T10603   5.663   1.207  15.176 -0.0609  0.1198  1.0806
   8023SM  C10S10604   5.807   1.104  15.039  0.3764  0.5570 -1.0838
   8023SM  H10S10605   5.889   1.029  15.043 -2.3406 -2.5353  1.2401
   8023SM  H10T10606   5.858   1.195  15.000  2.3921  0.6667  1.5293
   8023SM  C11S10607   5.702   1.067  14.933 -0.2704 -0.0970 -0.3190
   8023SM  H11S10608   5.617   1.132  14.963  1.6513  1.5872  1.8044
   8023SM  H11T10609   5.679   0.959  14.942 -0.3670 -0.2189 -1.7772
   8023SM  C12S10610   5.744   1.108  14.794  0.1770  0.0758 -0.1991
   8023SM  H12S10611   5.853   1.097  14.778  1.7487  5.2004  4.1421
   8023SM  H12T10612   5.728   1.217  14.780  0.5132  0.2586  0.8062
   8023SM  C13S10613   5.679   1.041  14.672  0.2985  0.4645 -0.1230
   8023SM  H13S10614   5.568   1.049  14.682 -0.2299 -2.0147 -2.7207
   8023SM  H13T10615   5.699   0.933  14.688  0.4764  0.3576 -1.0340
   8023SM  C14S10616   5.726   1.101  14.543 -0.4246 -1.2651 -0.8369
   8023SM  H14S10617   5.833   1.073  14.532  0.1119  0.2841  0.2010
   8023SM  H14T10618   5.708   1.210  14.550  2.4681 -0.8151  2.1883
   8023SM  C15S10619   5.660   1.034  14.427 -0.5151 -0.5400  0.0496
   8023SM  H15S10620   5.669   0.924  14.422  0.5875 -0.4290 -0.7094
   8023SM  H15T10621   5.715   1.074  14.340  1.6115 -0.3580  1.4163
   8023SM  C16S10622   5.509   1.062  14.407  0.2833 -0.7384  0.5412
   8023SM  H16S10623   5.498   1.172  14.405 -1.6258 -0.9054 -1.3728
   8023SM  H16T10624   5.454   1.021  14.494 -0.9123 -1.6124 -0.5901
   8023SM  C17S10625   5.450   1.010  14.276  0.2761  0.5493  0.2722
   8023SM  H17S10626   5.465   0.901  14.267 -0.0462  0.4433  0.9368
   8023SM  H17T10627   5.502   1.056  14.190 -1.4115 -0.0775 -1.1523
   8023SM  C18S10628   5.299   1.047  14.262  0.0878  0.0299 -0.0357
   8023SM  H18S10629   5.256   0.988  14.346  0.3346  1.2068  0.9386
   8023SM  H18T10630   5.268   1.006  14.163  0.2679  0.5609 -0.3146
   8023SM  H18U10631   5.273   1.155  14.262 -2.0293 -0.3938 -2.2509
   8023SM   C1F10632   5.775   1.023  15.924  0.2890 -0.6570  0.0320
   8023SM    OF10633   5.777   0.909  15.968 -0.3756 -0.1182  0.5872
   8023SM   C2F10634   5.897   1.110  15.911  0.0536  0.3901 -0.4292
   8023SM   H2F10635   5.931   1.155  16.006  1.6557 -0.7643 -0.4145
   8023SM   H2G10636   5.870   1.189  15.837  2.0425  0.3638 -1.2362
   8023SM   C3F10637   6.016   1.030  15.847 -0.2316 -0.1334 -0.0437
   8023SM   H3F10638   6.022   0.930  15.894  2.0610  0.0026  0.1132
   8023SM   H3G10639   6.112   1.085  15.865 -0.5220  0.0102  1.1422
   8023SM   C4F10640   6.001   1.009  15.691  0.1137 -0.9294 -0.0862
   8023SM   H4F10641   5.894   1.001  15.663  0.0688 -3.4316  0.5281
   8023SM   H4G10642   6.059   0.916  15.670 -1.7733 -1.7070 -2.1572
   8023SM   C5F10643   6.074   1.113  15.598  0.7576 -0.1206 -0.2754
   8023SM   H5F10644   6.179   1.135  15.628  0.2954  1.0667  0.5323
   8023SM   H5G10645   6.018   1.208  15.603  0.2831 -0.4157  0.0815
   8023SM   C6F10646   6.079   1.073  15.452 -0.0991 -0.0036 -0.0250
   8023SM   H6F10647   5.972   1.059  15.428 -0.2248 -3.3015  1.9561
   8023SM   H6G10648   6.130   0.977  15.430 -1.5767 -0.6810 -0.5651
   8023SM   C7F10649   6.131   1.195  15.371  0.4580 -0.7833 -0.2404
   8023SM   H7F10650   6.230   1.222  15.413 -0.6358 -0.6737  2.4802
   8023SM   H7G10651   6.060   1.278  15.392  0.2784 -1.0411  0.1950
   8023SM   C8F10652   6.134   1.153  15.219 -0.1848  0.5235  0.0813
   8023SM   H8F10653   6.036   1.104  15.201 -0.2234 -0.0654  1.7065
   8023SM   H8G10654   6.223   1.093  15.190  0.0092  1.7250 -2.0504
   8023SM   C9F10655   6.147   1.279  15.128 -0.2851 -0.3727  0.1189
   8023SM   H9F10656   6.232   1.340  15.165 -0.8680  0.1911  0.5710
   8023SM   H9G10657   6.056   1.343  15.129  0.1899  0.3522  1.9532
   8023SM  C10F10658   6.169   1.243  14.988 -0.5324 -1.2809 -0.2701
   8023SM  H10F10659   6.080   1.183  14.958 -2.1102 -0.0197  1.6424
   8023SM  H10G10660   6.261   1.184  14.969  0.2595  0.0507 -0.6632
   8023SM  C11F10661   6.177   1.363  14.896 -0.2618  0.1908  1.0611
   8023SM  H11F10662   6.258   1.430  14.932  1.8671 -0.9143 -1.3764
   8023SM  H11G10663   6.089   1.431  14.890 -0.4574  0.0139  1.7475
   8023SM  C12F10664   6.221   1.332  14.752  0.0314  0.0749  0.5658
   8023SM  H12F10665   6.322   1.287  14.744  0.2876  0.8146 -0.6020
   8023SM  H12G10666   6.231   1.423  14.689  3.9531 -0.7294 -0.2270
   8023SM  C13F10667   6.118   1.245  14.691 -0.1133  0.3438  0.2287
   8023SM  H13F10668   6.015   1.276  14.719 -0.9146 -2.3669  0.6151
   8023SM  H13G10669   6.145   1.139  14.712 -1.4425  0.1326  0.9753
   8023SM  C14F10670   6.110   1.256  14.536 -0.4216  1.1753 -0.0098
   8023SM  H14F10671   6.092   1.364  14.522  0.9290  1.3992 -0.1573
   8023SM  H14G10672   6.021   1.203  14.494 -0.4313  0.3686  1.0066
   8023SM  C15F10673   6.234   1.221  14.447  0.1012 -0.0079 -0.0624
   8023SM  H15F10674   6.231   1.114  14.418 -0.2386  0.1085 -0.4509
   8023SM  H15G10675   6.327   1.241  14.506  0.1859  1.0896 -0.5395
   8023SM  C16F10676   6.235   1.312  14.321 -0.6246  0.6436  0.2037
   8023SM  H16F10677   6.243   1.415  14.362  1.2941 -0.0137  1.5750
   8023SM  H16G10678   6.146   1.293  14.257 -1.4250  0.1528  1.4266
   8023SM  C17F10679   6.367   1.294  14.245  0.3640  1.0054  0.2125
   8023SM  H17F10680   6.371   1.192  14.201 -1.9069  1.1666 -0.4934
   8023SM  H17G10681   6.446   1.299  14.323  0.1709 -3.1267  0.8886
   8023SM  C18F10682   6.385   1.386  14.131 -0.1153 -0.0462  0.4109
   8023SM  H18F10683   6.481   1.348  14.092  0.9121 -1.0190  3.5416
   8023SM  H18G10684   6.395   1.485  14.180  0.3069  0.3429 -0.4590
   8023SM  C19F10685   6.276   1.376  14.020  0.1936  0.0117 -0.0774
   8023SM  H19F10686   6.185   1.430  14.054  1.1487  1.4346  0.3118
   8023SM  H19G10687   6.246   1.269  14.009 -0.1557 -0.0690  1.4027
   8023SM  C20F10688   6.331   1.440  13.886 -0.4776  0.1234 -0.5708
   8023SM  H20F10689   6.250   1.436  13.810 -1.0034  2.7286 -0.2476
   8023SM  H20G10690   6.422   1.386  13.854  0.8761  2.2609 -0.4873
   8023SM  C21F10691   6.383   1.583  13.907 -0.2223 -0.8150 -0.4042
   8023SM  H21F10692   6.449   1.592  13.996 -1.1889 -2.3431  0.5140
   8023SM  H21G10693   6.297   1.645  13.939  0.5971 -0.9613  2.2859
   8023SM  C22F10694   6.441   1.641  13.783  0.1222  0.4557  0.0810
   8023SM  H22F10695   6.519   1.572  13.744 -0.2369 -0.7663  1.4249
   8023SM  H22G10696   6.500   1.732  13.808  0.4294  0.5179 -0.8325
   8023SM  C23F10697   6.343   1.675  13.667 -0.9338  1.6267 -0.1176
   8023SM  H23F10698   6.274   1.589  13.666 -0.6183  1.3696 -1.0217
   8023SM  H23G10699   6.392   1.675  13.567  0.2262  1.7369  0.4394
   8023SM  H23H10700   6.281   1.765  13.686  1.1122  2.9189  0.7740
   8123SM     N10701   2.206   5.499  11.118 -0.1114 -0.1215 -0.9756
   8123SM   C1510702   2.081   5.512  11.037 -0.3997 -0.0303 -0.1700
   8123SM  H15A10703   2.018   5.592  11.073  0.8989  0.7591  0.4772
   8123SM  H15B10704   2.031   5.418  11.022  1.8393 -1.0604 -1.6792
   8123SM  H15C10705   2.107   5.540  10.936 -2.6671 -0.2362 -0.8643
   8123SM   C1410706   2.279   5.628  11.143 -0.4144  0.4634 -0.4392
   8123SM  H14A10707   2.324   5.655  11.048 -1.2362  2.1757 -0.3948
   8123SM  H14B10708   2.355   5.613  11.219  0.2449 -0.2281 -1.2116
   8123SM  H14C10709   2.220   5.716  11.162 -0.2421  0.2811  1.0317
   8123SM   C1310710   2.149   5.446  11.253  0.2455  0.0515 -0.3180
   8123SM  H13A10711   2.235   5.408  11.306  0.4290  0.3736 -0.3899
   8123SM  H13B10712   2.081   5.362  11.242 -0.2723  0.4769 -0.3868
   8123SM  H13C10713   2.113   5.524  11.318 -0.5777 -0.9301  0.4592
   8123SM   C1210714   2.292   5.390  11.058 -0.0736  0.2246  0.5718
   8123SM  H12A10715   2.225   5.312  11.026 -1.0972  1.3743 -0.2033
   8123SM  H12B10716   2.360   5.350  11.131 -0.8474  0.7346  1.6061
   8123SM   C1110717   2.379   5.421  10.937  0.2677  0.6336 -0.0039
   8123SM  H11A10718   2.347   5.501  10.867  1.0605 -0.1193 -1.2608
   8123SM  H11B10719   2.398   5.340  10.864  1.3224  0.5492  0.3421
   8123SM     P10720   2.599   5.353  11.049  0.2275  0.0351  0.3033
   8123SM   O1310721   2.535   5.216  11.029  0.3489  0.0724  0.0968
   8123SM   O1410722   2.740   5.376  11.009 -0.6339  0.2704  0.0873
   8123SM   O1110723   2.583   5.392  11.205 -0.1312  0.5903 -0.1839
   8123SM   O1210724   2.509   5.461  10.989  0.3802  0.2601  0.5546
   8123SM   C1S10725   2.638   5.506  11.262  0.5149  0.2080 -0.3150
   8123SM   H1S10726   2.590   5.593  11.213  1.9144  1.7566  0.9189
   8123SM   H1T10727   2.749   5.504  11.267  0.6780 -0.6018 -2.8634
   8123SM    NF10728   2.609   5.640  11.465 -0.5044  0.2448  0.0615
   8123SM   HNF10729   2.679   5.654  11.535 -0.7630 -1.8831  0.8431
   8123SM   C2S10730   2.592   5.502  11.416 -0.2424 -0.1650  0.4652
   8123SM   H2S10731   2.484   5.477  11.420  0.0195 -1.5852 -0.7057
   8123SM   C3S10732   2.674   5.401  11.498  0.6000 -0.3341 -0.6742
   8123SM   H3S10733   2.773   5.437  11.533 -0.5947  1.9130  0.5918
   8123SM    O310734   2.694   5.278  11.435  0.0052 -0.0288  0.0310
   8123SM   HO310735   2.686   5.308  11.344 -0.0530 -2.1669 -0.7376
   8123SM   C4S10736   2.591   5.387  11.629  0.4813 -0.1023 -0.9499
   8123SM   H4S10737   2.507   5.319  11.606  2.1088 -1.4554 -3.3071
   8123SM   C5S10738   2.623   5.443  11.746  0.0398  0.0292 -0.4051
   8123SM   H5S10739   2.717   5.500  11.745 -0.5211  1.2688  3.2732
   8123SM   C6S10740   2.545   5.445  11.873  0.2774  0.3546 -0.0803
   8123SM   H6S10741   2.539   5.337  11.899 -1.4946 -0.0584 -1.9985
   8123SM   H6T10742   2.440   5.476  11.855 -0.0315 -1.0388 -0.7844
   8123SM   C7S10743   2.614   5.523  11.991 -0.6064 -0.0587 -0.1435
   8123SM   H7S10744   2.624   5.630  11.962  1.7588 -0.2705 -0.3278
   8123SM   H7T10745   2.722   5.497  11.999 -0.3524  0.9417 -0.1875
   8123SM   C8S10746   2.547   5.512  12.123  0.6660  0.6293 -0.2368
   8123SM   H8S10747   2.532   5.405  12.152 -0.3686  0.3999 -1.5203
   8123SM   H8T10748   2.447   5.558  12.108  0.3813  0.8773  2.1452
   8123SM   C9S10749   2.609   5.586  12.247  0.0670 -0.4024  0.1846
   8123SM   H9S10750   2.622   5.696  12.235  0.7392 -0.4947  0.0112
   8123SM   H9T10751   2.714   5.552  12.256  0.4345  0.4862 -0.5756
   8123SM  C10S10752   2.556   5.542  12.385  0.4828 -0.1514  0.1193
   8123SM  H10S10753   2.574   5.433  12.396  1.1605 -0.0264  0.2857
   8123SM  H10T10754   2.451   5.576  12.390  1.6234  3.8929 -0.0977
   8123SM  C11S10755   2.625   5.603  12.512 -0.6027  0.9040  0.5816
   8123SM  H11S10756   2.609   5.712  12.523  0.6786  0.9912  1.8761
   8123SM  H11T10757   2.734   5.580  12.508 -0.7668  0.2855 -1.3905
   8123SM  C12S10758   2.570   5.537  12.639  0.1322  0.3320  0.5011
   8123SM  H12S10759   2.605   5.431  12.636 -1.2761 -0.1382 -2.0015
   8123SM  H12T10760   2.459   5.537  12.637  0.0489  1.7156  2.4171
   8123SM  C13S10761   2.616   5.608  12.765 -0.1681 -0.5220 -0.3028
   8123SM  H13S10762   2.557   5.702  12.772 -1.1842 -1.2396  1.5538
   8123SM  H13T10763   2.721   5.641  12.772 -0.2476 -0.2187 -0.5211
   8123SM  C14S10764   2.577   5.524  12.886 -0.4606  0.2600  0.7838
   8123SM  H14S10765   2.633   5.428  12.884 -2.1732 -0.7973  1.1264
   8123SM  H14T10766   2.469   5.503  12.868  0.3306 -2.1401 -1.7642
   8123SM  C15S10767   2.600   5.599  13.013  0.0971 -0.1742  0.7332
   8123SM  H15S10768   2.550   5.698  13.009  0.3995  0.0366  1.7460
   8123SM  H15T10769   2.709   5.618  13.019 -0.1481  1.8738 -0.4987
   8123SM  C16S10770   2.554   5.528  13.141  0.2186 -0.3518 -0.0083
   8123SM  H16S10771   2.555   5.417  13.141 -0.7017 -0.4047  1.9486
   8123SM  H16T10772   2.446   5.555  13.149 -0.0928 -1.9192  1.8410
   8123SM  C17S10773   2.635   5.580  13.260  0.1001 -0.3252  1.2390
   8123SM  H17S10774   2.636   5.691  13.268 -2.6532 -0.2106  1.0116
   8123SM  H17T10775   2.736   5.540  13.238 -0.8318 -1.3599 -1.5954
   8123SM  C18S10776   2.579   5.526  13.396 -0.1341 -0.4095 -1.0043
   8123SM  H18S10777   2.562   5.418  13.374 -0.3507 -0.5726 -0.0564
   8123SM  H18T10778   2.486   5.584  13.413 -1.4262 -2.2906 -1.4018
   8123SM  H18U10779   2.656   5.546  13.474 -0.4031  0.7252 -1.0142
   8123SM   C1F10780   2.543   5.744  11.419  0.1084  0.2249  0.3105
   8123SM    OF10781   2.434   5.733  11.362 -0.1303  0.5582 -0.1647
   8123SM   C2F10782   2.607   5.880  11.429  0.7437  0.6177  0.1947
   8123SM   H2F10783   2.581   5.934  11.336  0.4653 -1.0445 -0.7262
   8123SM   H2G10784   2.718   5.884  11.436  0.8703 -1.1362 -0.4258
   8123SM   C3F10785   2.539   5.959  11.545 -0.2678 -0.0425 -0.3103
   8123SM   H3F10786   2.429   5.947  11.535 -0.3357  0.3180 -0.0040
   8123SM   H3G10787   2.571   6.065  11.534 -0.9983  0.1037 -1.0582
   8123SM   C4F10788   2.581   5.916  11.690 -0.5367  0.2780  0.4077
   8123SM   H4F10789   2.685   5.951  11.707  1.2011 -2.6172 -2.9394
   8123SM   H4G10790   2.586   5.805  11.694  0.8270  0.1701 -2.2396
   8123SM   C5F10791   2.474   5.964  11.783 -0.5836  0.4323 -0.1762
   8123SM   H5F10792   2.379   5.914  11.756 -0.4113 -0.9815  1.6633
   8123SM   H5G10793   2.469   6.075  11.774 -0.5355  0.5543  1.1607
   8123SM   C6F10794   2.506   5.926  11.928  0.1654  0.0060  0.5312
   8123SM   H6F10795   2.592   5.983  11.971  1.7038 -0.7919 -1.3470
   8123SM   H6G10796   2.518   5.818  11.947  0.4085  0.1336  1.1439
   8123SM   C7F10797   2.405   5.977  12.030 -0.1054  0.1328 -0.3760
   8123SM   H7F10798   2.309   5.924  12.009  0.2246  0.1308 -2.0449
   8123SM   H7G10799   2.391   6.087  12.023  0.1985  0.2581  0.7819
   8123SM   C8F10800   2.452   5.945  12.173  0.3782 -0.6101  0.0842
   8123SM   H8F10801   2.552   5.991  12.191 -1.9564  4.2280  2.3909
   8123SM   H8G10802   2.442   5.835  12.180 -2.4347 -0.4835 -0.6836
   8123SM   C9F10803   2.357   5.987  12.292 -0.1445  0.0176 -0.4215
   8123SM   H9F10804   2.253   5.954  12.270 -0.1826  0.1020 -0.3693
   8123SM   H9G10805   2.368   6.096  12.311  0.3571  0.0887 -1.0969
   8123SM  C10F10806   2.398   5.924  12.433 -0.0655  0.6373  0.2135
   8123SM  H10F10807   2.507   5.936  12.451 -0.0368 -0.4328  0.8701
   8123SM  H10G10808   2.357   5.822  12.416 -0.9315  1.0911 -0.5337
   8123SM  C11F10809   2.323   5.980  12.558  0.3747  0.6317  0.3336
   8123SM  H11F10810   2.215   5.956  12.548  0.6488 -0.6190  0.1953
   8123SM  H11G10811   2.334   6.088  12.580 -0.7852  0.3933  2.3709
   8123SM  C12F10812   2.368   5.917  12.688  0.4223  0.7461 -0.3497
   8123SM  H12F10813   2.473   5.936  12.717  0.7725 -1.3763 -0.0311
   8123SM  H12G10814   2.357   5.807  12.676 -2.9987  0.8482  0.7331
   8123SM  C13F10815   2.280   5.950  12.812 -1.0006 -0.4762  0.2441
   8123SM  H13F10816   2.173   5.932  12.791 -0.8095  1.8980 -3.7058
   8123SM  H13G10817   2.285   6.060  12.830  2.5637 -0.5811  0.5587
   8123SM  C14F10818   2.332   5.872  12.935 -0.5900 -0.6506  1.1152
   8123SM  H14F10819   2.442   5.887  12.944 -0.2842  1.2962 -3.0950
   8123SM  H14G10820   2.305   5.769  12.904 -0.7040 -0.4454  0.5104
   8123SM  C15F10821   2.252   5.902  13.063 -0.5928 -0.2513 -0.2976
   8123SM  H15F10822   2.143   5.900  13.043 -0.4545  0.4810 -1.1938
   8123SM  H15G10823   2.279   6.007  13.087 -0.4640 -0.2230 -0.5559
   8123SM  C16F10824   2.276   5.802  13.183 -0.3455  0.0197  0.7082
   8123SM  H16F10825   2.378   5.817  13.224  0.3673 -1.5217 -0.4112
   8123SM  H16G10826   2.260   5.696  13.156 -2.8347  0.5442 -0.2417
   8123SM  C17F10827   2.172   5.820  13.295  0.3735  0.3999  0.5469
   8123SM  H17F10828   2.073   5.778  13.268  0.0684  1.9890 -1.0203
   8123SM  H17G10829   2.155   5.926  13.324 -4.7503  0.3763 -1.3933
   8123SM  C18F10830   2.213   5.755  13.431 -0.1416 -0.7150  0.7497
   8123SM  H18F10831   2.298   5.820  13.463 -0.4088  0.7341 -1.3219
   8123SM  H18G10832   2.228   5.645  13.424 -2.1470 -0.9934  0.0764
   8123SM  C19F10833   2.106   5.763  13.539 -0.1618  0.0093 -0.4603
   8123SM  H19F10834   2.019   5.698  13.513 -0.7598  0.0350  1.3648
   8123SM  H19G10835   2.066   5.866  13.546 -1.6770 -0.4846 -1.1316
   8123SM  C20F10836   2.156   5.718  13.680 -0.7827 -0.2972 -0.0347
   8123SM  H20F10837   2.212   5.625  13.659 -1.5743 -0.4081 -1.8346
   8123SM  H20G10838   2.069   5.698  13.747 -0.7509  1.4654  0.6002
   8123SM  C21F10839   2.237   5.826  13.756 -0.4727  0.3488 -0.3151
   8123SM  H21F10840   2.331   5.846  13.702 -1.8977  1.1829 -2.6320
   8123SM  H21G10841   2.256   5.782  13.857 -2.4482  0.7167  0.2717
   8123SM  C22F10842   2.175   5.961  13.774  0.2360 -0.9500 -0.8157
   8123SM  H22F10843   2.184   6.003  13.877  0.0841 -0.9540 -0.7996
   8123SM  H22G10844   2.066   5.953  13.756 -0.0983 -1.3265  1.1370
   8123SM  C23F10845   2.224   6.068  13.675  1.0664 -0.5462 -0.2454
   8123SM  H23F10846   2.332   6.089  13.690  0.5599  2.0609  0.0459
   8123SM  H23G10847   2.170   6.163  13.691 -0.2007 -1.4343  1.0441
   8123SM  H23H10848   2.204   6.034  13.571  2.5320 -0.2135 -0.6674
   8223SM     N10849   2.228   6.341  10.945 -0.3552 -0.2797 -1.1877
   8223SM   C1510850   2.121   6.303  11.045 -0.5636  0.4291  0.3770
   8223SM  H15A10851   2.124   6.196  11.062 -0.8514  0.1584 -1.1352
   8223SM  H15B10852   2.025   6.330  11.004  0.1854  1.2045 -0.9139
   8223SM  H15C10853   2.131   6.359  11.136  1.1198  0.6849  0.0666
   8223SM   C1410854   2.224   6.245  10.832  0.0092 -0.8006  0.3148
   8223SM  H14A10855   2.128   6.226  10.786  1.1449 -0.2374 -2.5528
   8223SM  H14B10856   2.260   6.146  10.855  0.0666 -0.2248  3.0978
   8223SM  H14C10857   2.278   6.303  10.758 -0.3772  0.2207  0.8064
   8223SM   C1310858   2.200   6.481  10.893 -0.2268  0.5662 -0.0206
   8223SM  H13A10859   2.217   6.544  10.979  1.6522 -1.0716  0.8909
   8223SM  H13B10860   2.100   6.485  10.854 -0.8634 -0.3047  1.4366
   8223SM  H13C10861   2.270   6.510  10.816 -0.7526  1.6735 -0.1052
   8223SM   C1210862   2.378   6.341  10.996 -0.2637  0.1426 -0.5692
   8223SM  H12A10863   2.432   6.421  10.948  0.6041  0.4060  0.7928
   8223SM  H12B10864   2.432   6.249  10.978  0.0323  0.1028  0.4216
   8223SM   C1110865   2.393   6.364  11.150 -0.0185  0.0177 -0.4856
   8223SM  H11A10866   2.501   6.362  11.174  0.2773  0.0383 -1.7531
   8223SM  H11B10867   2.340   6.284  11.206  1.4509 -2.1614 -2.0125
   8223SM     P10868   2.422   6.621  11.201  0.3129  0.3144 -0.0394
   8223SM   O1310869   2.517   6.636  11.089 -0.3278  0.1578  0.0652
   8223SM   O1410870   2.317   6.725  11.215  0.2166  1.2380  0.0969
   8223SM   O1110871   2.504   6.612  11.337 -0.3982  0.0264  0.4101
   8223SM   O1210872   2.334   6.488  11.192 -0.3663 -0.3968  0.2700
   8223SM   C1S10873   2.461   6.549  11.455  0.3725  0.0065 -0.1611
   8223SM   H1S10874   2.352   6.527  11.459  0.6680 -1.5442  0.1743
   8223SM   H1T10875   2.486   6.609  11.545  2.2812 -1.8916  0.6631
   8223SM    NF10876   2.483   6.344  11.607  0.3391  0.1769 -0.2569
   8223SM   HNF10877   2.540   6.343  11.688  0.6879 -1.1027 -0.4935
   8223SM   C2S10878   2.534   6.410  11.489 -0.2938 -0.3273  0.5900
   8223SM   H2S10879   2.507   6.351  11.399 -1.0612  0.9737 -0.0507
   8223SM   C3S10880   2.689   6.425  11.497 -0.1974 -0.1734  0.7808
   8223SM   H3S10881   2.715   6.478  11.592  0.8028  0.5137  0.1461
   8223SM    O310882   2.750   6.510  11.400 -0.1757  0.1931  0.0351
   8223SM   HO310883   2.675   6.560  11.369 -0.4006  0.5337  1.0804
   8223SM   C4S10884   2.750   6.284  11.499  0.3580  0.2438  0.7647
   8223SM   H4S10885   2.728   6.226  11.409 -0.0632  0.1767  0.9055
   8223SM   C5S10886   2.843   6.246  11.588  0.4896 -0.1926 -0.2611
   8223SM   H5S10887   2.872   6.316  11.668 -0.5092  0.5992 -0.5714
   8223SM   C6S10888   2.925   6.120  11.574  0.1957 -0.5847 -0.1975
   8223SM   H6S10889   2.885   6.057  11.491  2.7869 -1.8982 -0.5858
   8223SM   H6T10890   2.911   6.064  11.669 -1.4815  2.1843  1.3158
   8223SM   C7S10891   3.078   6.154  11.540  0.7333  0.6757  0.4798
   8223SM   H7S10892   3.081   6.221  11.451  0.7917  1.3723  0.9951
   8223SM   H7T10893   3.122   6.053  11.533  0.5600  0.6928 -1.2820
   8223SM   C8S10894   3.138   6.241  11.660 -0.1978  0.1572 -0.0573
   8223SM   H8S10895   3.099   6.345  11.662 -1.5308 -0.2818 -1.3386
   8223SM   H8T10896   3.246   6.250  11.633  0.8869 -0.8052  3.4728
   8223SM   C9S10897   3.129   6.162  11.796 -0.4495  0.4494  0.1186
   8223SM   H9S10898   3.156   6.055  11.783 -2.6713 -0.0759 -0.6742
   8223SM   H9T10899   3.020   6.162  11.820 -0.3753 -2.3006  0.7826
   8223SM  C10S10900   3.205   6.221  11.914  0.3678 -0.1657 -0.4208
   8223SM  H10S10901   3.182   6.330  11.916  1.9593  0.2116 -0.8746
   8223SM  H10T10902   3.315   6.222  11.895 -0.0435 -1.3198 -3.2521
   8223SM  C11S10903   3.169   6.159  12.052 -0.0345 -0.2062 -0.3684
   8223SM  H11S10904   3.169   6.048  12.057  0.4364 -0.1699  2.2705
   8223SM  H11T10905   3.068   6.197  12.077  0.2725 -0.0456  0.6861
   8223SM  C12S10906   3.269   6.210  12.167 -0.0419  0.0535  0.5568
   8223SM  H12S10907   3.284   6.320  12.173  0.7528  0.0427 -0.8797
   8223SM  H12T10908   3.367   6.170  12.132  1.2181  3.1580  0.2365
   8223SM  C13S10909   3.228   6.153  12.303 -1.2343  0.2481  0.1472
   8223SM  H13S10910   3.254   6.045  12.307 -0.4256  0.4266 -0.1453
   8223SM  H13T10911   3.118   6.163  12.318 -1.0292  0.5829  1.6542
   8223SM  C14S10912   3.303   6.235  12.413 -0.3588 -0.1035  0.3243
   8223SM  H14S10913   3.304   6.343  12.386  0.6743  0.1604  1.3459
   8223SM  H14T10914   3.408   6.199  12.419  0.5131  2.4629  2.1659
   8223SM  C15S10915   3.239   6.216  12.556  0.3634  0.5142  0.7067
   8223SM  H15S10916   3.183   6.120  12.559 -1.0598  1.2828 -0.2428
   8223SM  H15T10917   3.154   6.288  12.557 -0.3704 -0.2143 -1.7236
   8223SM  C16S10918   3.341   6.256  12.666  0.3556 -0.3288  0.9150
   8223SM  H16S10919   3.334   6.365  12.685  0.6625 -0.4414  1.7230
   8223SM  H16T10920   3.443   6.229  12.633  0.2281 -1.1375  1.1554
   8223SM  C17S10921   3.307   6.195  12.807  0.1591 -0.2555  0.4789
   8223SM  H17S10922   3.362   6.253  12.884 -0.3272  2.7676 -1.2648
   8223SM  H17T10923   3.340   6.090  12.793  1.2034  0.3098 -1.7864
   8223SM  C18S10924   3.163   6.212  12.848  0.2814 -0.0179  0.9648
   8223SM  H18S10925   3.106   6.143  12.782 -0.4656  2.3295 -1.0193
   8223SM  H18T10926   3.132   6.317  12.827  0.1095 -0.5831 -2.2528
   8223SM  H18U10927   3.151   6.189  12.956 -0.7827  1.0270  1.0882
   8223SM   C1F10928   2.363   6.304  11.621  0.0477  0.1973 -0.5460
   8223SM    OF10929   2.294   6.262  11.530 -0.1927 -0.5067 -0.0620
   8223SM   C2F10930   2.301   6.307  11.762 -0.1092  0.6959  0.6462
   8223SM   H2F10931   2.289   6.411  11.797 -1.8950  0.3920  1.0527
   8223SM   H2G10932   2.373   6.260  11.833 -0.2426 -1.6455 -0.6396
   8223SM   C3F10933   2.169   6.233  11.789 -0.3195  0.1751 -0.2172
   8223SM   H3F10934   2.169   6.131  11.747 -0.7653  0.5232 -1.0753
   8223SM   H3G10935   2.088   6.284  11.733 -0.5531 -1.2730 -1.2287
   8223SM   C4F10936   2.123   6.223  11.938 -1.0880 -0.1601  0.3019
   8223SM   H4F10937   2.211   6.163  11.972 -0.4851  1.8116  2.4817
   8223SM   H4G10938   2.028   6.166  11.949 -1.6511  1.0093  1.7988
   8223SM   C5F10939   2.104   6.356  12.003  0.1827 -0.0126 -0.2395
   8223SM   H5F10940   2.004   6.395  11.973  0.6301  0.2042 -1.5258
   8223SM   H5G10941   2.170   6.439  11.970  0.8909  0.9628  3.2952
   8223SM   C6F10942   2.117   6.346  12.153 -0.2546 -0.3480  0.6992
   8223SM   H6F10943   2.092   6.448  12.190 -0.5203 -1.0764  2.6624
   8223SM   H6G10944   2.225   6.324  12.166 -0.4547 -0.5342  2.1636
   8223SM   C7F10945   2.046   6.228  12.217 -0.4317  0.5096  0.1540
   8223SM   H7F10946   2.096   6.133  12.188 -0.8186  0.5409 -0.6214
   8223SM   H7G10947   1.940   6.223  12.186 -0.4956 -0.8448  0.5136
   8223SM   C8F10948   2.054   6.239  12.371 -0.1037  0.1005  0.0211
   8223SM   H8F10949   2.031   6.346  12.387 -1.2909 -0.1944  0.3782
   8223SM   H8G10950   2.156   6.218  12.411  0.3553 -3.0920 -2.4142
   8223SM   C9F10951   1.954   6.153  12.441  0.0710  0.9236 -0.5159
   8223SM   H9F10952   1.979   6.047  12.419 -0.0945  0.8946 -0.5714
   8223SM   H9G10953   1.854   6.173  12.397  0.2598  0.8803 -0.9711
   8223SM  C10F10954   1.949   6.169  12.591  0.2353 -0.2555 -0.3912
   8223SM  H10F10955   1.907   6.268  12.621 -0.0565 -0.1730 -1.0650
   8223SM  H10G10956   2.056   6.165  12.623 -0.3037 -1.5552  1.4258
   8223SM  C11F10957   1.871   6.062  12.659 -0.4395 -1.2195  1.1138
   8223SM  H11F10958   1.896   5.966  12.607  0.6771  0.2406 -1.2236
   8223SM  H11G10959   1.762   6.072  12.643 -0.2265 -1.8359 -1.1058
   8223SM  C12F10960   1.877   6.060  12.811 -0.0383  0.2254 -0.1214
   8223SM  H12F10961   1.847   6.157  12.857  1.0820 -0.2911  1.8067
   8223SM  H12G10962   1.984   6.041  12.834 -0.6426 -3.6100  0.1828
   8223SM  C13F10963   1.795   5.949  12.876  0.6085 -0.4581 -0.6805
   8223SM  H13F10964   1.844   5.850  12.864 -1.3755 -1.3896 -1.3343
   8223SM  H13G10965   1.692   5.944  12.837  1.1019 -1.6573 -1.9177
   8223SM  C14F10966   1.771   5.966  13.031 -0.3411  0.0402 -0.4871
   8223SM  H14F10967   1.706   6.055  13.047 -0.6825 -0.3178  0.1803
   8223SM  H14G10968   1.869   5.983  13.082  0.1260 -1.4106 -0.8369
   8223SM  C15F10969   1.718   5.840  13.098 -0.0116 -0.1229  0.4022
   8223SM  H15F10970   1.808   5.778  13.085  0.3011  0.0448  1.6460
   8223SM  H15G10971   1.635   5.797  13.039  1.1096 -0.4326 -0.9916
   8223SM  C16F10972   1.710   5.843  13.252 -0.2923 -0.2114 -0.4944
   8223SM  H16F10973   1.683   5.942  13.296 -0.5625 -1.1594  1.5904
   8223SM  H16G10974   1.812   5.821  13.289 -1.3622 -2.1075  1.5448
   8223SM  C17F10975   1.622   5.740  13.314  0.2141 -0.0671  0.6161
   8223SM  H17F10976   1.623   5.648  13.252  1.6549  1.4277 -1.7500
   8223SM  H17G10977   1.521   5.786  13.306  0.0388 -0.0914  2.4698
   8223SM  C18F10978   1.647   5.708  13.462 -0.1244  0.2448  0.2851
   8223SM  H18F10979   1.631   5.803  13.518  1.8207  0.6210  0.2610
   8223SM  H18G10980   1.751   5.675  13.481 -0.5252 -1.2087  0.0297
   8223SM  C19F10981   1.561   5.595  13.516  0.1472  0.6148 -0.2980
   8223SM  H19F10982   1.581   5.505  13.454 -0.2661  1.8805 -2.3755
   8223SM  H19G10983   1.454   5.619  13.495 -0.0979  0.3960  0.6726
   8223SM  C20F10984   1.596   5.572  13.663 -0.1201  0.7887  0.2866
   8223SM  H20F10985   1.581   5.670  13.714  0.6883  0.1480  1.8176
   8223SM  H20G10986   1.704   5.547  13.668 -0.0290  0.8940 -0.9032
   8223SM  C21F10987   1.521   5.467  13.740  0.3712  0.1723 -0.3709
   8223SM  H21F10988   1.560   5.369  13.705  0.2553  0.8329 -2.4743
   8223SM  H21G10989   1.411   5.476  13.724  0.3188  2.4686  0.8076
   8223SM  C22F10990   1.548   5.474  13.889 -0.2915  0.6009 -0.7662
   8223SM  H22F10991   1.510   5.563  13.943 -1.0816 -1.1040  1.6820
   8223SM  H22G10992   1.659   5.475  13.899 -0.3323  1.8014 -0.2705
   8223SM  C23F10993   1.486   5.354  13.963  0.6094  0.1550 -0.0260
   8223SM  H23F10994   1.377   5.337  13.949  0.4526 -0.9333  2.1168
   8223SM  H23G10995   1.511   5.350  14.071 -0.3459 -1.5068  0.1599
   8223SM  H23H10996   1.526   5.260  13.921 -1.8882 -2.0137  2.1088
   8323SM     N10997   3.241   5.615  10.957  0.8803 -0.2223  0.3901
   8323SM   C1510998   3.184   5.514  10.856 -0.0743 -0.1448  0.0162
   8323SM  H15A10999   3.188   5.544  10.753  0.7567  1.1018  0.3803
   8323SM  H15B11000   3.079   5.500  10.879  0.0160 -0.5278  0.1894
   8323SM  H15C11001   3.229   5.417  10.867 -0.7218 -0.3228  1.3538
   8323SM   C1411002   3.387   5.610  10.959 -0.0957  0.3340  0.0950
   8323SM  H14A11003   3.425   5.516  10.998  2.1222  1.0159 -0.2852
   8323SM  H14B11004   3.431   5.685  11.023 -0.8732  1.6203 -0.8364
   8323SM  H14C11005   3.412   5.627  10.855 -1.0122  0.3137 -0.1344
   8323SM   C1311006   3.185   5.745  10.907 -0.3533  0.3941  0.1282
   8323SM  H13A11007   3.173   5.751  10.800  2.6254  1.4178 -0.2403
   8323SM  H13B11008   3.244   5.824  10.949  0.7518 -0.9598  1.2118
   8323SM  H13C11009   3.084   5.749  10.945  0.4434 -0.3246  2.5402
   8323SM   C1211010   3.185   5.583  11.097 -0.5822 -0.1520 -0.0331
   8323SM  H12A11011   3.240   5.651  11.161 -2.2386 -0.9608  2.3956
   8323SM  H12B11012   3.205   5.479  11.118 -0.1866 -0.6974 -2.7270
   8323SM   C1111013   3.038   5.613  11.127  0.0532 -0.6284  0.6803
   8323SM  H11A11014   2.998   5.569  11.221 -0.4465 -0.9637  0.3188
   8323SM  H11B11015   2.972   5.574  11.046  1.8835  0.1150 -1.2724
   8323SM     P11016   3.043   5.832  11.268  0.6935  0.6596  0.4661
   8323SM   O1311017   3.189   5.860  11.280  0.5401 -0.1796 -0.2291
   8323SM   O1411018   2.955   5.949  11.272 -0.4796 -0.0072 -0.3573
   8323SM   O1111019   2.996   5.731  11.378  0.0787 -0.0691  0.2598
   8323SM   O1211020   3.013   5.754  11.132 -0.3868 -0.6304  0.0243
   8323SM   C1S11021   3.081   5.634  11.446  0.0848 -0.6078 -0.1294
   8323SM   H1S11022   3.185   5.635  11.407 -0.0893  0.2087 -0.5809
   8323SM   H1T11023   3.034   5.535  11.426  1.1791 -1.1374 -0.1955
   8323SM    NF11024   3.215   5.618  11.651  0.7385  0.0972 -0.0131
   8323SM   HNF11025   3.200   5.537  11.706 -0.1498  0.4743  0.3275
   8323SM   C2S11026   3.089   5.679  11.595 -0.2741  0.5158  0.8369
   8323SM   H2S11027   3.105   5.789  11.598 -0.7093  0.5925  0.2912
   8323SM   C3S11028   2.967   5.641  11.671 -0.3255 -0.2134 -0.0595
   8323SM   H3S11029   2.948   5.532  11.675 -1.2643 -0.0691 -0.3602
   8323SM    O311030   2.849   5.699  11.620 -0.3330  0.2843 -0.5082
   8323SM   HO311031   2.880   5.762  11.554  0.4630  0.7989  0.3139
   8323SM   C4S11032   2.985   5.666  11.822  0.5378 -0.2330  0.6858
   8323SM   H4S11033   3.035   5.583  11.873  0.2816 -1.7635 -1.4204
   8323SM   C5S11034   2.957   5.780  11.890 -0.8351  0.3214  0.4067
   8323SM   H5S11035   2.933   5.871  11.832 -0.4749  0.3431  0.2895
   8323SM   C6S11036   2.971   5.800  12.041 -0.2677 -0.3832  0.5997
   8323SM   H6S11037   3.035   5.887  12.067 -1.6311  0.6355  0.6349
   8323SM   H6T11038   3.015   5.705  12.081  0.2429 -0.7240 -0.7079
   8323SM   C7S11039   2.843   5.840  12.105  0.6327 -0.2266 -1.0148
   8323SM   H7S11040   2.765   5.762  12.103 -0.8608  1.0913  1.4052
   8323SM   H7T11041   2.802   5.929  12.053  0.4799  0.0908 -0.3644
   8323SM   C8S11042   2.847   5.890  12.256 -0.7329  0.2495 -0.1840
   8323SM   H8S11043   2.749   5.927  12.293 -0.8384  0.4682 -0.6662
   8323SM   H8T11044   2.908   5.983  12.243  0.1017 -0.2894 -0.2182
   8323SM   C9S11045   2.917   5.803  12.353 -0.3971 -0.7487 -0.1123
   8323SM   H9S11046   3.007   5.753  12.311 -0.0981 -0.1132 -0.2266
   8323SM   H9T11047   2.842   5.726  12.383 -0.3615 -1.8146 -2.5757
   8323SM  C10S11048   2.955   5.881  12.481 -0.2763 -0.3772  0.0831
   8323SM  H10S11049   2.880   5.962  12.489  0.2988  0.4854 -2.4177
   8323SM  H10T11050   3.054   5.931  12.471 -0.6704  1.0060  2.4588
   8323SM  C11S11051   2.967   5.789  12.603  0.1655 -0.3319  0.2497
   8323SM  H11S11052   3.046   5.713  12.587 -0.4534 -0.8345 -0.5039
   8323SM  H11T11053   2.877   5.726  12.623  0.1108 -0.4680 -0.4076
   8323SM  C12S11054   3.010   5.865  12.729  0.4376  0.5336  0.4908
   8323SM  H12S11055   2.943   5.953  12.725  0.7688  0.8426  1.4431
   8323SM  H12T11056   3.116   5.899  12.728  0.7569 -0.3768 -1.1848
   8323SM  C13S11057   2.974   5.795  12.857  0.6108  0.7040 -0.4190
   8323SM  H13S11058   3.040   5.709  12.880  0.1107  0.5499  0.4917
   8323SM  H13T11059   2.872   5.751  12.855  1.3532 -1.1329  0.0144
   8323SM  C14S11060   3.002   5.892  12.974 -0.0189  0.2106  0.1234
   8323SM  H14S11061   2.951   5.990  12.962  2.6392  1.4740 -1.8654
   8323SM  H14T11062   3.112   5.906  12.970  0.2468 -1.1564  1.7152
   8323SM  C15S11063   2.961   5.840  13.115 -0.3654 -0.3829 -0.0900
   8323SM  H15S11064   2.869   5.780  13.100 -0.6453  0.4081 -1.7092
   8323SM  H15T11065   2.932   5.922  13.184 -0.7947 -0.5334 -0.0894
   8323SM  C16S11066   3.076   5.763  13.187 -0.3840 -0.1809  0.3238
   8323SM  H16S11067   3.153   5.839  13.209 -0.7529 -0.3901  2.5434
   8323SM  H16T11068   3.121   5.688  13.118 -1.6979  0.5291 -1.3879
   8323SM  C17S11069   3.023   5.713  13.314 -0.3253  0.4247 -0.5635
   8323SM  H17S11070   2.963   5.622  13.296 -1.3866  1.0478 -0.2796
   8323SM  H17T11071   2.941   5.779  13.349 -0.8878 -1.2959  1.6356
   8323SM  C18S11072   3.119   5.683  13.426  0.7681  0.5332  0.5347
   8323SM  H18S11073   3.214   5.645  13.381  1.1112  1.8221  0.1225
   8323SM  H18T11074   3.081   5.604  13.493 -0.3566  1.2849  0.8021
   8323SM  H18U11075   3.133   5.779  13.481  2.2848 -0.4508  1.9646
   8323SM   C1F11076   3.334   5.665  11.623  0.0999 -0.3932 -0.0753
   8323SM    OF11077   3.345   5.761  11.548  0.0385  0.4405 -0.1349
   8323SM   C2F11078   3.442   5.607  11.696  0.6741 -0.1833 -0.4585
   8323SM   H2F11079   3.536   5.620  11.637  0.0187  0.2526 -1.4366
   8323SM   H2G11080   3.433   5.497  11.708 -1.5229 -0.1542 -1.3398
   8323SM   C3F11081   3.458   5.663  11.836  0.4317 -0.1796  0.4627
   8323SM   H3F11082   3.549   5.615  11.879  0.0923 -0.1606  1.2252
   8323SM   H3G11083   3.373   5.631  11.901 -0.5421  1.2551 -0.0548
   8323SM   C4F11084   3.462   5.819  11.848  0.5319  0.1306 -0.6748
   8323SM   H4F11085   3.362   5.865  11.831  0.2389  1.0705  2.8339
   8323SM   H4G11086   3.537   5.866  11.780  1.7063  1.8473  1.6481
   8323SM   C5F11087   3.512   5.858  11.989  0.2840  0.5206 -0.0130
   8323SM   H5F11088   3.498   5.968  12.000 -0.6909  0.6068 -1.8430
   8323SM   H5G11089   3.622   5.843  11.998  0.2838 -1.0825 -2.0346
   8323SM   C6F11090   3.441   5.786  12.110  0.4481 -0.5033 -0.3305
   8323SM   H6F11091   3.468   5.680  12.095  2.5054 -0.1916  0.7714
   8323SM   H6G11092   3.331   5.792  12.098  0.3239 -0.4389  0.7784
   8323SM   C7F11093   3.498   5.839  12.238 -0.1264  0.3449 -0.1848
   8323SM   H7F11094   3.506   5.949  12.241  1.7701  0.2274  2.0183
   8323SM   H7G11095   3.602   5.799  12.239 -0.2866 -0.5839 -4.1248
   8323SM   C8F11096   3.425   5.784  12.363 -1.0345 -0.4222 -0.2455
   8323SM   H8F11097   3.416   5.674  12.352  4.2999 -1.2842  0.9618
   8323SM   H8G11098   3.328   5.837  12.357 -0.7444  0.0251 -1.5602
   8323SM   C9F11099   3.495   5.801  12.502  0.1859 -0.6144  0.0193
   8323SM   H9F11100   3.501   5.910  12.522  1.8607 -0.8768  1.1598
   8323SM   H9G11101   3.595   5.753  12.496  0.2479 -0.4565 -0.1780
   8323SM  C10F11102   3.431   5.732  12.631  0.4601  0.1488  0.7850
   8323SM  H10F11103   3.439   5.621  12.624  2.8854  0.3347  0.0034
   8323SM  H10G11104   3.324   5.763  12.634  0.7122  0.9840  1.7958
   8323SM  C11F11105   3.500   5.769  12.757 -0.3391 -0.0238 -0.0325
   8323SM  H11F11106   3.519   5.879  12.756  0.0520 -0.0906  0.0817
   8323SM  H11G11107   3.599   5.720  12.750 -0.1724  0.5345 -2.1809
   8323SM  C12F11108   3.434   5.716  12.879  0.2637  0.5723 -0.8864
   8323SM  H12F11109   3.396   5.616  12.850 -0.1612  0.9134 -1.5598
   8323SM  H12G11110   3.339   5.763  12.915 -0.6969 -1.3096 -0.8415
   8323SM  C13F11111   3.524   5.710  13.000 -0.1729  0.0198 -0.3137
   8323SM  H13F11112   3.546   5.815  13.028 -1.3379 -0.0937  1.1235
   8323SM  H13G11113   3.619   5.658  12.976  0.6122  0.5044  1.5963
   8323SM  C14F11114   3.462   5.649  13.121 -0.1049 -0.0030 -0.1957
   8323SM  H14F11115   3.403   5.558  13.099  0.8200 -0.8760  0.7859
   8323SM  H14G11116   3.393   5.711  13.182  1.8212  0.2041  1.9303
   8323SM  C15F11117   3.563   5.598  13.218 -0.2252  0.6338 -0.1339
   8323SM  H15F11118   3.624   5.679  13.260  2.5931 -0.5662 -1.6512
   8323SM  H15G11119   3.634   5.527  13.169  2.3105  2.8421  0.1449
   8323SM  C16F11120   3.498   5.518  13.336  0.1326  0.0365  0.1630
   8323SM  H16F11121   3.428   5.443  13.291  0.5566 -0.5329  0.4402
   8323SM  H16G11122   3.432   5.586  13.394 -1.2979 -1.4476  0.3341
   8323SM  C17F11123   3.603   5.446  13.428  0.2460  0.6851 -0.0425
   8323SM  H17F11124   3.699   5.501  13.413  1.2748 -0.7924  0.8482
   8323SM  H17G11125   3.621   5.343  13.391  0.3984  0.3730  0.8900
   8323SM  C18F11126   3.567   5.436  13.579  0.0874 -0.7079  1.4172
   8323SM  H18F11127   3.466   5.394  13.599 -1.2591  1.3731 -0.4592
   8323SM  H18G11128   3.560   5.539  13.620 -0.4541  0.2024 -0.7884
   8323SM  C19F11129   3.654   5.344  13.666 -0.1320  0.5719  0.3551
   8323SM  H19F11130   3.748   5.398  13.688 -0.0546  0.7579 -0.4009
   8323SM  H19G11131   3.680   5.247  13.620  3.0829  0.7190  1.6437
   8323SM  C20F11132   3.598   5.304  13.805  0.7364  0.4000 -0.0926
   8323SM  H20F11133   3.671   5.231  13.846  2.5496  1.0450 -1.9795
   8323SM  H20G11134   3.501   5.249  13.806  0.7540  0.3742  0.7273
   8323SM  C21F11135   3.572   5.420  13.896 -0.0770  0.0037  0.6316
   8323SM  H21F11136   3.484   5.476  13.859  0.0808  1.1601  1.9481
   8323SM  H21G11137   3.662   5.482  13.915 -0.2035 -0.2295  2.0829
   8323SM  C22F11138   3.533   5.380  14.040 -0.2370 -0.0702  0.0600
   8323SM  H22F11139   3.440   5.320  14.040 -0.7005  0.6215 -1.0707
   8323SM  H22G11140   3.500   5.471  14.095 -0.1042 -0.0320  0.0762
   8323SM  C23F11141   3.648   5.304  14.114 -0.4035 -0.1400  0.6896
   8323SM  H23F11142   3.666   5.206  14.066 -0.9687  0.1455 -0.1335
   8323SM  H23G11143   3.615   5.288  14.219  0.8879  2.4189  1.5774
   8323SM  H23H11144   3.748   5.352  14.108 -0.6955  0.4655  0.5507
   8423SM     N11145   3.282   4.068  11.115  0.4394  0.5642 -0.1038
   8423SM   C1511146   3.235   3.937  11.067  0.1130 -0.1054 -0.8085
   8423SM  H15A11147   3.174   3.896  11.146  1.2117  1.6357  1.0322
   8423SM  H15B11148   3.322   3.875  11.052 -0.7557 -2.0502  1.5550
   8423SM  H15C11149   3.172   3.938  10.979 -0.3048  2.4565 -0.5401
   8423SM   C1411150   3.362   4.139  11.011  0.1066  0.2374 -0.2030
   8423SM  H14A11151   3.450   4.081  10.986  0.2636  1.0354 -1.6062
   8423SM  H14B11152   3.386   4.237  11.049  0.6317 -0.0870  0.3350
   8423SM  H14C11153   3.311   4.158  10.918  0.5560  0.5064 -0.4005
   8423SM   C1311154   3.155   4.153  11.130 -0.0290  0.1134 -0.2628
   8423SM  H13A11155   3.084   4.127  11.054  1.5636 -2.0054 -1.1137
   8423SM  H13B11156   3.185   4.257  11.123 -0.5966  0.1766 -2.3673
   8423SM  H13C11157   3.108   4.131  11.225  0.0549 -3.1577 -0.8679
   8423SM   C1211158   3.355   4.055  11.241  0.0948  0.0426  0.4548
   8423SM  H12A11159   3.402   4.148  11.268  0.1292 -0.0796  0.8302
   8423SM  H12B11160   3.442   3.995  11.219 -1.1514 -1.2473 -1.2866
   8423SM   C1111161   3.274   3.986  11.354 -0.1077  0.1316  0.0694
   8423SM  H11A11162   3.181   4.045  11.371  1.3315  2.9437 -1.2870
   8423SM  H11B11163   3.328   4.001  11.450 -1.7515 -1.6036  1.3458
   8423SM     P11164   3.358   3.732  11.382 -0.2716  0.1579  0.1470
   8423SM   O1311165   3.312   3.603  11.336  0.0664 -0.0696 -0.4150
   8423SM   O1411166   3.493   3.771  11.336 -0.3102  0.5265 -0.1784
   8423SM   O1111167   3.350   3.748  11.535 -0.5340 -0.0630  0.0570
   8423SM   O1211168   3.254   3.846  11.334 -0.3446  0.3893  0.5768
   8423SM   C1S11169   3.229   3.695  11.595 -0.0859  0.3301  0.5631
   8423SM   H1S11170   3.221   3.588  11.566  1.5897  0.2118  0.4906
   8423SM   H1T11171   3.139   3.754  11.566  0.2955  1.1491  0.9976
   8423SM    NF11172   3.113   3.629  11.800 -0.2787 -0.0267  0.3512
   8423SM   HNF11173   3.029   3.683  11.801 -0.9947 -0.9395 -1.8035
   8423SM   C2S11174   3.222   3.711  11.751 -0.0598 -0.0781  0.0062
   8423SM   H2S11175   3.314   3.662  11.790 -0.3795  0.5299  1.6049
   8423SM   C3S11176   3.222   3.865  11.792 -0.6501  0.3839 -0.1972
   8423SM   H3S11177   3.134   3.918  11.750  0.0361  0.2526 -1.8990
   8423SM    O311178   3.339   3.924  11.731 -0.0136 -0.3091 -0.1565
   8423SM   HO311179   3.364   3.864  11.660  2.7264  2.1545 -1.5087
   8423SM   C4S11180   3.223   3.886  11.943 -1.2036 -0.5876 -0.1504
   8423SM   H4S11181   3.317   3.897  11.999 -1.3908  2.0486 -0.2020
   8423SM   C5S11182   3.111   3.906  12.010  0.1819  0.0617 -0.5567
   8423SM   H5S11183   3.021   3.917  11.947  0.0775 -1.1543 -0.6303
   8423SM   C6S11184   3.102   3.909  12.163 -0.0340 -0.2184 -0.1323
   8423SM   H6S11185   3.083   4.014  12.191  0.6148 -0.5271  1.5794
   8423SM   H6T11186   3.197   3.878  12.211 -0.2890  0.5270  0.8978
   8423SM   C7S11187   2.992   3.825  12.213  1.1761  0.7123 -0.0958
   8423SM   H7S11188   3.046   3.729  12.227  0.0202  0.1279  0.6018
   8423SM   H7T11189   2.892   3.809  12.167  0.6878 -1.3561  1.4896
   8423SM   C8S11190   2.943   3.859  12.359 -1.2500 -0.4265 -0.3578
   8423SM   H8S11191   2.851   3.799  12.372 -1.1494 -0.6770 -0.7993
   8423SM   H8T11192   2.919   3.967  12.372  1.3489  0.0610  1.2410
   8423SM   C9S11193   3.042   3.824  12.482  0.2367  0.1908  0.7398
   8423SM   H9S11194   3.140   3.875  12.482  1.1144 -1.4250  0.1693
   8423SM   H9T11195   3.053   3.714  12.482  1.0057  0.2614  0.5641
   8423SM  C10S11196   2.959   3.855  12.608 -0.0547 -0.1194 -0.4140
   8423SM  H10S11197   2.858   3.813  12.595 -0.4929  0.4363  0.9864
   8423SM  H10T11198   2.939   3.964  12.613  0.7071  0.0675 -1.1128
   8423SM  C11S11199   3.019   3.801  12.734  0.9440 -0.0640  0.0998
   8423SM  H11S11200   3.121   3.838  12.760  1.6477 -1.3950 -0.6613
   8423SM  H11T11201   3.027   3.690  12.728  0.2573 -0.1723  1.0802
   8423SM  C12S11202   2.935   3.832  12.856 -0.0539 -0.6961  0.5210
   8423SM  H12S11203   2.835   3.788  12.836  0.0591  0.3064 -3.0828
   8423SM  H12T11204   2.924   3.943  12.865 -0.5961 -0.6724 -0.2660
   8423SM  C13S11205   2.996   3.782  12.990  0.1129 -0.7456  0.1558
   8423SM  H13S11206   3.069   3.859  13.022 -0.4396 -0.3968  0.6158
   8423SM  H13T11207   3.056   3.691  12.970  0.3428 -0.7696  0.9325
   8423SM  C14S11208   2.895   3.754  13.092  0.1212  0.0687 -0.3696
   8423SM  H14S11209   2.813   3.690  13.051  1.2239 -0.4895 -1.7627
   8423SM  H14T11210   2.842   3.850  13.114 -0.6210 -0.1824 -1.0076
   8423SM  C15S11211   2.948   3.679  13.218 -0.5172  0.6521  0.2550
   8423SM  H15S11212   3.029   3.739  13.265  0.6444 -1.8664  1.6761
   8423SM  H15T11213   2.997   3.588  13.177 -1.9107  0.7164 -1.6839
   8423SM  C16S11214   2.839   3.639  13.321  0.0167 -0.1167  0.0450
   8423SM  H16S11215   2.763   3.600  13.250  0.9764 -1.4382 -0.3121
   8423SM  H16T11216   2.785   3.728  13.360 -0.4674 -0.8418  1.0702
   8423SM  C17S11217   2.898   3.554  13.423 -0.6474  1.1249  0.2651
   8423SM  H17S11218   2.943   3.463  13.378  0.8349  1.1812  1.5522
   8423SM  H17T11219   2.819   3.515  13.490  1.4414 -0.4307  2.0080
   8423SM  C18S11220   3.013   3.616  13.509  0.1828  0.4123 -0.1728
   8423SM  H18S11221   2.973   3.708  13.558  0.7641  0.6630 -0.1644
   8423SM  H18T11222   3.105   3.639  13.451 -0.6572  4.0769 -0.2813
   8423SM  H18U11223   3.036   3.543  13.589 -0.1536  1.2825  0.7464
   8423SM   C1F11224   3.114   3.501  11.820  0.2579  0.1741 -0.8823
   8423SM    OF11225   3.211   3.434  11.789  0.0744  0.9191  0.2458
   8423SM   C2F11226   2.987   3.446  11.876 -0.0457  0.0852 -0.5090
   8423SM   H2F11227   2.958   3.380  11.792  2.1791 -1.1157 -0.4109
   8423SM   H2G11228   2.912   3.525  11.899 -1.3672 -1.4459  0.7655
   8423SM   C3F11229   2.995   3.355  12.002 -0.5812 -0.8482 -0.9735
   8423SM   H3F11230   3.093   3.305  12.018 -0.6760 -0.4883  0.9640
   8423SM   H3G11231   2.920   3.274  11.990 -3.7799  1.0228  3.6454
   8423SM   C4F11232   2.960   3.436  12.134  0.2434  1.1010  0.1828
   8423SM   H4F11233   2.865   3.491  12.121  0.6564  1.7881  0.0374
   8423SM   H4G11234   3.041   3.506  12.163  0.0600  1.5647 -0.4104
   8423SM   C5F11235   2.958   3.339  12.255  0.5746  0.0233 -0.2158
   8423SM   H5F11236   3.043   3.267  12.259 -1.2217 -2.1743  1.0173
   8423SM   H5G11237   2.866   3.278  12.241 -0.0292  1.3828 -2.5417
   8423SM   C6F11238   2.950   3.414  12.385 -0.1506  0.0778 -0.5591
   8423SM   H6F11239   2.854   3.471  12.381  0.7412  1.5869 -1.5124
   8423SM   H6G11240   3.028   3.493  12.382  2.1344 -2.0660 -1.3533
   8423SM   C7F11241   2.964   3.335  12.520  0.2192 -0.4232  0.0070
   8423SM   H7F11242   3.052   3.269  12.526 -0.1374 -0.9106 -0.0907
   8423SM   H7G11243   2.873   3.271  12.520  0.5316 -0.9057  1.3274
   8423SM   C8F11244   2.963   3.419  12.644  0.5417 -0.9149 -0.0120
   8423SM   H8F11245   2.876   3.488  12.643  1.3231  0.1037  0.7733
   8423SM   H8G11246   3.048   3.490  12.642  1.1234 -1.5795  0.6038
   8423SM   C9F11247   2.962   3.326  12.764 -0.2652  0.4213 -0.1695
   8423SM   H9F11248   3.062   3.278  12.771  0.5219  2.2290  1.8157
   8423SM   H9G11249   2.886   3.246  12.748 -1.8415  2.0247 -1.0052
   8423SM  C10F11250   2.940   3.404  12.893 -0.5663  0.2790  0.7131
   8423SM  H10F11251   2.845   3.462  12.895 -1.9704 -1.8177 -0.7702
   8423SM  H10G11252   3.024   3.477  12.890 -0.9416  0.7041 -1.0756
   8423SM  C11F11253   2.951   3.314  13.014  0.0443 -0.3289 -0.2230
   8423SM  H11F11254   2.997   3.379  13.092 -0.3946 -0.9105  0.5368
   8423SM  H11G11255   3.019   3.226  13.010  2.8485  1.6813  0.4247
   8423SM  C12F11256   2.821   3.272  13.074  0.2300 -0.4591 -0.2725
   8423SM  H12F11257   2.769   3.218  12.992 -0.5591 -0.1597  0.0221
   8423SM  H12G11258   2.761   3.365  13.088  0.0162 -0.8449  1.6176
   8423SM  C13F11259   2.828   3.188  13.199 -0.3847 -0.4676  0.3418
   8423SM  H13F11260   2.898   3.231  13.274 -2.6746  1.3844  1.5815
   8423SM  H13G11261   2.893   3.102  13.172  1.2159 -0.4442  3.5692
   8423SM  C14F11262   2.686   3.156  13.255 -0.0148 -0.2345 -0.2687
   8423SM  H14F11263   2.636   3.089  13.182  0.0992 -2.1071  1.3003
   8423SM  H14G11264   2.629   3.251  13.252 -0.0420 -0.1743  1.3135
   8423SM  C15F11265   2.680   3.106  13.399  0.4032  0.1918  0.1559
   8423SM  H15F11266   2.761   3.030  13.399  2.6154  2.4265  1.0641
   8423SM  H15G11267   2.583   3.058  13.423  1.0718 -1.0851  0.4240
   8423SM  C16F11268   2.684   3.224  13.493 -0.1401  0.4658 -0.1881
   8423SM  H16F11269   2.595   3.288  13.479 -0.5138  0.1563  0.6710
   8423SM  H16G11270   2.779   3.280  13.481 -1.5138  2.7672 -0.8015
   8423SM  C17F11271   2.684   3.167  13.642  0.2033 -0.5277 -0.2363
   8423SM  H17F11272   2.759   3.086  13.654 -0.8366 -1.4229  0.4527
   8423SM  H17G11273   2.583   3.124  13.661 -0.8289  1.7796 -0.1677
   8423SM  C18F11274   2.697   3.279  13.749  0.0752 -0.0283  0.0925
   8423SM  H18F11275   2.798   3.326  13.746  0.0675 -0.0511 -1.1198
   8423SM  H18G11276   2.697   3.231  13.849  2.0580 -0.6725 -0.1779
   8423SM  C19F11277   2.583   3.379  13.736 -0.0676  0.5489 -0.4121
   8423SM  H19F11278   2.487   3.324  13.741  0.8235 -0.9118  2.7926
   8423SM  H19G11279   2.579   3.440  13.643  0.6866  0.0471 -0.7889
   8423SM  C20F11280   2.597   3.484  13.851 -0.7908  0.0441  0.0643
   8423SM  H20F11281   2.700   3.526  13.842  0.0385 -1.6227  1.2734
   8423SM  H20G11282   2.593   3.433  13.949  1.9264 -1.7607 -0.6578
   8423SM  C21F11283   2.485   3.593  13.851  0.3613  0.3006 -0.4150
   8423SM  H21F11284   2.386   3.541  13.859  1.0779 -1.1063 -0.3292
   8423SM  H21G11285   2.462   3.656  13.762  0.4058  2.6873  1.1759
   8423SM  C22F11286   2.485   3.692  13.973  0.8149 -0.0525 -0.3010
   8423SM  H22F11287   2.553   3.775  13.944  1.2258 -0.8989 -1.8687
   8423SM  H22G11288   2.524   3.642  14.065  0.8086 -0.3322 -0.4511
   8423SM  C23F11289   2.351   3.769  14.003  0.3358 -0.0172  0.1971
   8423SM  H23F11290   2.318   3.827  13.913  0.0090  1.6473  1.3426
   8423SM  H23G11291   2.362   3.841  14.087 -1.4423  2.3154 -1.4299
   8423SM  H23H11292   2.275   3.694  14.033  0.3030 -0.8008 -1.7126
   8523SM     N11293   4.183   4.459  11.164 -0.7663  0.9860  0.0800
   8523SM   C1511294   4.191   4.586  11.080 -0.8681  0.2570 -0.0135
   8523SM  H15A11295   4.194   4.572  10.973 -2.3950 -0.1754 -0.0201
   8523SM  H15B11296   4.273   4.649  11.109 -1.1135  0.1740  0.9027
   8523SM  H15C11297   4.103   4.642  11.107 -2.2010 -1.7879  0.1275
   8523SM   C1411298   4.084   4.365  11.098 -0.3269  0.2852  0.0191
   8523SM  H14A11299   3.991   4.420  11.108  0.1838  0.8944  1.7747
   8523SM  H14B11300   4.091   4.262  11.127  0.5866 -0.6097 -3.0217
   8523SM  H14C11301   4.102   4.364  10.992  0.5755  1.0867  0.1478
   8523SM   C1311302   4.319   4.397  11.158 -0.0042  0.0434 -0.0702
   8523SM  H13A11303   4.404   4.447  11.202 -0.0300  0.5676 -0.5971
   8523SM  H13B11304   4.351   4.369  11.058  0.4915  0.1199  0.0623
   8523SM  H13C11305   4.312   4.296  11.194 -0.5523 -0.5698 -1.7781
   8523SM   C1211306   4.148   4.483  11.311  0.0778 -0.6456  0.0854
   8523SM  H12A11307   4.141   4.385  11.355 -2.6707 -0.0772  1.1527
   8523SM  H12B11308   4.051   4.531  11.310  0.1617 -0.4717 -0.8921
   8523SM   C1111309   4.247   4.562  11.395 -0.4471  0.1962 -0.4046
   8523SM  H11A11310   4.347   4.512  11.395 -0.9717 -0.9477  1.5570
   8523SM  H11B11311   4.215   4.567  11.501  1.3467  0.9936  0.1458
   8523SM     P11312   4.164   4.810  11.371 -0.0414 -0.3213 -0.1151
   8523SM   O1311313   4.193   4.930  11.292 -0.6570  0.1414  0.2544
   8523SM   O1411314   4.028   4.762  11.358 -0.1965  0.5240 -0.4507
   8523SM   O1111315   4.191   4.846  11.524  0.7718  0.4780 -0.0043
   8523SM   O1211316   4.266   4.694  11.343 -0.5445  0.0206 -0.2500
   8523SM   C1S11317   4.331   4.879  11.556 -0.3539 -0.3553 -0.2501
   8523SM   H1S11318   4.359   4.972  11.503 -0.1107 -0.4576 -0.3008
   8523SM   H1T11319   4.400   4.794  11.536  0.3874  0.3762 -0.8311
   8523SM    NF11320   4.486   4.971  11.734 -0.5981 -0.0709 -0.1148
   8523SM   HNF11321   4.545   4.897  11.766 -2.8021 -1.7190  0.3060
   8523SM   C2S11322   4.357   4.914  11.708 -0.1869 -0.2092 -0.2556
   8523SM   H2S11323   4.275   4.985  11.732 -2.6353 -1.3560 -4.3987
   8523SM   C3S11324   4.316   4.795  11.797  0.0998  0.1135  0.3443
   8523SM   H3S11325   4.364   4.699  11.768 -0.8706 -0.7536  1.5458
   8523SM    O311326   4.178   4.761  11.779 -0.4954 -0.3692 -0.2472
   8523SM   HO311327   4.136   4.811  11.709 -2.2583 -2.4681 -0.7870
   8523SM   C4S11328   4.336   4.816  11.941  0.3315  0.1591  0.0204
   8523SM   H4S11329   4.398   4.742  11.993  1.5208  0.5735 -0.7545
   8523SM   C5S11330   4.298   4.916  12.018 -0.6358 -0.4940 -0.3776
   8523SM   H5S11331   4.234   4.995  11.977  2.0605  1.6165 -0.7722
   8523SM   C6S11332   4.328   4.939  12.159  0.1052  0.3826 -0.4322
   8523SM   H6S11333   4.248   4.893  12.221 -1.0064  1.3151 -1.1312
   8523SM   H6T11334   4.334   5.048  12.182  2.3573 -0.0708  1.6217
   8523SM   C7S11335   4.466   4.882  12.213 -0.0179  0.4544 -0.5215
   8523SM   H7S11336   4.534   4.929  12.138  0.1026  0.4559 -0.4115
   8523SM   H7T11337   4.473   4.771  12.211 -0.0282  0.2746  3.2366
   8523SM   C8S11338   4.493   4.911  12.362 -0.2248  0.2838 -0.0880
   8523SM   H8S11339   4.531   5.014  12.381 -1.1465  0.2490  2.3412
   8523SM   H8T11340   4.584   4.855  12.392 -0.2473  0.5688  0.5333
   8523SM   C9S11341   4.377   4.896  12.455  0.3194  0.1255  0.1834
   8523SM   H9S11342   4.339   4.792  12.442  1.2406 -0.0576 -1.3386
   8523SM   H9T11343   4.300   4.970  12.426  0.1808  0.0600  0.3798
   8523SM  C10S11344   4.407   4.927  12.604 -0.1239  0.0965 -0.8798
   8523SM  H10S11345   4.316   4.933  12.667  0.2731 -4.0291  0.4072
   8523SM  H10T11346   4.449   5.029  12.615 -0.2492  0.1021 -0.4382
   8523SM  C11S11347   4.501   4.829  12.679 -0.3903 -0.5703 -0.6735
   8523SM  H11S11348   4.585   4.815  12.608 -0.5676  2.4648 -1.6718
   8523SM  H11T11349   4.446   4.733  12.679 -0.6138 -0.4433 -0.4364
   8523SM  C12S11350   4.550   4.874  12.815 -0.3006 -0.0924 -0.2643
   8523SM  H12S11351   4.610   4.795  12.864  0.8934  2.0618  1.9809
   8523SM  H12T11352   4.463   4.900  12.879 -1.7137 -2.7165 -0.9682
   8523SM  C13S11353   4.641   4.999  12.816  0.9901 -0.2780  1.3571
   8523SM  H13S11354   4.578   5.083  12.778  1.8274  0.4469  1.5486
   8523SM  H13T11355   4.723   4.986  12.743 -1.5199 -0.1528 -1.6819
   8523SM  C14S11356   4.694   5.038  12.950 -0.3066 -0.4727 -0.0895
   8523SM  H14S11357   4.786   4.984  12.981 -0.3822 -0.6173 -0.1117
   8523SM  H14T11358   4.615   5.024  13.027 -0.9868  2.9728 -0.0387
   8523SM  C15S11359   4.711   5.190  12.942 -0.5246  0.4601  0.1037
   8523SM  H15S11360   4.611   5.238  12.942 -0.2172  1.1248  0.5263
   8523SM  H15T11361   4.744   5.227  12.843 -0.0594  2.2754  0.8903
   8523SM  C16S11362   4.799   5.244  13.056 -0.1755 -0.2401  0.4255
   8523SM  H16S11363   4.804   5.352  13.030 -1.3192 -0.2570  0.1066
   8523SM  H16T11364   4.900   5.198  13.057  0.7236  1.6667  0.5797
   8523SM  C17S11365   4.740   5.234  13.195 -0.0309 -0.5852  0.2889
   8523SM  H17S11366   4.723   5.129  13.225  1.2777 -0.4763  1.5167
   8523SM  H17T11367   4.638   5.279  13.193 -0.7876 -2.1955  0.8891
   8523SM  C18S11368   4.831   5.299  13.303  1.1837  0.6225  0.3059
   8523SM  H18S11369   4.805   5.407  13.312 -0.9673  0.0087  2.4977
   8523SM  H18T11370   4.938   5.295  13.273  1.0882  1.4913 -0.1979
   8523SM  H18U11371   4.816   5.240  13.395 -1.6009 -0.2058 -0.5794
   8523SM   C1F11372   4.528   5.091  11.694  0.0181 -0.2713 -0.3466
   8523SM    OF11373   4.457   5.172  11.630 -0.2980  0.1326  0.1287
   8523SM   C2F11374   4.667   5.130  11.723  0.4483 -0.3400 -0.3688
   8523SM   H2F11375   4.707   5.178  11.631  1.0058 -0.0140  0.0444
   8523SM   H2G11376   4.727   5.036  11.730  0.1141 -0.4718  0.8725
   8523SM   C3F11377   4.683   5.215  11.845  0.5966  0.3298 -0.1218
   8523SM   H3F11378   4.593   5.279  11.861  0.0500 -0.8647  2.0469
   8523SM   H3G11379   4.772   5.275  11.819  1.8366 -1.8443 -1.1895
   8523SM   C4F11380   4.699   5.139  11.975 -0.0306 -0.0366 -0.6604
   8523SM   H4F11381   4.789   5.077  11.957  0.8889  1.1171 -0.1843
   8523SM   H4G11382   4.612   5.072  11.993  0.2613 -0.7470 -1.7962
   8523SM   C5F11383   4.724   5.229  12.100  0.0579 -0.5529 -0.0335
   8523SM   H5F11384   4.678   5.330  12.090 -1.6547 -1.1899  1.0559
   8523SM   H5G11385   4.831   5.260  12.102 -0.6728  2.4237 -1.4896
   8523SM   C6F11386   4.702   5.165  12.234  1.0252  0.0320  0.3088
   8523SM   H6F11387   4.722   5.056  12.223 -1.3264 -0.3250 -1.0464
   8523SM   H6G11388   4.601   5.200  12.263  2.1994  1.8815  2.4608
   8523SM   C7F11389   4.783   5.231  12.343  0.1066  0.2666  0.0463
   8523SM   H7F11390   4.750   5.337  12.349 -2.1194 -0.1949 -2.1193
   8523SM   H7G11391   4.887   5.220  12.308 -0.5635 -4.9426 -1.0993
   8523SM   C8F11392   4.766   5.174  12.483  0.6628 -0.5008  0.5928
   8523SM   H8F11393   4.784   5.065  12.479 -1.4818 -0.9171  1.4830
   8523SM   H8G11394   4.664   5.199  12.519  0.1483  0.4780 -1.3936
   8523SM   C9F11395   4.872   5.232  12.576 -0.3300 -0.2902 -0.0760
   8523SM   H9F11396   4.972   5.203  12.537  0.1754 -0.9894  1.6148
   8523SM   H9G11397   4.863   5.174  12.670 -2.2380 -0.3904 -0.2900
   8523SM  C10F11398   4.860   5.381  12.610  0.4210  0.6584 -0.3336
   8523SM  H10F11399   4.760   5.402  12.654  0.8942  1.2848  0.4682
   8523SM  H10G11400   4.875   5.441  12.518  0.0788  0.5668 -0.4507
   8523SM  C11F11401   4.965   5.415  12.718 -0.1071  0.8004  0.1514
   8523SM  H11F11402   5.066   5.381  12.690 -0.0263  1.9664 -1.0605
   8523SM  H11G11403   4.928   5.372  12.814 -0.3257  1.0205  0.1673
   8523SM  C12F11404   4.949   5.564  12.764  0.5801 -0.0605 -0.0254
   8523SM  H12F11405   4.851   5.588  12.810  0.0153  1.1462 -1.7671
   8523SM  H12G11406   4.954   5.632  12.677 -0.7547  0.8531  0.5873
   8523SM  C13F11407   5.046   5.620  12.869 -0.5038 -0.0924 -0.2609
   8523SM  H13F11408   5.149   5.595  12.838 -0.4631  1.3912 -1.4952
   8523SM  H13G11409   5.033   5.565  12.964  2.0353 -0.5455 -0.1103
   8523SM  C14F11410   5.029   5.771  12.900 -0.0576  0.0987  0.2942
   8523SM  H14F11411   4.938   5.793  12.959  0.3188 -2.9190  2.2229
   8523SM  H14G11412   5.037   5.824  12.803  0.1219  1.9125  1.2592
   8523SM  C15F11413   5.152   5.817  12.990 -0.3241 -0.3786 -0.1386
   8523SM  H15F11414   5.145   5.928  12.991  0.4274 -0.3230 -0.4142
   8523SM  H15G11415   5.253   5.792  12.952  0.3222 -0.2369  1.4223
   8523SM  C16F11416   5.131   5.782  13.139 -0.0825  0.6044  0.5934
   8523SM  H16F11417   5.150   5.675  13.163 -2.3420  0.4244  1.8373
   8523SM  H16G11418   5.029   5.812  13.171 -1.1941 -2.3330  0.1117
   8523SM  C17F11419   5.224   5.863  13.221  0.5050 -0.2023  0.0681
   8523SM  H17F11420   5.224   5.964  13.173  0.5771 -0.0213  0.4426
   8523SM  H17G11421   5.324   5.815  13.211 -0.2058 -1.3255 -2.3305
   8523SM  C18F11422   5.176   5.879  13.368 -0.4955  0.3545 -0.6022
   8523SM  H18F11423   5.065   5.886  13.361 -0.5086  1.2214  0.2638
   8523SM  H18G11424   5.231   5.963  13.416  2.5656 -0.8126 -1.8029
   8523SM  C19F11425   5.215   5.751  13.453 -0.4488  0.2743 -0.0049
   8523SM  H19F11426   5.193   5.662  13.390  0.4938 -0.7100  0.9910
   8523SM  H19G11427   5.146   5.751  13.540 -0.4195 -0.2355  0.0224
   8523SM  C20F11428   5.363   5.747  13.484  0.2155 -0.1048 -0.3252
   8523SM  H20F11429   5.385   5.850  13.517 -0.4346  0.2549 -1.0001
   8523SM  H20G11430   5.427   5.721  13.396  2.6571  1.2528  0.9300
   8523SM  C21F11431   5.388   5.638  13.586  0.0697  0.1042 -0.1747
   8523SM  H21F11432   5.394   5.539  13.535 -2.4013  1.1371 -2.6960
   8523SM  H21G11433   5.308   5.633  13.663  0.5169  0.1226  0.3037
   8523SM  C22F11434   5.523   5.663  13.658 -0.8183  0.5774 -0.0155
   8523SM  H22F11435   5.526   5.616  13.758 -1.2220 -0.2618 -0.3872
   8523SM  H22G11436   5.540   5.773  13.668  0.5065  0.3638  0.3052
   8523SM  C23F11437   5.647   5.611  13.574  0.0343  0.2348  0.0835
   8523SM  H23F11438   5.746   5.647  13.609 -0.0175  1.1397 -0.6374
   8523SM  H23G11439   5.628   5.630  13.466  0.9166  0.5620 -0.0220
   8523SM  H23H11440   5.648   5.500  13.574 -3.3954  0.1076  0.5677
   8623SM     N11441   2.522   2.913  11.326  0.0421  0.5299 -0.3119
   8623SM   C1511442   2.416   2.974  11.405  0.0673  0.3916 -1.1129
   8623SM  H15A11443   2.394   3.069  11.359 -2.2930  0.7701  0.5956
   8623SM  H15B11444   2.449   2.989  11.507  1.7562  0.5898 -1.6639
   8623SM  H15C11445   2.328   2.911  11.414  0.3226  0.0508 -0.9976
   8623SM   C1411446   2.645   2.995  11.349 -0.0353  0.4416 -0.5715
   8623SM  H14A11447   2.628   3.094  11.310  1.7418  0.7508 -0.6395
   8623SM  H14B11448   2.739   2.961  11.308 -0.0952 -2.9280  1.6777
   8623SM  H14C11449   2.657   3.004  11.456 -0.5820 -1.3136 -0.3328
   8623SM   C1311450   2.541   2.776  11.369 -0.5784  0.1696 -0.5595
   8623SM  H13A11451   2.623   2.728  11.318 -1.4591 -0.3067 -1.5487
   8623SM  H13B11452   2.455   2.714  11.350  0.4353 -1.5701  0.3415
   8623SM  H13C11453   2.557   2.760  11.475 -0.6725 -1.2332 -0.7454
   8623SM   C1211454   2.476   2.915  11.181  0.0161 -0.2764  0.4151
   8623SM  H12A11455   2.439   3.012  11.152  1.0658  0.0548  0.1595
   8623SM  H12B11456   2.388   2.852  11.169 -1.2634  1.7306 -1.4815
   8623SM   C1111457   2.590   2.874  11.079  0.1467 -0.2189 -1.2215
   8623SM  H11A11458   2.673   2.947  11.093 -0.1577 -0.0776 -0.0675
   8623SM  H11B11459   2.552   2.879  10.974  0.0824 -2.1430 -1.3271
   8623SM     P11460   2.546   2.614  11.053 -0.1875 -0.1224  0.1516
   8623SM   O1311461   2.407   2.653  11.026  0.7742 -0.4536  1.1730
   8623SM   O1411462   2.628   2.557  10.943  0.3876  0.4691  0.0519
   8623SM   O1111463   2.548   2.526  11.177 -0.2534  0.3946 -0.3575
   8623SM   O1211464   2.629   2.736  11.107 -0.2238 -0.6302  0.0629
   8623SM   C1S11465   2.665   2.456  11.226  0.3757  0.2643  0.5328
   8623SM   H1S11466   2.754   2.509  11.183 -0.5290  1.4873  0.1042
   8623SM   H1T11467   2.681   2.358  11.176 -1.6337  0.4524 -0.5880
   8623SM    NF11468   2.809   2.412  11.418  0.7449  0.1593  0.3419
   8623SM   HNF11469   2.815   2.318  11.451  1.9064 -0.1728 -0.7183
   8623SM   C2S11470   2.680   2.460  11.378  0.9519 -0.2553 -0.8042
   8623SM   H2S11471   2.654   2.562  11.415 -1.8444 -0.9946 -0.4780
   8623SM   C3S11472   2.553   2.375  11.428 -0.0581  0.2359 -0.8323
   8623SM   H3S11473   2.579   2.272  11.395  0.9839  1.2714 -3.5370
   8623SM    O311474   2.427   2.392  11.360 -0.2406  0.2134  0.2185
   8623SM   HO311475   2.453   2.426  11.274  1.6976  0.6679  0.9340
   8623SM   C4S11476   2.541   2.395  11.577  0.8122  0.2055  0.6260
   8623SM   H4S11477   2.591   2.321  11.640  0.0567 -0.2197  0.7345
   8623SM   C5S11478   2.484   2.504  11.635  0.2267 -0.1302  0.7120
   8623SM   H5S11479   2.438   2.585  11.577  0.7490 -0.1624  0.2358
   8623SM   C6S11480   2.480   2.537  11.782 -0.2809 -0.3455 -0.1898
   8623SM   H6S11481   2.500   2.645  11.802 -2.5820 -0.0051  0.5600
   8623SM   H6T11482   2.560   2.481  11.835 -0.6922 -0.1427  0.6522
   8623SM   C7S11483   2.349   2.508  11.856  0.6799 -0.1146  0.4152
   8623SM   H7S11484   2.327   2.400  11.842 -0.5199  0.3165 -1.5329
   8623SM   H7T11485   2.272   2.579  11.817  1.8212 -0.1948 -2.1846
   8623SM   C8S11486   2.365   2.532  12.007  0.4378  0.1648 -0.2019
   8623SM   H8S11487   2.417   2.628  12.027 -0.0944  0.4448 -0.1495
   8623SM   H8T11488   2.434   2.456  12.049 -0.0168  0.2389  0.7165
   8623SM   C9S11489   2.226   2.512  12.076 -0.2521 -0.4045 -0.1699
   8623SM   H9S11490   2.215   2.405  12.104 -1.5367 -0.2004  0.1475
   8623SM   H9T11491   2.140   2.538  12.010  1.0224 -1.9312 -2.5955
   8623SM  C10S11492   2.219   2.585  12.207 -0.0334 -0.1296 -0.3907
   8623SM  H10S11493   2.121   2.579  12.260  0.8581  3.7045  2.1049
   8623SM  H10T11494   2.223   2.694  12.188 -0.4893 -0.3443 -1.8303
   8623SM  C11S11495   2.331   2.547  12.298  0.0067  0.2851 -0.2783
   8623SM  H11S11496   2.390   2.638  12.321  1.3456 -0.7191  0.4258
   8623SM  H11T11497   2.402   2.477  12.249  1.5707  0.5217  1.5441
   8623SM  C12S11498   2.279   2.484  12.433 -0.2068  0.0124 -0.1591
   8623SM  H12S11499   2.251   2.380  12.405 -1.6777  0.1771  0.5996
   8623SM  H12T11500   2.194   2.537  12.482 -0.4426 -1.8930  1.5963
   8623SM  C13S11501   2.386   2.481  12.541 -0.3542 -1.0158  0.9093
   8623SM  H13S11502   2.426   2.583  12.562  2.4497 -1.5670 -1.1772
   8623SM  H13T11503   2.479   2.437  12.500  0.3960 -0.4232  1.9302
   8623SM  C14S11504   2.340   2.408  12.665 -0.4226  0.3766 -0.3220
   8623SM  H14S11505   2.345   2.301  12.637 -0.0121  0.5037 -0.7452
   8623SM  H14T11506   2.242   2.446  12.698 -0.7712 -1.6333  1.1789
   8623SM  C15S11507   2.441   2.423  12.785  0.4891 -0.2798  0.9703
   8623SM  H15S11508   2.455   2.533  12.797  1.2733  0.0778 -2.2952
   8623SM  H15T11509   2.545   2.393  12.758  0.0960  1.3058 -2.9757
   8623SM  C16S11510   2.383   2.357  12.912  0.7525 -0.1768  0.5222
   8623SM  H16S11511   2.379   2.248  12.892  1.3618  0.3310 -2.8158
   8623SM  H16T11512   2.282   2.402  12.925  0.3181 -1.4253  1.6564
   8623SM  C17S11513   2.458   2.396  13.041  0.0749 -1.1711  0.1001
   8623SM  H17S11514   2.455   2.506  13.059  1.9058 -0.8666 -1.2273
   8623SM  H17T11515   2.563   2.367  13.023  0.0257  0.2144 -3.1160
   8623SM  C18S11516   2.404   2.321  13.165  0.8044  0.3277  0.3855
   8623SM  H18S11517   2.465   2.338  13.256  0.1830  1.4344  0.6162
   8623SM  H18T11518   2.395   2.214  13.138  1.0820  0.3488  0.2091
   8623SM  H18U11519   2.306   2.368  13.188  1.3741  1.6350  0.2323
   8623SM   C1F11520   2.921   2.482  11.405 -0.3299 -0.0022 -0.3410
   8623SM    OF11521   2.924   2.570  11.322  0.0094 -0.0015 -0.1264
   8623SM   C2F11522   3.041   2.437  11.480  0.1622 -0.2356 -0.6038
   8623SM   H2F11523   3.138   2.454  11.430  2.0103 -1.5690  2.2572
   8623SM   H2G11524   3.026   2.327  11.485  0.6290 -0.2680  0.2903
   8623SM   C3F11525   3.056   2.496  11.629  0.7085  0.0458 -0.4815
   8623SM   H3F11526   3.057   2.607  11.628  0.4807  0.0915  1.1856
   8623SM   H3G11527   3.155   2.462  11.666  0.1504 -0.3163  0.7384
   8623SM   C4F11528   2.945   2.453  11.725  0.1115  0.2284 -0.2124
   8623SM   H4F11529   2.941   2.343  11.744 -1.8657 -0.0557 -1.9028
   8623SM   H4G11530   2.850   2.490  11.681 -0.9351 -1.5593  0.4324
   8623SM   C5F11531   2.953   2.522  11.862  0.3594  0.1105  0.3234
   8623SM   H5F11532   2.872   2.474  11.920  0.0712  0.5563  0.2944
   8623SM   H5G11533   2.923   2.629  11.850 -0.6046  0.1721  2.8396
   8623SM   C6F11534   3.088   2.512  11.936 -0.3501 -0.3774  0.2438
   8623SM   H6F11535   3.173   2.548  11.874 -0.0015 -1.3390  0.1479
   8623SM   H6G11536   3.101   2.408  11.973 -1.7330 -1.1263 -1.2448
   8623SM   C7F11537   3.093   2.604  12.059 -0.1463  0.0696  0.5969
   8623SM   H7F11538   3.068   2.709  12.033  1.9846  0.6196  0.5765
   8623SM   H7G11539   3.201   2.609  12.085  0.2889 -0.6877 -0.9513
   8623SM   C8F11540   3.024   2.549  12.180  0.0073  0.2040 -0.4202
   8623SM   H8F11541   3.047   2.443  12.203 -0.5485 -0.0673 -1.0770
   8623SM   H8G11542   2.914   2.558  12.166 -0.1472  3.6436  1.7416
   8623SM   C9F11543   3.057   2.652  12.293 -0.2763  0.4590  0.2801
   8623SM   H9F11544   3.041   2.760  12.271 -0.7920  0.6115  1.3498
   8623SM   H9G11545   3.166   2.634  12.301  0.0098  1.0098 -1.7663
   8623SM  C10F11546   3.017   2.624  12.449 -0.2454  0.2818  0.1581
   8623SM  H10F11547   2.907   2.625  12.463 -0.0928  0.7960  1.4405
   8623SM  H10G11548   3.070   2.713  12.492  1.0314 -0.9101  1.1539
   8623SM  C11F11549   3.078   2.495  12.506 -0.1365 -0.2344  0.5726
   8623SM  H11F11550   3.189   2.503  12.499  0.0240  0.6391  2.9152
   8623SM  H11G11551   3.056   2.405  12.445  0.8361  0.3020 -0.6203
   8623SM  C12F11552   3.050   2.481  12.657 -0.0308 -0.5774 -0.0622
   8623SM  H12F11553   3.067   2.575  12.714 -1.3136 -0.5073  0.2346
   8623SM  H12G11554   3.123   2.407  12.697 -1.3356 -1.2916  1.0785
   8623SM  C13F11555   2.915   2.413  12.688 -0.8546 -0.4938  0.1389
   8623SM  H13F11556   2.917   2.311  12.645  1.4041 -0.5576  0.3145
   8623SM  H13G11557   2.829   2.473  12.650  0.1133  1.1516  0.4145
   8623SM  C14F11558   2.887   2.391  12.837 -0.6847 -0.3352 -0.0066
   8623SM  H14F11559   2.781   2.360  12.841 -0.5091 -0.8278  1.4562
   8623SM  H14G11560   2.901   2.490  12.886 -2.7431  1.2008 -2.3081
   8623SM  C15F11561   2.981   2.282  12.902 -0.6807 -0.4925 -0.2261
   8623SM  H15F11562   3.089   2.305  12.891  0.0150 -2.5671  1.4679
   8623SM  H15G11563   2.960   2.192  12.840  1.0082 -2.0705  1.3579
   8623SM  C16F11564   2.947   2.263  13.052  0.4951  0.3971 -0.6225
   8623SM  H16F11565   2.845   2.224  13.067 -0.6128  2.5842 -1.9876
   8623SM  H16G11566   2.973   2.359  13.102 -1.0651  0.7379 -0.4115
   8623SM  C17F11567   3.038   2.161  13.114  0.1434  0.6166 -0.2279
   8623SM  H17F11568   3.134   2.214  13.134  0.5319 -0.6996  1.7529
   8623SM  H17G11569   3.064   2.079  13.044 -1.8503  0.7741 -1.2211
   8623SM  C18F11570   2.981   2.093  13.244  0.4292  0.2209 -0.0839
   8623SM  H18F11571   3.061   2.036  13.296 -0.4017  0.2749  1.3238
   8623SM  H18G11572   2.910   2.012  13.215  1.2617 -0.3531 -0.5668
   8623SM  C19F11573   2.906   2.187  13.342 -0.5621 -0.4347 -0.4594
   8623SM  H19F11574   2.811   2.221  13.295 -0.1028  1.7901  0.0775
   8623SM  H19G11575   2.972   2.273  13.367 -1.1146 -0.0484 -0.3026
   8623SM  C20F11576   2.860   2.127  13.476  0.0602  0.2761  0.6843
   8623SM  H20F11577   2.946   2.097  13.539  0.7518 -2.0861 -1.2343
   8623SM  H20G11578   2.796   2.038  13.459  1.0791 -0.2983 -0.2678
   8623SM  C21F11579   2.762   2.215  13.560  0.3078  0.1034  0.2807
   8623SM  H21F11580   2.681   2.245  13.491 -0.5529  1.4866  1.8422
   8623SM  H21G11581   2.825   2.303  13.583  1.7347 -0.0050 -2.6862
   8623SM  C22F11582   2.708   2.159  13.696  0.1889  0.1449 -0.5721
   8623SM  H22F11583   2.655   2.245  13.742  0.4921  0.6908 -1.2173
   8623SM  H22G11584   2.795   2.146  13.765 -1.1508  0.5777  1.2616
   8623SM  C23F11585   2.627   2.034  13.690 -0.4385 -0.4819 -0.1740
   8623SM  H23F11586   2.688   1.942  13.682  0.5104 -0.3128  3.3949
   8623SM  H23G11587   2.550   2.043  13.610  0.7133 -0.5601 -1.3317
   8623SM  H23H11588   2.580   2.013  13.788 -0.8782  2.7055  0.3917
   8723SM     N11589   4.237   3.050  11.341 -0.9658  0.0641  0.2613
   8723SM   C1511590   4.280   2.909  11.368  0.0402 -0.0958  0.2636
   8723SM  H15A11591   4.232   2.877  11.460 -0.9375 -0.8050 -0.4784
   8723SM  H15B11592   4.387   2.911  11.380 -0.0734 -0.3786  1.4666
   8723SM  H15C11593   4.248   2.838  11.293  0.0752 -0.3643  0.4998
   8723SM   C1411594   4.266   3.118  11.474  0.0906  0.2344  0.7789
   8723SM  H14A11595   4.228   3.219  11.476 -1.8389 -0.4289  0.1111
   8723SM  H14B11596   4.374   3.129  11.478  0.0009  3.5789 -1.4466
   8723SM  H14C11597   4.224   3.065  11.558 -0.2780  0.4589  0.7387
   8723SM   C1311598   4.324   3.118  11.242  0.0793 -0.3294  0.2725
   8723SM  H13A11599   4.319   3.065  11.148  1.3731  1.7067 -1.0347
   8723SM  H13B11600   4.424   3.135  11.278  0.4921 -1.0618 -0.4796
   8723SM  H13C11601   4.280   3.213  11.218 -1.5802 -0.7989  1.3049
   8723SM   C1211602   4.085   3.066  11.314  0.1873 -0.7414  0.5386
   8723SM  H12A11603   4.058   3.169  11.328  1.0294 -0.0859 -2.0551
   8723SM  H12B11604   4.027   3.023  11.394 -2.1878 -1.3857 -1.4119
   8723SM   C1111605   4.019   3.019  11.182  0.6346 -0.2193 -0.3519
   8723SM  H11A11606   4.052   2.915  11.160 -0.0020 -0.6491  0.6481
   8723SM  H11B11607   4.059   3.080  11.098  2.0984  0.6278  0.8935
   8723SM     P11608   3.796   3.155  11.197  0.1560  0.3956 -0.0720
   8723SM   O1311609   3.836   3.236  11.078 -0.3346  0.2307 -0.0308
   8723SM   O1411610   3.652   3.123  11.207 -0.1386  0.4037 -0.3891
   8723SM   O1111611   3.856   3.226  11.332 -0.2547 -0.0915 -0.5272
   8723SM   O1211612   3.879   3.012  11.198 -0.2596 -0.1375 -0.3791
   8723SM   C1S11613   3.793   3.215  11.457  0.4676  0.7483  0.2686
   8723SM   H1S11614   3.838   3.123  11.501  0.7084  0.5241 -0.4413
   8723SM   H1T11615   3.688   3.180  11.444  0.8500 -0.5534  0.5039
   8723SM    NF11616   3.741   3.316  11.672  0.5327  0.0857  1.0026
   8723SM   HNF11617   3.645   3.341  11.667  0.5609  0.1586  0.8149
   8723SM   C2S11618   3.805   3.339  11.547  0.5793  0.1515  0.0108
   8723SM   H2S11619   3.915   3.348  11.564  0.7961  0.7028 -1.5164
   8723SM   C3S11620   3.757   3.464  11.474  0.8499 -0.2146 -0.1561
   8723SM   H3S11621   3.651   3.447  11.443  0.0988  1.6302  1.2108
   8723SM    O311622   3.827   3.493  11.351 -0.2513  0.8245  0.3716
   8723SM   HO311623   3.888   3.419  11.347 -0.2310  0.8928 -2.0477
   8723SM   C4S11624   3.750   3.597  11.565 -0.8492 -0.2341  0.0448
   8723SM   H4S11625   3.660   3.589  11.629 -0.9721 -1.5054 -0.2618
   8723SM   C5S11626   3.833   3.706  11.568  0.1295  1.5224  0.2700
   8723SM   H5S11627   3.911   3.714  11.491  0.1593 -0.6483  0.0007
   8723SM   C6S11628   3.830   3.831  11.656  0.9879 -0.0898 -0.2324
   8723SM   H6S11629   3.829   3.924  11.594  0.7353  0.4994  0.6414
   8723SM   H6T11630   3.914   3.835  11.728  1.1687 -0.7744 -0.3989
   8723SM   C7S11631   3.699   3.838  11.737 -0.5658  0.2068 -0.9131
   8723SM   H7S11632   3.613   3.822  11.669  0.4017  0.3435 -2.2239
   8723SM   H7T11633   3.695   3.939  11.783  0.4080  0.3853 -1.1852
   8723SM   C8S11634   3.708   3.740  11.858  0.3671  0.9864  0.1546
   8723SM   H8S11635   3.728   3.780  11.960  1.0967 -3.0984  1.8008
   8723SM   H8T11636   3.784   3.659  11.852 -1.4180 -0.7735  0.1934
   8723SM   C9S11637   3.574   3.669  11.898  0.7596 -0.0245  0.2257
   8723SM   H9S11638   3.555   3.577  11.839  0.3695 -1.0716  1.9058
   8723SM   H9T11639   3.496   3.742  11.868  1.5658  1.0419  0.6120
   8723SM  C10S11640   3.557   3.630  12.042  0.0665  0.3146 -0.0261
   8723SM  H10S11641   3.553   3.725  12.099  0.8740  1.3148 -1.5613
   8723SM  H10T11642   3.644   3.569  12.076 -1.8175 -1.6255  1.6048
   8723SM  C11S11643   3.428   3.548  12.068 -0.5479 -0.1621 -0.0946
   8723SM  H11S11644   3.447   3.439  12.066  1.0466 -0.0271  2.5016
   8723SM  H11T11645   3.360   3.552  11.981 -0.2586 -0.9962 -0.3720
   8723SM  C12S11646   3.367   3.594  12.201 -0.1326 -0.0197  0.5546
   8723SM  H12S11647   3.260   3.565  12.212 -0.3213  0.7122  0.7057
   8723SM  H12T11648   3.365   3.705  12.202 -0.9917 -0.0329  1.7228
   8723SM  C13S11649   3.454   3.549  12.312  0.0178 -0.6079 -0.6566
   8723SM  H13S11650   3.551   3.603  12.312  0.6532 -1.4727  3.2432
   8723SM  H13T11651   3.464   3.439  12.322  2.6001 -0.4476 -0.8491
   8723SM  C14S11652   3.400   3.589  12.452 -0.7108  0.3879  0.5662
   8723SM  H14S11653   3.318   3.525  12.490 -2.6472  0.4860 -3.0046
   8723SM  H14T11654   3.362   3.693  12.449  1.0302  1.0309 -0.6848
   8723SM  C15S11655   3.506   3.576  12.568 -0.4340  0.0959 -0.4724
   8723SM  H15S11656   3.589   3.648  12.555 -0.9896  0.7314 -0.5727
   8723SM  H15T11657   3.545   3.474  12.550  0.9498  0.4445  0.3952
   8723SM  C16S11658   3.455   3.587  12.711 -0.1806  0.0936 -0.0004
   8723SM  H16S11659   3.404   3.683  12.732  1.2890  1.1281 -0.9980
   8723SM  H16T11660   3.542   3.590  12.779  1.4685  0.9667 -2.0545
   8723SM  C17S11661   3.370   3.479  12.766  1.1764 -0.4543  0.9708
   8723SM  H17S11662   3.417   3.382  12.740 -0.1692 -0.7743 -0.4464
   8723SM  H17T11663   3.273   3.486  12.711  1.9843  1.4647 -0.2975
   8723SM  C18S11664   3.348   3.496  12.914 -0.1450 -0.0722 -0.0506
   8723SM  H18S11665   3.262   3.435  12.950  0.1821  0.7346  2.3101
   8723SM  H18T11666   3.330   3.603  12.938 -0.6611 -0.2568  0.4227
   8723SM  H18U11667   3.435   3.473  12.979 -0.6332  2.0618  1.5056
   8723SM   C1F11668   3.804   3.238  11.767 -0.0176 -0.0556  0.5501
   8723SM    OF11669   3.911   3.188  11.750  0.3778  0.9976  0.0241
   8723SM   C2F11670   3.736   3.225  11.895 -0.2766 -0.2186  0.6722
   8723SM   H2F11671   3.721   3.115  11.906 -0.0993 -0.0840  2.7562
   8723SM   H2G11672   3.634   3.267  11.902 -0.9287 -1.2620 -1.5353
   8723SM   C3F11673   3.828   3.256  12.009  0.2710 -0.1548 -0.3920
   8723SM   H3F11674   3.874   3.357  12.014  0.8540 -0.4276 -0.1752
   8723SM   H3G11675   3.921   3.195  12.014  1.4554  1.5790 -0.3978
   8723SM   C4F11676   3.754   3.239  12.152  0.5287 -0.5925 -0.3890
   8723SM   H4F11677   3.721   3.134  12.170  0.4045 -0.4783  0.0684
   8723SM   H4G11678   3.659   3.296  12.144 -2.2362 -4.5504  0.7944
   8723SM   C5F11679   3.842   3.277  12.266 -0.3735 -0.7669  0.1765
   8723SM   H5F11680   3.872   3.381  12.238 -1.3471 -0.7229 -0.7711
   8723SM   H5G11681   3.937   3.222  12.279 -0.1887 -0.6646 -0.7145
   8723SM   C6F11682   3.775   3.265  12.409 -0.5034 -0.1810  1.1574
   8723SM   H6F11683   3.729   3.164  12.399 -1.7017  0.1936  2.5758
   8723SM   H6G11684   3.687   3.333  12.412 -1.2004 -0.8965 -0.8221
   8723SM   C7F11685   3.866   3.270  12.538  0.5759  0.4732  0.8627
   8723SM   H7F11686   3.920   3.367  12.531  1.3206  0.0495  0.5454
   8723SM   H7G11687   3.938   3.185  12.536  0.3992  0.3156  1.2160
   8723SM   C8F11688   3.778   3.271  12.665 -0.0843  0.3947 -0.1124
   8723SM   H8F11689   3.721   3.176  12.675  0.8215 -0.1017  0.4942
   8723SM   H8G11690   3.699   3.346  12.645 -1.2116 -0.8727 -0.5311
   8723SM   C9F11691   3.861   3.298  12.789  0.2258  0.3563  0.0365
   8723SM   H9F11692   3.919   3.389  12.764 -0.5896  0.3681 -2.0204
   8723SM   H9G11693   3.922   3.210  12.818  1.0045  0.9924  0.3463
   8723SM  C10F11694   3.764   3.338  12.906 -0.0979 -1.2619 -0.4985
   8723SM  H10F11695   3.685   3.262  12.924 -0.1107 -1.6624 -2.1270
   8723SM  H10G11696   3.718   3.432  12.868  0.2362 -0.8066  0.2071
   8723SM  C11F11697   3.834   3.361  13.043  0.3221  0.3572  0.1159
   8723SM  H11F11698   3.909   3.435  13.008  1.8756 -1.3561 -0.3316
   8723SM  H11G11699   3.879   3.264  13.073  1.4494  0.5115 -0.9857
   8723SM  C12F11700   3.740   3.414  13.153 -0.1059  0.1677  0.1109
   8723SM  H12F11701   3.650   3.350  13.172  1.8420 -2.0623  2.8077
   8723SM  H12G11702   3.710   3.508  13.103  0.5504 -1.0401 -2.7252
   8723SM  C13F11703   3.815   3.428  13.289  0.3065  0.1865 -0.5059
   8723SM  H13F11704   3.905   3.491  13.276  0.4000  0.7863  2.3857
   8723SM  H13G11705   3.854   3.327  13.313  0.8577 -0.1554 -2.6611
   8723SM  C14F11706   3.726   3.481  13.398 -0.1968 -0.4882  0.0897
   8723SM  H14F11707   3.645   3.406  13.413 -0.3556 -0.3417 -0.0258
   8723SM  H14G11708   3.680   3.574  13.358  0.1579  0.7976  2.5079
   8723SM  C15F11709   3.805   3.515  13.529  0.3087  0.8927 -0.2014
   8723SM  H15F11710   3.899   3.569  13.508 -0.3977  2.3149  0.1803
   8723SM  H15G11711   3.834   3.423  13.585  3.7753  1.4325 -0.9005
   8723SM  C16F11712   3.724   3.591  13.627  0.2615 -0.0353  0.0067
   8723SM  H16F11713   3.720   3.694  13.585  0.8250 -1.3567 -3.6257
   8723SM  H16G11714   3.765   3.599  13.730 -3.5452 -0.9364  1.7919
   8723SM  C17F11715   3.579   3.539  13.654 -0.5108 -0.0731  0.3312
   8723SM  H17F11716   3.594   3.430  13.641 -0.7715 -0.1588  0.7117
   8723SM  H17G11717   3.502   3.578  13.584  1.3157 -0.2963 -1.8918
   8723SM  C18F11718   3.533   3.574  13.797  0.0994  0.0783  0.8869
   8723SM  H18F11719   3.573   3.508  13.877 -1.8252 -2.6801 -0.2937
   8723SM  H18G11720   3.428   3.539  13.797 -0.5240  1.8335  0.3691
   8723SM  C19F11721   3.533   3.718  13.839  0.3340 -0.2386  0.2038
   8723SM  H19F11722   3.607   3.768  13.772 -0.5844 -0.0510 -0.6865
   8723SM  H19G11723   3.549   3.723  13.949  2.2937 -2.2333  0.0912
   8723SM  C20F11724   3.397   3.800  13.823 -0.0769 -0.7391 -0.0421
   8723SM  H20F11725   3.406   3.903  13.864 -0.3871 -1.5348  2.1742
   8723SM  H20G11726   3.318   3.756  13.888 -1.1372 -1.8087 -1.9612
   8723SM  C21F11727   3.343   3.808  13.681 -0.3631  0.2260  0.3488
   8723SM  H21F11728   3.314   3.704  13.654 -0.5612 -0.2842  2.3847
   8723SM  H21G11729   3.418   3.850  13.611 -3.3899  0.3282 -3.1127
   8723SM  C22F11730   3.218   3.893  13.667  0.6402 -0.2117 -0.4400
   8723SM  H22F11731   3.146   3.854  13.742  1.5758  0.1244  0.6691
   8723SM  H22G11732   3.169   3.885  13.568 -1.6914  0.3302  0.6001
   8723SM  C23F11733   3.240   4.045  13.696  0.4665 -0.2871  0.4754
   8723SM  H23F11734   3.302   4.087  13.614 -0.3685 -2.9796 -1.6479
   8723SM  H23G11735   3.284   4.063  13.797 -1.9340  4.8164  0.9098
   8723SM  H23H11736   3.138   4.089  13.700  0.9690  0.9882  4.9091
   8823SM     N11737   1.173   3.838  11.168  0.0342  0.1208  0.0155
   8823SM   C1511738   1.182   3.967  11.088  0.4627  0.5548 -0.3552
   8823SM  H15A11739   1.198   4.045  11.160 -1.4066  0.1380  0.5805
   8823SM  H15B11740   1.096   3.975  11.022  0.0145  3.1815  0.4127
   8823SM  H15C11741   1.273   3.969  11.030 -0.0332  1.1722 -1.1467
   8823SM   C1411742   1.036   3.820  11.231 -0.5463 -0.6573  0.1018
   8823SM  H14A11743   0.956   3.835  11.160 -0.9535  0.4250  0.7505
   8823SM  H14B11744   1.014   3.891  11.310  1.1902 -0.4383  0.4139
   8823SM  H14C11745   1.038   3.719  11.270  1.5195 -0.4682  0.5801
   8823SM   C1311746   1.197   3.725  11.069 -0.6423  0.0576  0.1455
   8823SM  H13A11747   1.114   3.721  11.000  0.2815 -2.0715 -0.9333
   8823SM  H13B11748   1.200   3.628  11.115 -2.0823  0.8568  2.0697
   8823SM  H13C11749   1.281   3.751  11.006  0.0128  0.4992  1.1678
   8823SM   C1211750   1.289   3.835  11.271  0.3149 -0.0652 -0.2390
   8823SM  H12A11751   1.383   3.843  11.218  0.6869 -1.4975  0.1750
   8823SM  H12B11752   1.286   3.738  11.318  2.7213 -0.1810 -0.1752
   8823SM   C1111753   1.295   3.931  11.388  0.3439  0.6257 -0.2263
   8823SM  H11A11754   1.371   3.904  11.464 -3.0580 -2.3934  2.4603
   8823SM  H11B11755   1.207   3.908  11.453  0.1598 -0.4245 -0.8220
   8823SM     P11756   1.441   4.129  11.339 -0.0993 -0.1002 -0.4414
   8823SM   O1311757   1.518   4.043  11.243 -0.1375 -0.9534 -0.4368
   8823SM   O1411758   1.434   4.274  11.299 -0.3356  0.7469  0.0847
   8823SM   O1111759   1.497   4.118  11.480  0.1206  0.1319  0.1708
   8823SM   O1211760   1.296   4.067  11.350 -0.4505  0.0962  0.1778
   8823SM   C1S11761   1.456   4.220  11.574 -0.1841  0.0401 -0.7691
   8823SM   H1S11762   1.347   4.238  11.586  0.2700  2.7618 -0.0302
   8823SM   H1T11763   1.506   4.317  11.557 -0.3609  0.4110  0.6610
   8823SM    NF11764   1.434   4.258  11.820  0.0848 -0.3001  0.3080
   8823SM   HNF11765   1.493   4.332  11.851 -1.3522  0.5031  1.2616
   8823SM   C2S11766   1.487   4.166  11.714 -0.3112 -0.3508 -0.6664
   8823SM   H2S11767   1.435   4.069  11.724 -0.4622 -0.0262  3.3121
   8823SM   C3S11768   1.646   4.148  11.726 -0.4917 -0.0465  0.0278
   8823SM   H3S11769   1.690   4.248  11.703 -3.4209  1.3059 -0.1253
   8823SM    O311770   1.700   4.056  11.635  0.0599  0.0230  0.4853
   8823SM   HO311771   1.648   4.076  11.557 -1.1303 -0.1234  1.2199
   8823SM   C4S11772   1.686   4.098  11.861  0.2193 -0.4628  1.2259
   8823SM   H4S11773   1.672   3.989  11.868 -1.6103 -0.5388 -1.9207
   8823SM   C5S11774   1.748   4.172  11.958 -0.0760 -0.8119 -0.0199
   8823SM   H5S11775   1.775   4.275  11.934 -0.7238 -0.7812 -0.6668
   8823SM   C6S11776   1.800   4.116  12.089 -0.2802 -0.0326  0.6592
   8823SM   H6S11777   1.911   4.116  12.084 -0.3179 -0.1784 -3.7837
   8823SM   H6T11778   1.771   4.009  12.098 -2.5998  0.6448  2.3884
   8823SM   C7S11779   1.746   4.181  12.214  0.3227 -0.1821 -0.3241
   8823SM   H7S11780   1.649   4.231  12.197  0.6100  0.3898 -0.2989
   8823SM   H7T11781   1.821   4.258  12.242  0.7084 -0.2849 -1.0655
   8823SM   C8S11782   1.751   4.081  12.328 -0.7311 -0.0512  0.3002
   8823SM   H8S11783   1.851   4.034  12.341 -1.1604 -0.6355  1.6846
   8823SM   H8T11784   1.680   3.998  12.310 -2.0425  1.1673 -0.3279
   8823SM   C9S11785   1.716   4.148  12.464  0.4435  0.3100 -0.1207
   8823SM   H9S11786   1.615   4.188  12.440 -0.2460 -0.1382  1.8366
   8823SM   H9T11787   1.793   4.227  12.477  0.3543  0.5991 -1.2639
   8823SM  C10S11788   1.708   4.050  12.574  0.0886  0.4477 -0.5901
   8823SM  H10S11789   1.790   3.976  12.563  0.0856  0.0861  1.4771
   8823SM  H10T11790   1.608   4.002  12.565 -1.0233  2.8577 -2.4112
   8823SM  C11S11791   1.723   4.105  12.714  0.2448 -0.7236  0.5206
   8823SM  H11S11792   1.667   4.200  12.723 -0.5441 -1.0602 -0.5267
   8823SM  H11T11793   1.830   4.127  12.735  0.3130 -0.4035 -0.1264
   8823SM  C12S11794   1.662   4.016  12.815  0.3502 -0.5041 -0.0128
   8823SM  H12S11795   1.703   3.913  12.802 -1.0664 -1.3155  1.5513
   8823SM  H12T11796   1.552   4.013  12.804  0.2792  1.9734 -0.3614
   8823SM  C13S11797   1.701   4.052  12.958  0.6342 -0.5715 -0.3788
   8823SM  H13S11798   1.673   4.152  12.997 -2.3121 -1.8582  1.1398
   8823SM  H13T11799   1.812   4.043  12.968  0.6425 -0.3014 -0.2475
   8823SM  C14S11800   1.659   3.946  13.053  0.2976  0.6127 -0.6947
   8823SM  H14S11801   1.693   3.843  13.027  1.0881  1.1648 -1.9693
   8823SM  H14T11802   1.549   3.935  13.050  0.3489 -1.3798  1.3775
   8823SM  C15S11803   1.709   3.977  13.199 -0.3739 -0.7510 -0.0996
   8823SM  H15S11804   1.670   4.074  13.235  0.8533  0.0578 -0.9107
   8823SM  H15T11805   1.820   3.976  13.195 -0.4090 -0.8671 -1.8437
   8823SM  C16S11806   1.647   3.874  13.292  0.1332 -0.3353 -0.2491
   8823SM  H16S11807   1.678   3.773  13.259  0.7334 -1.3543  3.0223
   8823SM  H16T11808   1.537   3.878  13.281 -0.0497 -0.3985  1.2872
   8823SM  C17S11809   1.693   3.897  13.432 -0.7931  0.0925 -0.0497
   8823SM  H17S11810   1.672   4.001  13.467 -2.3393 -0.5421  1.0078
   8823SM  H17T11811   1.803   3.889  13.421 -0.8453  0.7048 -1.1283
   8823SM  C18S11812   1.627   3.805  13.536 -0.1829  0.4823 -0.3792
   8823SM  H18S11813   1.517   3.815  13.530 -0.3007  1.2988  1.9673
   8823SM  H18T11814   1.648   3.836  13.641 -0.5951  0.0075 -0.1550
   8823SM  H18U11815   1.654   3.697  13.533 -0.5586  0.4143 -1.9500
   8823SM   C1F11816   1.304   4.275  11.844  0.4170  0.0119  0.2575
   8823SM    OF11817   1.213   4.210  11.792 -0.5529  0.1618 -0.4087
   8823SM   C2F11818   1.266   4.396  11.934  0.4047  0.5145 -0.0974
   8823SM   H2F11819   1.178   4.436  11.879 -0.7743  0.8433  1.9418
   8823SM   H2G11820   1.347   4.473  11.926  0.5203  0.3193 -0.9410
   8823SM   C3F11821   1.228   4.357  12.074  0.5617  0.2793 -0.2784
   8823SM   H3F11822   1.140   4.289  12.077  0.2980  0.6122  2.9159
   8823SM   H3G11823   1.204   4.455  12.121 -0.2934 -0.2494  0.4223
   8823SM   C4F11824   1.349   4.308  12.162  0.1347  0.3977 -0.2410
   8823SM   H4F11825   1.434   4.368  12.124 -0.3671  3.1448  2.5210
   8823SM   H4G11826   1.364   4.201  12.141 -2.4106  0.0487 -0.6428
   8823SM   C5F11827   1.350   4.356  12.312  0.0913  0.1266  0.5806
   8823SM   H5F11828   1.348   4.467  12.308 -0.4168  0.0818 -1.5407
   8823SM   H5G11829   1.452   4.335  12.352  0.0012 -0.9747  0.2780
   8823SM   C6F11830   1.235   4.301  12.401 -0.5746 -0.3590  0.1863
   8823SM   H6F11831   1.159   4.265  12.329  0.3099  0.8613 -1.4175
   8823SM   H6G11832   1.179   4.383  12.451  0.9620 -0.7659  2.7845
   8823SM   C7F11833   1.273   4.189  12.501 -0.1502  0.0310  0.8165
   8823SM   H7F11834   1.316   4.101  12.449 -1.8207 -0.0087 -0.5784
   8823SM   H7G11835   1.187   4.143  12.554 -0.1532  0.2718  1.0277
   8823SM   C8F11836   1.365   4.251  12.607  0.1224 -0.3462  0.6307
   8823SM   H8F11837   1.435   4.326  12.562 -0.3416 -0.9601 -1.2290
   8823SM   H8G11838   1.433   4.172  12.645  1.9263  1.3873  1.1814
   8823SM   C9F11839   1.287   4.315  12.721 -0.4008 -0.7610 -0.2081
   8823SM   H9F11840   1.207   4.246  12.755 -0.6773 -0.3467 -0.0042
   8823SM   H9G11841   1.242   4.412  12.692  0.9810  0.7301  2.2947
   8823SM  C10F11842   1.372   4.339  12.847  0.1960  0.2483  0.6067
   8823SM  H10F11843   1.424   4.434  12.826 -2.7759  1.7993 -0.3110
   8823SM  H10G11844   1.451   4.261  12.849  2.3242  2.2000 -1.9021
   8823SM  C11F11845   1.294   4.337  12.985 -0.3800  1.2353  0.3792
   8823SM  H11F11846   1.239   4.240  12.992  2.3983 -0.3746  1.5697
   8823SM  H11G11847   1.230   4.427  12.995 -0.2931  1.2579  0.7170
   8823SM  C12F11848   1.385   4.332  13.100 -0.6372 -0.0526 -0.0176
   8823SM  H12F11849   1.435   4.431  13.102  0.6249 -0.6861  0.4709
   8823SM  H12G11850   1.469   4.267  13.067  1.3645  1.7069  1.3714
   8823SM  C13F11851   1.335   4.280  13.236  0.2238  0.2925  0.4767
   8823SM  H13F11852   1.317   4.171  13.245  0.4834  0.0944 -1.1118
   8823SM  H13G11853   1.238   4.331  13.255 -0.7547 -2.0623  2.2151
   8823SM  C14F11854   1.431   4.320  13.350 -0.2280 -0.6558 -0.0402
   8823SM  H14F11855   1.454   4.429  13.344  0.2278 -0.7774 -0.4872
   8823SM  H14G11856   1.525   4.264  13.334 -0.4842 -1.8398  2.1403
   8823SM  C15F11857   1.359   4.287  13.482 -0.0485 -0.2882  0.2113
   8823SM  H15F11858   1.318   4.184  13.475  1.7253 -0.9818 -0.3895
   8823SM  H15G11859   1.278   4.363  13.487  0.5456  0.3360  0.4612
   8823SM  C16F11860   1.458   4.299  13.600  0.3227  0.3679 -0.4828
   8823SM  H16F11861   1.512   4.396  13.596  0.6744  0.3170  1.9462
   8823SM  H16G11862   1.539   4.224  13.601  1.5588  1.6216 -1.6439
   8823SM  C17F11863   1.383   4.295  13.737  0.7783  0.0671  0.0476
   8823SM  H17F11864   1.335   4.195  13.737  0.4659  0.1905 -1.7303
   8823SM  H17G11865   1.299   4.368  13.750  0.2505 -0.4542 -0.3890
   8823SM  C18F11866   1.473   4.318  13.863 -0.3451  0.3014 -0.7611
   8823SM  H18F11867   1.499   4.425  13.872  0.6873 -0.0677  1.5621
   8823SM  H18G11868   1.567   4.260  13.875 -0.0078  1.1271  0.8824
   8823SM  C19F11869   1.391   4.299  13.997  0.5929 -0.0359  0.3244
   8823SM  H19F11870   1.366   4.192  14.012  1.2190 -0.0160  1.6465
   8823SM  H19G11871   1.298   4.354  13.972  1.7973  1.2093 -1.8059
   8823SM  C20F11872   1.452   4.337  14.127  0.1271 -0.2238 -0.5942
   8823SM  H20F11873   1.488   4.442  14.135 -1.2698  0.1478  1.7016
   8823SM  H20G11874   1.541   4.278  14.154 -0.1442  0.6892  2.7187
   8823SM  C21F11875   1.350   4.313  14.238 -1.2582  0.0954  0.2787
   8823SM  H21F11876   1.359   4.206  14.268  3.6253  0.7600  2.1819
   8823SM  H21G11877   1.248   4.344  14.208 -0.6379  1.4289 -0.5185
   8823SM  C22F11878   1.387   4.403  14.361 -0.4185 -0.1933  0.3456
   8823SM  H22F11879   1.372   4.506  14.322  0.7681 -0.5007 -1.0126
   8823SM  H22G11880   1.496   4.395  14.384 -0.0757  1.1114 -0.6352
   8823SM  C23F11881   1.309   4.379  14.485  0.1561 -0.1844 -0.5177
   8823SM  H23F11882   1.325   4.465  14.554 -0.0813 -1.3187  1.0083
   8823SM  H23G11883   1.333   4.288  14.543  1.4806  0.6548  0.2912
   8823SM  H23H11884   1.200   4.374  14.462  0.4685 -2.1745 -1.7505
   8923SM     N11885   4.713   3.518  10.808  0.1549  0.0307 -0.4825
   8923SM   C1511886   4.602   3.417  10.785 -0.3683 -0.1030  0.3777
   8923SM  H15A11887   4.615   3.358  10.696 -0.0263  0.2024  0.2211
   8923SM  H15B11888   4.501   3.455  10.792 -0.9076 -1.0571 -1.6470
   8923SM  H15C11889   4.596   3.340  10.861 -0.4667 -1.2540 -0.7672
   8923SM   C1411890   4.851   3.463  10.783  0.5744  0.1937  0.5591
   8923SM  H14A11891   4.881   3.396  10.862 -0.1427 -1.7511 -0.7415
   8923SM  H14B11892   4.921   3.545  10.782  0.7132  0.0745  0.4800
   8923SM  H14C11893   4.852   3.400  10.695 -1.2346  2.0824 -0.9241
   8923SM   C1311894   4.682   3.627  10.714  0.1633  0.5240  0.1984
   8923SM  H13A11895   4.759   3.702  10.710 -0.5764  1.3594  1.0491
   8923SM  H13B11896   4.594   3.680  10.750 -0.5442 -0.9337  0.7205
   8923SM  H13C11897   4.655   3.590  10.617 -1.2778  0.2846  0.6641
   8923SM   C1211898   4.707   3.572  10.953  0.2246  0.2562  0.3439
   8923SM  H12A11899   4.605   3.585  10.984 -0.2171 -0.5287 -0.7181
   8923SM  H12B11900   4.756   3.668  10.958 -2.3632  1.7374 -0.6334
   8923SM   C1111901   4.780   3.480  11.056 -0.4413  0.3948 -0.2568
   8923SM  H11A11902   4.737   3.518  11.151  0.7448 -1.0907  0.9174
   8923SM  H11B11903   4.890   3.494  11.052 -0.1757 -0.9841  1.2498
   8923SM     P11904   4.818   3.210  11.081  0.0021 -0.1315 -0.2877
   8923SM   O1311905   4.733   3.093  11.064 -0.6561 -0.5017 -1.3385
   8923SM   O1411906   4.949   3.205  11.007 -0.0150  0.6489 -0.3043
   8923SM   O1111907   4.822   3.227  11.242  0.1146 -0.5315 -0.4823
   8923SM   O1211908   4.733   3.343  11.045  0.5288 -0.2290  0.4476
   8923SM   C1S11909   4.931   3.287  11.306 -0.3906 -0.6191 -0.0934
   8923SM   H1S11910   4.952   3.385  11.258 -0.6272 -1.7932 -2.7920
   8923SM   H1T11911   5.030   3.236  11.309  0.5022  1.0835  0.9730
   8923SM    NF11912   4.998   3.390  11.515  0.1569 -0.2093  0.0067
   8923SM   HNF11913   5.079   3.340  11.543  0.6062 -0.1068 -1.0639
   8923SM   C2S11914   4.901   3.305  11.455  0.1356  0.8785  1.1500
   8923SM   H2S11915   4.808   3.366  11.456  1.1264  2.4704  0.6385
   8923SM   C3S11916   4.900   3.166  11.531 -0.0372 -0.1886  0.1754
   8923SM   H3S11917   5.004   3.127  11.523  0.2759  0.8512 -1.0129
   8923SM    O311918   4.834   3.061  11.467  0.8799  0.3317 -0.0031
   8923SM   HO311919   4.806   3.100  11.384 -1.4309  0.1337  0.5969
   8923SM   C4S11920   4.846   3.190  11.674 -0.7192  0.0409  0.3545
   8923SM   H4S11921   4.929   3.196  11.746 -0.1276 -2.2686 -0.0388
   8923SM   C5S11922   4.724   3.204  11.719  0.2583 -0.0362  0.0577
   8923SM   H5S11923   4.640   3.206  11.648  0.4412  1.5294 -0.1399
   8923SM   C6S11924   4.695   3.220  11.864 -0.0519 -0.3473  0.3889
   8923SM   H6S11925   4.777   3.175  11.924 -1.1240 -3.1036 -0.0726
   8923SM   H6T11926   4.605   3.162  11.892 -1.0645  0.1152 -1.7448
   8923SM   C7S11927   4.672   3.373  11.899  0.4912  0.0152  0.1017
   8923SM   H7S11928   4.575   3.408  11.858  1.5651  0.8728 -1.8313
   8923SM   H7T11929   4.750   3.438  11.853 -0.1078 -0.2448 -1.3088
   8923SM   C8S11930   4.650   3.400  12.043  0.6325  0.0500 -0.1351
   8923SM   H8S11931   4.749   3.386  12.092  0.3697 -0.5645  0.2292
   8923SM   H8T11932   4.584   3.323  12.087  0.5936  2.0880  3.7728
   8923SM   C9S11933   4.602   3.542  12.081  0.0135  0.5020 -0.1467
   8923SM   H9S11934   4.527   3.569  12.003  0.3285 -0.9395 -0.9763
   8923SM   H9T11935   4.689   3.611  12.079 -1.2632  2.2354 -2.7003
   8923SM  C10S11936   4.538   3.547  12.219 -0.3344 -0.6984  0.1708
   8923SM  H10S11937   4.590   3.486  12.295  2.0176  0.3755 -0.4955
   8923SM  H10T11938   4.440   3.498  12.200  0.2189 -1.8875  0.3213
   8923SM  C11S11939   4.513   3.689  12.272 -0.0565  0.1309 -0.3810
   8923SM  H11S11940   4.484   3.746  12.181  3.0794 -0.1622 -1.7008
   8923SM  H11T11941   4.614   3.724  12.301 -1.1491  2.8828  0.3462
   8923SM  C12S11942   4.404   3.695  12.382 -0.1843 -0.3324  0.7995
   8923SM  H12S11943   4.312   3.667  12.327 -1.5322  0.4794  2.5355
   8923SM  H12T11944   4.395   3.799  12.419  0.4432 -0.1041  0.3293
   8923SM  C13S11945   4.427   3.593  12.495  0.3661 -0.0076  0.0828
   8923SM  H13S11946   4.447   3.488  12.467 -0.1664  0.1149 -0.7805
   8923SM  H13T11947   4.339   3.603  12.562  1.4379  0.4923  1.4970
   8923SM  C14S11948   4.548   3.640  12.579  0.3181  0.0675 -0.4474
   8923SM  H14S11949   4.536   3.749  12.595 -2.2745 -0.2755  0.4502
   8923SM  H14T11950   4.646   3.633  12.528  2.1202  0.6498  2.6945
   8923SM  C15S11951   4.559   3.570  12.715  0.1975 -0.4845  0.2584
   8923SM  H15S11952   4.535   3.461  12.710 -0.9102 -0.2175 -1.0403
   8923SM  H15T11953   4.478   3.603  12.783 -0.5997  1.9638 -1.7399
   8923SM  C16S11954   4.691   3.602  12.787  0.1031  0.0698  0.2300
   8923SM  H16S11955   4.712   3.711  12.790  1.9259 -0.2850  1.8133
   8923SM  H16T11956   4.772   3.551  12.730 -0.8025 -0.5707 -0.5097
   8923SM  C17S11957   4.690   3.546  12.926 -0.7436  0.2439 -0.2368
   8923SM  H17S11958   4.631   3.452  12.934  1.0373 -0.8060  1.4729
   8923SM  H17T11959   4.633   3.616  12.991 -2.3058 -1.6380  0.4849
   8923SM  C18S11960   4.833   3.521  12.983 -0.4900  0.1300 -0.0426
   8923SM  H18S11961   4.887   3.430  12.951  2.4839  1.3816  1.0629
   8923SM  H18T11962   4.827   3.512  13.093 -1.4577  0.7560 -0.0308
   8923SM  H18U11963   4.900   3.605  12.952 -1.8399  1.0995 -0.4609
   8923SM   C1F11964   5.013   3.521  11.492 -0.5654  0.9769  0.6462
   8923SM    OF11965   4.939   3.593  11.431 -0.4103  0.3048  0.0520
   8923SM   C2F11966   5.135   3.572  11.555  0.1116  0.7520 -0.1359
   8923SM   H2F11967   5.193   3.633  11.482  0.6324  1.5139  0.8847
   8923SM   H2G11968   5.205   3.489  11.578  0.4756  1.1889  0.3522
   8923SM   C3F11969   5.095   3.653  11.681 -0.2602  0.4360 -0.0263
   8923SM   H3F11970   5.039   3.743  11.645 -0.6683 -0.6136 -2.1607
   8923SM   H3G11971   5.185   3.693  11.733 -0.0193 -0.8710  0.5866
   8923SM   C4F11972   5.021   3.575  11.789 -0.2258 -0.4028  0.2677
   8923SM   H4F11973   4.921   3.535  11.764 -0.3966 -0.5236  1.1207
   8923SM   H4G11974   5.003   3.661  11.856  0.9695  1.8935 -2.1628
   8923SM   C5F11975   5.094   3.464  11.858 -0.0063  0.4542 -0.2778
   8923SM   H5F11976   5.203   3.486  11.870  0.3019 -1.0011 -0.2605
   8923SM   H5G11977   5.087   3.376  11.791 -1.7333  0.0027  0.4494
   8923SM   C6F11978   5.044   3.421  11.997 -1.1779 -0.5570 -0.4273
   8923SM   H6F11979   5.118   3.362  12.055 -1.1475 -1.8203 -1.7167
   8923SM   H6G11980   4.952   3.360  11.988 -0.6646 -1.5012  0.5467
   8923SM   C7F11981   5.014   3.541  12.098  0.2654 -0.0765 -0.0970
   8923SM   H7F11982   4.917   3.584  12.063  0.7799  0.8842 -0.3751
   8923SM   H7G11983   5.083   3.627  12.087 -1.0892  0.9055 -1.4272
   8923SM   C8F11984   4.984   3.490  12.238 -0.5052  0.9352 -0.2782
   8923SM   H8F11985   4.927   3.396  12.227  2.3422 -1.0095  0.4624
   8923SM   H8G11986   4.921   3.570  12.281  1.0160  2.3197 -0.4977
   8923SM   C9F11987   5.110   3.480  12.332  0.6803  0.0459 -0.0167
   8923SM   H9F11988   5.178   3.568  12.326  2.4058 -0.8593  3.4302
   8923SM   H9G11989   5.165   3.385  12.315  1.0705 -0.3338  2.8598
   8923SM  C10F11990   5.064   3.472  12.479 -0.8459  0.2541 -0.5503
   8923SM  H10F11991   4.983   3.396  12.476 -1.5238  0.7596  2.0402
   8923SM  H10G11992   5.007   3.560  12.516  0.7172  1.3622 -0.6913
   8923SM  C11F11993   5.175   3.428  12.569 -0.2234  0.0344  0.4605
   8923SM  H11F11994   5.268   3.483  12.542  0.1082  0.7657  2.8418
   8923SM  H11G11995   5.188   3.319  12.551 -1.2690 -0.0208  0.0002
   8923SM  C12F11996   5.141   3.445  12.716  0.0513  0.2715  0.2607
   8923SM  H12F11997   5.034   3.429  12.738 -0.6090  1.8330 -1.5281
   8923SM  H12G11998   5.152   3.555  12.727 -2.1653  0.8100 -1.9363
   8923SM  C13F11999   5.230   3.356  12.807 -0.1764  0.0449 -0.0414
   8923SM  H13F12000   5.336   3.371  12.778 -0.3177  0.9054 -0.1267
   8923SM  H13G12001   5.208   3.248  12.794 -1.4676 -0.2237  3.1666
   8923SM  C14F12002   5.203   3.374  12.957 -0.3520  0.1633 -0.3291
   8923SM  H14F12003   5.104   3.338  12.993  0.7949 -0.7893  2.0962
   8923SM  H14G12004   5.211   3.482  12.982  0.3462  0.1502 -0.4884
   8923SM  C15F12005   5.308   3.294  13.042 -0.8881 -0.1003 -0.6322
   8923SM  H15F12006   5.412   3.320  13.015 -0.2527 -0.9788  0.8834
   8923SM  H15G12007   5.287   3.186  13.026 -0.7354 -0.2525  0.1944
   8923SM  C16F12008   5.297   3.304  13.204  0.7932  0.0704  0.0189
   8923SM  H16F12009   5.377   3.247  13.256 -0.1684 -0.1856  1.2433
   8923SM  H16G12010   5.201   3.256  13.232 -0.3879  0.2264 -3.2753
   8923SM  C17F12011   5.287   3.447  13.250  0.7425 -0.1015 -0.6731
   8923SM  H17F12012   5.182   3.482  13.250  0.3495 -1.1066  1.8039
   8923SM  H17G12013   5.337   3.514  13.176  0.8287  1.4587  0.7435
   8923SM  C18F12014   5.361   3.489  13.380 -0.5054  0.3642  0.2717
   8923SM  H18F12015   5.341   3.598  13.396  0.1224  0.5331 -0.0491
   8923SM  H18G12016   5.471   3.480  13.375 -0.2775  2.7273 -0.7061
   8923SM  C19F12017   5.316   3.414  13.501 -0.3644  0.2577 -0.2061
   8923SM  H19F12018   5.320   3.303  13.494  0.3987  0.3206 -1.0116
   8923SM  H19G12019   5.216   3.446  13.537 -0.7743 -1.0213 -0.1650
   8923SM  C20F12020   5.394   3.449  13.633  0.5676  0.1361  0.5474
   8923SM  H20F12021   5.376   3.557  13.650  1.4770  0.2655  0.7297
   8923SM  H20G12022   5.502   3.436  13.610  0.8455  2.3291  0.3896
   8923SM  C21F12023   5.346   3.380  13.754  0.2286 -0.5388 -0.3889
   8923SM  H21F12024   5.240   3.390  13.784 -0.1840  0.8221 -2.1226
   8923SM  H21G12025   5.395   3.420  13.845 -1.4051 -1.0318  0.7424
   8923SM  C22F12026   5.377   3.229  13.764 -0.5799  0.3209 -0.1636
   8923SM  H22F12027   5.484   3.210  13.742 -1.0682 -1.5037 -1.1572
   8923SM  H22G12028   5.316   3.171  13.692 -2.2669 -1.4876  2.4942
   8923SM  C23F12029   5.350   3.181  13.909  0.3114  0.4549 -0.0937
   8923SM  H23F12030   5.422   3.227  13.981  1.3903  1.9499 -2.0117
   8923SM  H23G12031   5.356   3.070  13.905  0.3045  0.4126  0.8907
   8923SM  H23H12032   5.246   3.199  13.942  0.1590 -0.8555  0.1764
   9023SM     N12033   3.986   3.599  10.928 -0.5633 -0.1778 -0.4418
   9023SM   C1512034   3.943   3.735  10.883  0.6162  0.5562 -0.3272
   9023SM  H15A12035   3.948   3.736  10.776  0.7846 -2.4416 -0.4454
   9023SM  H15B12036   4.003   3.812  10.930  0.2834  1.0738 -0.7469
   9023SM  H15C12037   3.845   3.757  10.922  1.3976 -0.9882  2.9160
   9023SM   C1412038   3.901   3.502  10.859  0.0415 -0.0246  0.1996
   9023SM  H14A12039   3.914   3.397  10.884 -2.7509 -0.4294  0.2340
   9023SM  H14B12040   3.900   3.519  10.752 -2.4714  1.0855  0.3389
   9023SM  H14C12041   3.798   3.512  10.888  0.2990 -0.4104  1.2954
   9023SM   C1312042   4.133   3.586  10.891  0.1759  0.0652 -0.3655
   9023SM  H13A12043   4.196   3.647  10.954  1.0626 -0.0874 -1.0961
   9023SM  H13B12044   4.145   3.610  10.787 -0.1684  0.9170 -0.2153
   9023SM  H13C12045   4.169   3.485  10.906 -2.8037 -0.9993  0.4297
   9023SM   C1212046   3.978   3.589  11.080 -0.5954  0.3776  0.0014
   9023SM  H12A12047   4.001   3.486  11.101 -1.9421 -0.5661 -2.7872
   9023SM  H12B12048   3.876   3.606  11.112 -0.9174  0.0061 -0.8096
   9023SM   C1112049   4.064   3.674  11.175 -0.2171  0.9386  0.0110
   9023SM  H11A12050   4.010   3.674  11.272 -0.6227  2.8132 -0.1774
   9023SM  H11B12051   4.053   3.777  11.134 -2.5433  1.1057  0.9005
   9023SM     P12052   4.224   3.503  11.281  0.0668 -0.0001 -0.0174
   9023SM   O1312053   4.141   3.388  11.243  0.0635  0.3514  0.3724
   9023SM   O1412054   4.369   3.491  11.282 -0.0471 -0.2181  0.1059
   9023SM   O1112055   4.178   3.559  11.418 -0.7581  0.2402  0.6621
   9023SM   O1212056   4.198   3.626  11.185 -0.3471  0.2568  0.7695
   9023SM   C1S12057   4.240   3.674  11.472  0.2762  0.0051 -0.3335
   9023SM   H1S12058   4.191   3.766  11.435  0.9759  0.1390 -0.9350
   9023SM   H1T12059   4.350   3.673  11.458  0.8366 -0.8677  3.0750
   9023SM    NF12060   4.278   3.809  11.673  0.5469  0.2151  0.0979
   9023SM   HNF12061   4.364   3.802  11.722 -0.8980 -1.0516  2.6870
   9023SM   C2S12062   4.215   3.687  11.631 -0.0086  0.6330 -0.3046
   9023SM   H2S12063   4.105   3.697  11.645 -0.4823 -3.0339 -0.4449
   9023SM   C3S12064   4.248   3.560  11.713  0.0372  0.2468  0.0291
   9023SM   H3S12065   4.359   3.547  11.719  0.1606 -1.1144 -3.1122
   9023SM    O312066   4.210   3.436  11.653  0.4449  0.6447  0.3299
   9023SM   HO312067   4.197   3.458  11.561  2.4273 -2.8207 -0.9737
   9023SM   C4S12068   4.209   3.572  11.856  0.6823  0.3740 -1.0266
   9023SM   H4S12069   4.299   3.607  11.910 -0.0368  1.3908 -0.4545
   9023SM   C5S12070   4.091   3.560  11.919  0.5295 -0.1732 -0.1109
   9023SM   H5S12071   4.009   3.528  11.853  0.3998  2.2972 -1.2570
   9023SM   C6S12072   4.064   3.580  12.067 -0.0596 -0.1534  0.3067
   9023SM   H6S12073   4.158   3.591  12.126  0.3783 -1.2025 -0.1640
   9023SM   H6T12074   4.011   3.494  12.113  1.6860 -1.3586  0.1699
   9023SM   C7S12075   3.969   3.701  12.096 -0.0802  0.0226 -0.4258
   9023SM   H7S12076   3.872   3.678  12.047  1.0770  0.2109 -2.9669
   9023SM   H7T12077   4.017   3.785  12.040  0.2531 -0.8521 -1.4826
   9023SM   C8S12078   3.958   3.735  12.243  0.3443 -0.1313 -1.2862
   9023SM   H8S12079   3.890   3.822  12.255  0.4603  0.2070 -2.8863
   9023SM   H8T12080   4.062   3.753  12.279  0.3925 -2.2227 -0.2379
   9023SM   C9S12081   3.893   3.629  12.332  0.4189 -0.0007 -0.7069
   9023SM   H9S12082   3.952   3.535  12.328 -0.1054 -0.4281  0.8068
   9023SM   H9T12083   3.791   3.602  12.297  0.1548  2.0818 -1.7009
   9023SM  C10S12084   3.889   3.663  12.484  0.9069 -0.3542  0.4378
   9023SM  H10S12085   3.831   3.581  12.531 -0.2249  0.3846  0.3586
   9023SM  H10T12086   3.830   3.756  12.494  0.4370 -0.8022  2.0432
   9023SM  C11S12087   4.022   3.674  12.553  0.1719  0.0116  0.4748
   9023SM  H11S12088   4.087   3.750  12.505  0.2440  0.1215  0.7456
   9023SM  H11T12089   4.071   3.575  12.547  0.7497  0.3343 -0.1885
   9023SM  C12S12090   4.009   3.700  12.699 -0.0356  0.0109 -0.1065
   9023SM  H12S12091   3.959   3.615  12.750 -1.6659  0.5907 -0.6683
   9023SM  H12T12092   3.953   3.796  12.712 -0.1056  0.1801 -1.5001
   9023SM  C13S12093   4.153   3.718  12.758  0.1768 -0.0239  0.0791
   9023SM  H13S12094   4.187   3.822  12.739 -3.2575  0.5894 -4.3646
   9023SM  H13T12095   4.221   3.654  12.698 -2.6071 -0.4118 -2.9451
   9023SM  C14S12096   4.149   3.679  12.916 -0.4489 -0.0948  0.2298
   9023SM  H14S12097   4.252   3.684  12.957 -1.1565  0.5318  2.0606
   9023SM  H14T12098   4.104   3.578  12.930 -1.6930  0.2592 -0.9890
   9023SM  C15S12099   4.064   3.780  13.005  0.1470  0.2689 -0.1834
   9023SM  H15S12100   3.954   3.776  12.990 -0.0187  1.2497  0.6561
   9023SM  H15T12101   4.089   3.885  12.980  3.1062 -0.0487  1.0540
   9023SM  C16S12102   4.084   3.751  13.157 -0.1212 -0.5805  0.1552
   9023SM  H16S12103   4.191   3.753  13.187  0.0788  0.5283 -0.5745
   9023SM  H16T12104   4.053   3.649  13.186 -0.8906  0.1553  2.0706
   9023SM  C17S12105   4.020   3.868  13.247 -0.1793  0.7627  0.0511
   9023SM  H17S12106   4.090   3.950  13.221  1.2295 -0.4925 -0.2907
   9023SM  H17T12107   4.033   3.844  13.355 -1.2972 -1.7635 -0.2873
   9023SM  C18S12108   3.871   3.900  13.229  0.2637 -0.2909  0.3917
   9023SM  H18S12109   3.841   3.919  13.124 -0.6849  0.8675  0.8510
   9023SM  H18T12110   3.853   4.001  13.270 -1.9534 -0.7912  0.7763
   9023SM  H18U12111   3.795   3.834  13.276 -1.0280 -1.0312 -2.4916
   9023SM   C1F12112   4.241   3.932  11.646 -1.3987 -0.4951  0.6773
   9023SM    OF12113   4.143   3.960  11.576  0.4092  0.3562  0.1282
   9023SM   C2F12114   4.322   4.039  11.717 -0.3247 -0.3437 -0.5463
   9023SM   H2F12115   4.325   4.125  11.646 -0.6135 -0.0095 -0.1574
   9023SM   H2G12116   4.427   4.001  11.718 -1.0341 -2.4037 -0.2114
   9023SM   C3F12117   4.277   4.077  11.861 -0.1764 -0.6299 -0.9894
   9023SM   H3F12118   4.173   4.115  11.866 -1.5049 -4.1148  1.8058
   9023SM   H3G12119   4.344   4.158  11.897  2.0932 -2.3776 -1.0281
   9023SM   C4F12120   4.291   3.954  11.953  0.1300  0.2457 -0.2471
   9023SM   H4F12121   4.396   3.918  11.947 -0.1321 -0.4332 -0.7654
   9023SM   H4G12122   4.224   3.867  11.936  1.1998 -0.3612 -1.4532
   9023SM   C5F12123   4.273   3.996  12.099  0.6612 -0.6551 -0.7238
   9023SM   H5F12124   4.361   4.056  12.130 -1.1043  1.3425  0.6469
   9023SM   H5G12125   4.276   3.903  12.161 -0.4819 -1.2968 -1.5891
   9023SM   C6F12126   4.139   4.069  12.134 -0.2964  0.1807  0.7965
   9023SM   H6F12127   4.054   4.018  12.084  1.4838 -0.7579 -1.4355
   9023SM   H6G12128   4.144   4.164  12.077  4.2904 -0.7627 -0.7916
   9023SM   C7F12129   4.128   4.100  12.285  0.1713 -0.3188 -0.1231
   9023SM   H7F12130   4.217   4.158  12.316 -0.7458  1.2725 -0.3652
   9023SM   H7G12131   4.120   3.999  12.330  0.6061 -0.4662 -0.3755
   9023SM   C8F12132   3.995   4.170  12.318 -0.5545  0.0655  0.3173
   9023SM   H8F12133   3.918   4.096  12.348 -0.9206  0.0070 -0.7385
   9023SM   H8G12134   3.961   4.233  12.233 -0.7573 -2.1420 -1.3261
   9023SM   C9F12135   4.006   4.241  12.450  0.1660  0.2077  0.3949
   9023SM   H9F12136   3.928   4.320  12.453  1.2484  1.3603 -0.9071
   9023SM   H9G12137   4.109   4.282  12.455  0.7994 -1.3174  0.2904
   9023SM  C10F12138   3.989   4.151  12.575 -0.6572  0.2570  0.1939
   9023SM  H10F12139   4.060   4.066  12.582 -0.6941  0.2115  0.0166
   9023SM  H10G12140   3.887   4.108  12.582 -0.5061 -0.0277  0.6991
   9023SM  C11F12141   3.998   4.234  12.699  0.1870 -0.4635 -0.4993
   9023SM  H11F12142   3.913   4.305  12.699  0.1533 -0.4639  1.1661
   9023SM  H11G12143   4.086   4.301  12.702  0.5421 -0.8879 -1.1370
   9023SM  C12F12144   4.004   4.162  12.834  0.3983 -0.0730 -0.0099
   9023SM  H12F12145   4.095   4.099  12.830  0.0795 -0.5222 -3.5580
   9023SM  H12G12146   3.920   4.090  12.847  1.6678 -1.8490 -1.1711
   9023SM  C13F12147   4.017   4.273  12.944  0.1246  0.4352  0.0294
   9023SM  H13F12148   3.933   4.345  12.929 -0.5246 -0.0715  1.1271
   9023SM  H13G12149   4.115   4.321  12.926  0.3769 -0.4153 -0.9792
   9023SM  C14F12150   4.020   4.231  13.091  0.0173  1.0712  0.6524
   9023SM  H14F12151   4.094   4.149  13.089  1.3274  2.2067 -1.6701
   9023SM  H14G12152   3.918   4.194  13.113  0.3415  0.5266  1.2348
   9023SM  C15F12153   4.085   4.331  13.181 -0.5844  1.3113 -0.5793
   9023SM  H15F12154   4.005   4.404  13.202 -1.1410  0.5165  0.1297
   9023SM  H15G12155   4.179   4.371  13.136 -0.6172 -0.5102 -2.4413
   9023SM  C16F12156   4.117   4.262  13.318  0.2241  0.2143 -0.0916
   9023SM  H16F12157   4.170   4.170  13.288  2.4501  1.4495 -0.1697
   9023SM  H16G12158   4.020   4.246  13.370 -1.2925  0.9138 -2.5167
   9023SM  C17F12159   4.205   4.342  13.415 -0.2710 -1.0327 -0.0597
   9023SM  H17F12160   4.217   4.275  13.503  0.7003 -2.3035 -1.1164
   9023SM  H17G12161   4.159   4.440  13.437  2.3212  0.4118 -0.6693
   9023SM  C18F12162   4.345   4.364  13.358 -0.4156 -0.0185  1.0923
   9023SM  H18F12163   4.353   4.430  13.270  0.0776 -4.0050 -2.1443
   9023SM  H18G12164   4.380   4.263  13.329  1.2223  0.8959 -0.2621
   9023SM  C19F12165   4.445   4.413  13.460  0.6363  0.7506  0.6999
   9023SM  H19F12166   4.435   4.518  13.497  3.0513  1.4532 -0.4607
   9023SM  H19G12167   4.537   4.406  13.399 -0.3669 -1.3955 -0.6909
   9023SM  C20F12168   4.446   4.326  13.586 -0.9240 -0.1047  0.1933
   9023SM  H20F12169   4.447   4.218  13.559  0.2018  0.5683 -2.8521
   9023SM  H20G12170   4.352   4.349  13.641 -0.7621 -1.1016  0.9065
   9023SM  C21F12171   4.565   4.358  13.678 -0.1779  0.4545  0.5042
   9023SM  H21F12172   4.524   4.336  13.779 -4.4520  0.3208 -1.0618
   9023SM  H21G12173   4.588   4.467  13.677 -0.3156  0.5007  1.3937
   9023SM  C22F12174   4.694   4.277  13.657  0.2354  0.4707 -0.0025
   9023SM  H22F12175   4.718   4.295  13.550 -1.0795  0.1242 -0.3691
   9023SM  H22G12176   4.682   4.167  13.667  0.8348  0.4041  0.0622
   9023SM  C23F12177   4.796   4.332  13.758  0.0325 -0.1487  0.2452
   9023SM  H23F12178   4.888   4.269  13.758 -0.4262 -0.8641 -0.9443
   9023SM  H23G12179   4.756   4.355  13.859  0.9351  1.8543  0.1986
   9023SM  H23H12180   4.833   4.431  13.725  0.4443 -0.4361 -0.1841
   9123SM     N12181   4.409   6.470  10.816 -0.6344  0.0489 -0.2275
   9123SM   C1512182   4.442   6.590  10.898 -0.7901  0.6357 -0.3131
   9123SM  H15A12183   4.437   6.557  11.000  1.0395 -0.7719 -0.6299
   9123SM  H15B12184   4.373   6.671  10.879  1.4479  2.6514 -0.3229
   9123SM  H15C12185   4.539   6.630  10.874  0.1772 -0.4006  1.7020
   9123SM   C1412186   4.270   6.435  10.854  0.5197 -0.1815  0.4470
   9123SM  H14A12187   4.245   6.336  10.818 -4.1209  0.5981  0.9185
   9123SM  H14B12188   4.199   6.505  10.812  0.8436 -0.7259 -1.0693
   9123SM  H14C12189   4.261   6.426  10.961  1.7704  0.9818  0.6758
   9123SM   C1312190   4.418   6.492  10.667  0.1993  0.5859  0.2389
   9123SM  H13A12191   4.382   6.405  10.615 -0.5187 -0.3061  2.1218
   9123SM  H13B12192   4.517   6.519  10.634  0.6544 -1.4853 -0.2301
   9123SM  H13C12193   4.344   6.566  10.637 -0.4434 -0.0376  0.2641
   9123SM   C1212194   4.502   6.364  10.852 -0.4057 -0.5694 -0.0929
   9123SM  H12A12195   4.604   6.390  10.829 -0.3587  2.3623  2.7829
   9123SM  H12B12196   4.470   6.281  10.790  0.6874 -1.3644  0.3869
   9123SM   C1112197   4.499   6.314  11.003 -0.8742 -0.0157 -0.2276
   9123SM  H11A12198   4.547   6.215  11.012  0.8275  0.8683  1.0212
   9123SM  H11B12199   4.394   6.314  11.041  0.1831  1.0002  3.0492
   9123SM     P12200   4.717   6.428  11.093  0.2894 -0.0255 -0.2098
   9123SM   O1312201   4.776   6.335  10.994  0.0115 -0.5351  0.2543
   9123SM   O1412202   4.748   6.568  11.056  0.8622 -0.1264 -0.5083
   9123SM   O1112203   4.764   6.396  11.237 -0.0817 -0.7321  0.1997
   9123SM   O1212204   4.557   6.409  11.094 -0.2444 -0.5079  0.2775
   9123SM   C1S12205   4.712   6.286  11.308  0.0550  0.6021  0.2007
   9123SM   H1S12206   4.766   6.197  11.267  0.9734  0.6443  1.2674
   9123SM   H1T12207   4.609   6.259  11.278  0.5715  0.5460 -1.6957
   9123SM    NF12208   4.699   6.164  11.524 -0.6237 -0.6202  0.1231
   9123SM   HNF12209   4.616   6.159  11.578 -0.1808 -1.2386  0.7544
   9123SM   C2S12210   4.729   6.288  11.461  0.9660 -0.4311 -0.2068
   9123SM   H2S12211   4.838   6.302  11.476  0.5949  1.2281  1.5051
   9123SM   C3S12212   4.660   6.412  11.522 -0.3396 -0.3469 -0.2486
   9123SM   H3S12213   4.550   6.397  11.533 -0.1331 -0.1645  2.8856
   9123SM    O312214   4.670   6.531  11.439 -0.6100 -0.2089  0.2543
   9123SM   HO312215   4.701   6.498  11.354  0.1501  0.2046  0.3657
   9123SM   C4S12216   4.718   6.441  11.657  0.1355 -0.3006 -0.1742
   9123SM   H4S12217   4.826   6.464  11.658  0.1270 -0.2642  0.2781
   9123SM   C5S12218   4.660   6.453  11.776  0.1190 -0.2813  0.2912
   9123SM   H5S12219   4.553   6.432  11.781 -0.1351  0.0955 -2.3144
   9123SM   C6S12220   4.725   6.490  11.910  0.1278  0.2547  0.5915
   9123SM   H6S12221   4.740   6.598  11.932  0.8363 -0.0596  1.7061
   9123SM   H6T12222   4.823   6.439  11.919  0.3558  0.4053 -0.7707
   9123SM   C7S12223   4.631   6.430  12.018 -0.0379 -0.2388 -0.3728
   9123SM   H7S12224   4.592   6.329  11.997  0.7943 -0.8375  0.8498
   9123SM   H7T12225   4.550   6.505  12.024  1.0951  1.0595 -0.6767
   9123SM   C8S12226   4.708   6.434  12.148  0.5207 -0.0507 -0.6662
   9123SM   H8S12227   4.768   6.528  12.144  2.2989 -0.9514  1.9929
   9123SM   H8T12228   4.774   6.345  12.158 -1.8064 -1.6974  1.2760
   9123SM   C9S12229   4.621   6.464  12.270  0.4680  0.6816 -0.0070
   9123SM   H9S12230   4.514   6.439  12.251  0.7301 -0.6710  0.2292
   9123SM   H9T12231   4.628   6.571  12.299  1.3335  0.5746  0.2102
   9123SM  C10S12232   4.679   6.401  12.394  0.2982  0.0916 -0.8848
   9123SM  H10S12233   4.789   6.418  12.393  0.6066 -1.7128 -1.9729
   9123SM  H10T12234   4.671   6.291  12.398  2.0729 -0.1087 -1.6134
   9123SM  C11S12235   4.605   6.451  12.515 -0.1361  0.8921 -0.1089
   9123SM  H11S12236   4.496   6.429  12.518  0.1216 -0.3917  1.3358
   9123SM  H11T12237   4.618   6.561  12.524 -0.0227  0.7453  1.9137
   9123SM  C12S12238   4.662   6.377  12.646  0.4770  0.6509  0.6489
   9123SM  H12S12239   4.771   6.361  12.640  0.5480  0.9767  1.0358
   9123SM  H12T12240   4.610   6.280  12.663  1.5363 -0.1746 -0.6139
   9123SM  C13S12241   4.640   6.470  12.773  0.0415  0.3332  0.0036
   9123SM  H13S12242   4.538   6.510  12.754  0.5650  1.5351 -0.3796
   9123SM  H13T12243   4.710   6.556  12.777 -0.4647  0.7608 -0.3049
   9123SM  C14S12244   4.643   6.415  12.921  0.2563  0.2343  0.4295
   9123SM  H14S12245   4.750   6.400  12.950 -0.0753 -0.3810  1.3968
   9123SM  H14T12246   4.600   6.313  12.925  1.4243 -0.2893  0.1077
   9123SM  C15S12247   4.564   6.509  13.020  0.0329 -0.4419  0.4488
   9123SM  H15S12248   4.459   6.526  12.989 -0.0189  1.3169  1.4091
   9123SM  H15T12249   4.615   6.608  13.015  0.8610 -0.7543  1.9691
   9123SM  C16S12250   4.567   6.449  13.156  0.2101 -0.6080 -0.2405
   9123SM  H16S12251   4.661   6.400  13.190  0.5180  0.8734  1.2262
   9123SM  H16T12252   4.483   6.379  13.178 -0.5890 -0.0397 -1.4037
   9123SM  C17S12253   4.542   6.558  13.267  0.1036  0.6299 -0.1257
   9123SM  H17S12254   4.443   6.604  13.248 -1.0031 -1.5679 -0.0165
   9123SM  H17T12255   4.616   6.640  13.265  0.4454  0.3191 -0.5089
   9123SM  C18S12256   4.553   6.501  13.413 -0.4215  0.0620  0.8195
   9123SM  H18S12257   4.537   6.574  13.496  0.0131  0.2504  0.7361
   9123SM  H18T12258   4.658   6.467  13.429 -0.3746  0.6066  1.7831
   9123SM  H18U12259   4.496   6.405  13.419  1.7343 -1.5087 -1.6783
   9123SM   C1F12260   4.790   6.066  11.519 -0.5146  0.1405 -0.5112
   9123SM    OF12261   4.892   6.077  11.452  0.3656 -0.3053  0.2893
   9123SM   C2F12262   4.749   5.939  11.578 -0.2827 -0.3827 -0.3172
   9123SM   H2F12263   4.727   5.865  11.498  1.9004 -2.3831  0.8224
   9123SM   H2G12264   4.658   5.956  11.640 -1.4864  1.4461 -2.4106
   9123SM   C3F12265   4.862   5.883  11.664 -0.0260 -0.3005 -0.2368
   9123SM   H3F12266   4.951   5.894  11.599 -0.1831  3.9108 -0.0241
   9123SM   H3G12267   4.843   5.774  11.673 -2.0831 -0.0166 -0.5681
   9123SM   C4F12268   4.895   5.953  11.798  0.5002  0.6322 -0.4949
   9123SM   H4F12269   4.891   6.064  11.788  2.1916  0.8013  0.4054
   9123SM   H4G12270   4.996   5.926  11.835 -0.3934  1.0580  2.4820
   9123SM   C5F12271   4.819   5.906  11.922  0.5645  0.1910 -0.4891
   9123SM   H5F12272   4.815   5.795  11.928  0.7522  0.2257  0.4962
   9123SM   H5G12273   4.713   5.936  11.909  0.4453  0.4332  0.8960
   9123SM   C6F12274   4.872   5.978  12.046 -0.1063  0.3479 -0.2702
   9123SM   H6F12275   4.870   6.088  12.032  2.8717  0.3092 -1.9959
   9123SM   H6G12276   4.978   5.944  12.050 -1.0026 -2.9900 -1.2650
   9123SM   C7F12277   4.795   5.951  12.178 -0.2638 -0.0494  0.1547
   9123SM   H7F12278   4.775   5.842  12.190  1.1679 -0.2744  0.8038
   9123SM   H7G12279   4.693   5.995  12.178  0.0009  0.5878 -1.1187
   9123SM   C8F12280   4.879   6.000  12.290  0.7828 -0.1859 -0.2970
   9123SM   H8F12281   4.902   6.109  12.283  1.3954 -0.3140 -0.3117
   9123SM   H8G12282   4.983   5.960  12.297  0.5686 -0.8281 -0.7610
   9123SM   C9F12283   4.804   5.971  12.424  0.7840 -0.0986 -0.3647
   9123SM   H9F12284   4.803   5.861  12.443  0.7014  0.1290  1.0483
   9123SM   H9G12285   4.699   6.008  12.430  1.3013  1.5767 -1.1159
   9123SM  C10F12286   4.879   6.010  12.555  0.2605  0.1521  0.6725
   9123SM  H10F12287   4.886   6.121  12.558 -0.1595  0.2091 -0.3155
   9123SM  H10G12288   4.979   5.962  12.565 -0.1053 -0.1915  3.3737
   9123SM  C11F12289   4.790   5.981  12.671  0.3418 -0.7625  0.4442
   9123SM  H11F12290   4.785   5.875  12.704  0.7981 -1.4130 -1.4512
   9123SM  H11G12291   4.688   6.004  12.634  0.9515 -2.5582 -2.7429
   9123SM  C12F12292   4.830   6.049  12.805  0.4857 -0.1078  0.4581
   9123SM  H12F12293   4.834   6.160  12.792  0.9216 -0.1477  0.2045
   9123SM  H12G12294   4.935   6.026  12.832  0.7321  0.9882  0.4828
   9123SM  C13F12295   4.735   6.012  12.914  0.0044  0.7587 -0.4874
   9123SM  H13F12296   4.713   5.903  12.913 -1.6355  1.0512  0.0279
   9123SM  H13G12297   4.634   6.057  12.898  0.0589  0.1129 -2.8815
   9123SM  C14F12298   4.788   6.061  13.046  0.3151  0.1345 -0.3169
   9123SM  H14F12299   4.827   6.165  13.050  1.8760 -0.4032 -0.9017
   9123SM  H14G12300   4.884   6.005  13.048  0.4109  0.2728 -1.0302
   9123SM  C15F12301   4.689   6.024  13.159 -0.1398 -0.1174  0.6992
   9123SM  H15F12302   4.669   5.915  13.144 -2.1275  0.3351 -0.1746
   9123SM  H15G12303   4.589   6.070  13.148  0.3418  0.6958 -0.4320
   9123SM  C16F12304   4.737   6.054  13.307  0.5749  0.1128  0.5154
   9123SM  H16F12305   4.674   6.132  13.355  1.2421  0.2436  1.1915
   9123SM  H16G12306   4.842   6.090  13.301  0.6326 -0.1505 -0.2056
   9123SM  C17F12307   4.741   5.933  13.392 -0.6409  1.2640  0.1237
   9123SM  H17F12308   4.791   5.849  13.339 -1.1053  0.8615  0.3112
   9123SM  H17G12309   4.638   5.899  13.417 -0.6702  1.3166  0.0734
   9123SM  C18F12310   4.821   5.947  13.527  0.4106 -0.8206  0.2133
   9123SM  H18F12311   4.768   6.012  13.600  1.8088  0.0372  0.4926
   9123SM  H18G12312   4.919   5.996  13.509 -0.4383  0.5169 -0.9156
   9123SM  C19F12313   4.851   5.813  13.598  0.5398  0.2549  0.3096
   9123SM  H19F12314   4.894   5.841  13.697  1.1661  1.3463 -0.2549
   9123SM  H19G12315   4.933   5.760  13.544  2.6872  1.4806  2.2104
   9123SM  C20F12316   4.729   5.724  13.613  0.0048 -0.1843  0.5672
   9123SM  H20F12317   4.675   5.699  13.520 -0.6057 -1.5944  1.2597
   9123SM  H20G12318   4.653   5.767  13.681 -0.4328 -0.0689  0.0104
   9123SM  C21F12319   4.764   5.593  13.693 -0.0109 -0.6189  0.2194
   9123SM  H21F12320   4.673   5.529  13.700 -0.3069 -0.0394  2.1003
   9123SM  H21G12321   4.781   5.619  13.799 -2.1300  3.2587 -0.2136
   9123SM  C22F12322   4.887   5.517  13.635 -0.0130 -0.2517  0.1636
   9123SM  H22F12323   4.975   5.584  13.644 -0.1633  0.4282 -2.5337
   9123SM  H22G12324   4.879   5.494  13.526 -2.2166 -1.8781  0.6150
   9123SM  C23F12325   4.899   5.370  13.690  0.3075  0.3870  0.1590
   9123SM  H23F12326   4.980   5.308  13.648  0.5973  1.2310 -0.5644
   9123SM  H23G12327   4.809   5.309  13.668  1.6524 -1.3654 -0.6617
   9123SM  H23H12328   4.897   5.385  13.801  0.1444  1.6945  0.0035
   9223SM     N12329   3.602   2.744  11.009 -0.1224 -0.1781  0.0596
   9223SM   C1512330   3.492   2.782  11.100  0.0988 -0.1350  0.4939
   9223SM  H15A12331   3.437   2.867  11.062  1.4197  0.4857 -0.1273
   9223SM  H15B12332   3.529   2.807  11.198  0.3062 -1.5051  0.7815
   9223SM  H15C12333   3.417   2.705  11.107  0.3324 -0.3109  1.0556
   9223SM   C1412334   3.546   2.693  10.883  0.5543  0.4128 -0.3812
   9223SM  H14A12335   3.500   2.777  10.833  0.3999  1.4595  1.4411
   9223SM  H14B12336   3.475   2.614  10.901  1.2259 -0.0146  0.4639
   9223SM  H14C12337   3.617   2.649  10.814 -0.0256 -2.3796  0.6576
   9223SM   C1312338   3.681   2.867  10.979 -0.2731  0.6795  0.3221
   9223SM  H13A12339   3.768   2.843  10.919 -0.5057  2.1763 -0.6618
   9223SM  H13B12340   3.716   2.913  11.070  3.2722 -1.5822  0.2767
   9223SM  H13C12341   3.615   2.935  10.926 -1.0605 -0.1342  0.2180
   9223SM   C1212342   3.696   2.634  11.076 -0.1278 -0.2967  0.1036
   9223SM  H12A12343   3.745   2.691  11.153  2.0637 -1.4151 -0.3620
   9223SM  H12B12344   3.774   2.603  11.007 -0.2825 -1.7930  0.5537
   9223SM   C1112345   3.626   2.510  11.133 -0.5162  0.0273 -0.5153
   9223SM  H11A12346   3.704   2.431  11.141  0.4069  0.9566 -0.2561
   9223SM  H11B12347   3.543   2.473  11.069 -3.8278  0.0824  3.3230
   9223SM     P12348   3.459   2.424  11.306  0.6684 -0.2246  0.1006
   9223SM   O1312349   3.342   2.426  11.210 -0.0410  0.0542  0.2885
   9223SM   O1412350   3.531   2.294  11.324 -0.1818  0.1798  0.3197
   9223SM   O1112351   3.413   2.476  11.452 -0.1485 -0.0865 -0.0481
   9223SM   O1212352   3.569   2.535  11.263  0.0593 -1.1019  0.1643
   9223SM   C1S12353   3.421   2.618  11.491  0.6061 -0.5291 -0.1092
   9223SM   H1S12354   3.338   2.677  11.446  0.3101  0.0124  1.1062
   9223SM   H1T12355   3.514   2.660  11.448 -1.0891  2.1811 -1.3824
   9223SM    NF12356   3.388   2.788  11.680 -0.0628 -0.2642 -0.4055
   9223SM   HNF12357   3.474   2.837  11.692 -0.8910  1.0785  0.2497
   9223SM   C2S12358   3.403   2.650  11.650 -1.1607 -0.3022  0.3359
   9223SM   H2S12359   3.302   2.609  11.668 -0.7565 -1.1711  0.6759
   9223SM   C3S12360   3.506   2.564  11.735  0.0046 -0.3534  0.6509
   9223SM   H3S12361   3.600   2.615  11.704 -0.8324  0.3107 -0.9066
   9223SM    O312362   3.515   2.427  11.683 -0.4112 -0.3152  0.6173
   9223SM   HO312363   3.472   2.436  11.597  1.9614  1.0541 -0.5456
   9223SM   C4S12364   3.490   2.576  11.883  0.5092  0.8418  0.8545
   9223SM   H4S12365   3.543   2.659  11.932 -0.5667  1.9989  0.1289
   9223SM   C5S12366   3.441   2.481  11.959  0.7475  0.1123 -0.1933
   9223SM   H5S12367   3.420   2.384  11.914 -0.3532  0.4948 -0.5315
   9223SM   C6S12368   3.443   2.493  12.114  0.0450  0.1955  0.5462
   9223SM   H6S12369   3.483   2.393  12.141 -0.8292 -0.2581  0.2105
   9223SM   H6T12370   3.341   2.492  12.160  0.1253  0.7524  0.7390
   9223SM   C7S12371   3.519   2.614  12.176 -0.1316  0.2083  0.0730
   9223SM   H7S12372   3.470   2.698  12.124  2.1046  2.0507  0.7699
   9223SM   H7T12373   3.620   2.625  12.130 -1.4737  0.8345 -2.9844
   9223SM   C8S12374   3.506   2.635  12.326  0.2691  0.0315  0.2075
   9223SM   H8S12375   3.401   2.636  12.360  0.0936 -0.3542 -0.3082
   9223SM   H8T12376   3.554   2.731  12.356 -0.2904  0.1380  0.7913
   9223SM   C9S12377   3.571   2.513  12.401  0.4120 -0.9194  0.1306
   9223SM   H9S12378   3.664   2.490  12.346 -0.6657 -1.8573 -1.3562
   9223SM   H9T12379   3.501   2.428  12.393 -1.2033  0.1971  1.5738
   9223SM  C10S12380   3.611   2.535  12.545  0.1463  0.2698  0.0934
   9223SM  H10S12381   3.668   2.629  12.559  1.7002 -0.7425  0.9511
   9223SM  H10T12382   3.679   2.449  12.565  3.3522  2.4511 -0.7627
   9223SM  C11S12383   3.481   2.534  12.633 -0.4788  0.4508 -0.0321
   9223SM  H11S12384   3.414   2.458  12.587 -0.9480  1.7116 -1.4683
   9223SM  H11T12385   3.426   2.629  12.620 -0.7580  0.0709 -1.8660
   9223SM  C12S12386   3.503   2.520  12.784  0.6787  0.3827  0.5210
   9223SM  H12S12387   3.570   2.604  12.813  0.1416  0.4485  1.6288
   9223SM  H12T12388   3.563   2.432  12.816  0.2441  0.1250  0.6248
   9223SM  C13S12389   3.369   2.532  12.858  0.8540  0.0857 -0.1306
   9223SM  H13S12390   3.301   2.451  12.826  1.4580 -0.7374  0.6165
   9223SM  H13T12391   3.325   2.633  12.843  0.3602 -0.1081 -0.0145
   9223SM  C14S12392   3.398   2.522  13.014  0.1605  0.4381  0.3628
   9223SM  H14S12393   3.448   2.616  13.045  1.8730 -0.1649 -0.4299
   9223SM  H14T12394   3.479   2.447  13.021  0.6323  0.4479 -2.9934
   9223SM  C15S12395   3.286   2.476  13.103 -0.1827  0.0059  0.5196
   9223SM  H15S12396   3.271   2.367  13.087  0.3200 -0.3223  2.0691
   9223SM  H15T12397   3.189   2.522  13.074 -0.3877 -1.6803 -1.7718
   9223SM  C16S12398   3.321   2.492  13.253 -0.5814 -0.8371 -0.4446
   9223SM  H16S12399   3.327   2.599  13.284  0.5667 -0.9282 -0.3369
   9223SM  H16T12400   3.414   2.439  13.283  0.1750  1.6087  1.9306
   9223SM  C17S12401   3.219   2.424  13.350 -0.1583 -0.4716  0.4569
   9223SM  H17S12402   3.204   2.324  13.304  2.5116 -0.1750 -1.3038
   9223SM  H17T12403   3.129   2.489  13.346  0.4806  0.3641 -2.6829
   9223SM  C18S12404   3.260   2.423  13.501 -0.7192  0.6237  0.4949
   9223SM  H18S12405   3.333   2.340  13.511 -1.7697 -0.3412  0.3340
   9223SM  H18T12406   3.178   2.389  13.568 -0.9554  0.8034  0.2981
   9223SM  H18U12407   3.297   2.520  13.540  0.4616 -0.3123  1.8223
   9223SM   C1F12408   3.299   2.878  11.632 -0.1569  0.0951 -0.2458
   9223SM    OF12409   3.203   2.846  11.565  0.1720  0.5030  0.1529
   9223SM   C2F12410   3.332   3.024  11.651  0.4873  0.6328 -0.5995
   9223SM   H2F12411   3.329   3.076  11.552 -0.2985  1.9584  0.0908
   9223SM   H2G12412   3.438   3.033  11.681  0.1196 -0.5602  1.2295
   9223SM   C3F12413   3.232   3.099  11.737  0.3633 -0.2017  0.3870
   9223SM   H3F12414   3.129   3.090  11.696  0.7909 -0.3105 -0.7066
   9223SM   H3G12415   3.260   3.206  11.733  1.7605 -0.5733 -3.0325
   9223SM   C4F12416   3.236   3.047  11.883  0.2793 -0.4335 -0.1390
   9223SM   H4F12417   3.199   2.943  11.890  1.6991 -0.9396  0.2424
   9223SM   H4G12418   3.167   3.110  11.944  1.6652  0.9313  0.0927
   9223SM   C5F12419   3.373   3.055  11.943 -0.4767 -0.2883 -0.3095
   9223SM   H5F12420   3.391   3.157  11.982  0.9599 -0.4831 -0.4166
   9223SM   H5G12421   3.458   3.034  11.875 -1.0727 -1.4256 -0.7298
   9223SM   C6F12422   3.389   2.974  12.073  0.1134  0.2756  0.3646
   9223SM   H6F12423   3.495   2.969  12.105 -0.2206 -0.1497  1.4390
   9223SM   H6G12424   3.361   2.871  12.044  0.7802  0.2442 -0.1668
   9223SM   C7F12425   3.312   3.028  12.196 -0.1323 -0.0085  0.2826
   9223SM   H7F12426   3.305   2.942  12.266  2.7425  1.1665  2.1749
   9223SM   H7G12427   3.209   3.066  12.175 -0.1087 -0.4068 -0.6321
   9223SM   C8F12428   3.402   3.123  12.277  0.1088 -0.6073  0.2244
   9223SM   H8F12429   3.430   3.210  12.213  3.0966 -0.9870  0.8914
   9223SM   H8G12430   3.496   3.065  12.288  0.0953 -0.4316  1.3710
   9223SM   C9F12431   3.355   3.170  12.409 -0.0551 -0.2748 -0.3234
   9223SM   H9F12432   3.259   3.224  12.394  1.2780  2.7158  0.9803
   9223SM   H9G12433   3.426   3.238  12.461  0.5122  0.8414 -2.4520
   9223SM  C10F12434   3.328   3.052  12.502 -0.2066  0.2467  0.1958
   9223SM  H10F12435   3.406   2.973  12.496 -0.6361 -0.2870  1.3926
   9223SM  H10G12436   3.241   3.002  12.454  0.5672 -0.3178 -0.6407
   9223SM  C11F12437   3.299   3.098  12.648 -0.1508 -0.7321 -0.3105
   9223SM  H11F12438   3.198   3.145  12.646 -0.0845 -0.4656  1.3533
   9223SM  H11G12439   3.371   3.175  12.682 -0.1907 -1.4025  1.3899
   9223SM  C12F12440   3.282   2.988  12.751  0.0736 -0.0744 -1.1844
   9223SM  H12F12441   3.383   2.941  12.759 -0.0270 -0.5348 -2.4411
   9223SM  H12G12442   3.219   2.900  12.723  1.0427 -2.1355  2.4275
   9223SM  C13F12443   3.233   3.032  12.885 -0.4844 -0.2261 -0.0194
   9223SM  H13F12444   3.141   3.093  12.877 -0.2360  0.1944  0.3337
   9223SM  H13G12445   3.322   3.083  12.927  0.1558 -1.4730  0.1875
   9223SM  C14F12446   3.205   2.913  12.981 -1.1962 -0.3133  0.2695
   9223SM  H14F12447   3.298   2.853  12.977 -0.1919  1.2148 -0.1942
   9223SM  H14G12448   3.129   2.839  12.951  0.5901 -1.4857 -1.6635
   9223SM  C15F12449   3.200   2.960  13.128  0.1410  0.0885 -0.1078
   9223SM  H15F12450   3.113   3.028  13.137  1.6786  2.0172  1.3319
   9223SM  H15G12451   3.277   3.038  13.146 -1.5492  1.5887  0.9348
   9223SM  C16F12452   3.225   2.849  13.232 -0.1710 -0.3023  0.0265
   9223SM  H16F12453   3.323   2.800  13.216 -0.3068 -1.4134  2.2704
   9223SM  H16G12454   3.145   2.772  13.231 -3.7031  3.0120  0.0906
   9223SM  C17F12455   3.230   2.911  13.373 -0.0284 -0.1851  0.7291
   9223SM  H17F12456   3.318   2.979  13.368  0.8193 -1.1677  1.6644
   9223SM  H17G12457   3.246   2.822  13.438 -2.1620 -1.1207  0.0686
   9223SM  C18F12458   3.104   2.987  13.417 -0.0641  0.0799 -0.2234
   9223SM  H18F12459   3.013   2.924  13.410 -1.1478  1.6784 -0.8764
   9223SM  H18G12460   3.090   3.083  13.364  2.2032  1.3151  1.2241
   9223SM  C19F12461   3.103   3.012  13.577 -0.4463  0.0046  0.0157
   9223SM  H19F12462   3.147   2.927  13.635  1.8044 -0.6947 -2.5012
   9223SM  H19G12463   2.995   3.027  13.597 -0.6788  2.1410 -2.3990
   9223SM  C20F12464   3.175   3.146  13.610  0.6109 -0.8198  0.0500
   9223SM  H20F12465   3.156   3.223  13.533 -0.1018 -0.2662  0.7621
   9223SM  H20G12466   3.286   3.146  13.605  0.7368  3.5319 -0.5403
   9223SM  C21F12467   3.132   3.210  13.739  0.5406 -0.9801 -1.0116
   9223SM  H21F12468   3.144   3.143  13.826  2.1532 -0.1076 -0.5267
   9223SM  H21G12469   3.029   3.249  13.728  0.7868  1.5216  3.5145
   9223SM  C22F12470   3.204   3.347  13.777 -0.1608 -0.0478 -0.1865
   9223SM  H22F12471   3.200   3.424  13.697 -3.9251  0.4176  0.2698
   9223SM  H22G12472   3.311   3.323  13.795 -0.0711  1.3041  1.2317
   9223SM  C23F12473   3.149   3.411  13.904 -0.4429 -0.0344 -0.5832
   9223SM  H23F12474   3.203   3.500  13.942 -1.0356 -0.0949  0.4103
   9223SM  H23G12475   3.148   3.342  13.991  0.2845  1.9000  1.0318
   9223SM  H23H12476   3.042   3.425  13.877 -1.0639 -2.3465  0.4650
   9323SM     N12477   6.296   4.367  10.417  0.2078 -0.2102 -0.1386
   9323SM   C1512478   6.351   4.223  10.405 -0.3079  0.0526 -0.7401
   9323SM  H15A12479   6.427   4.224  10.328 -0.1871  0.6471 -0.6200
   9323SM  H15B12480   6.271   4.153  10.387 -0.7870 -0.5429  2.9685
   9323SM  H15C12481   6.398   4.188  10.496 -0.1194  0.8575 -0.5236
   9323SM   C1412482   6.381   4.449  10.507 -0.3765 -0.3204  0.5634
   9323SM  H14A12483   6.344   4.549  10.490 -2.4794 -0.9269  1.2320
   9323SM  H14B12484   6.482   4.448  10.470 -0.4694  0.2473  0.2813
   9323SM  H14C12485   6.371   4.416  10.609 -1.7189  1.4686  1.0539
   9323SM   C1312486   6.302   4.428  10.281 -0.0853 -0.3093 -0.5452
   9323SM  H13A12487   6.246   4.372  10.208 -1.0868  2.5481 -2.1461
   9323SM  H13B12488   6.405   4.429  10.248 -0.0355 -1.7574 -0.4769
   9323SM  H13C12489   6.261   4.528  10.280  1.7226  0.5300  1.2694
   9323SM   C1212490   6.156   4.374  10.467 -0.5288  0.7576 -0.4908
   9323SM  H12A12491   6.096   4.302  10.412  0.3488 -0.7760  0.4734
   9323SM  H12B12492   6.116   4.471  10.443 -1.4931 -0.0477 -2.3593
   9323SM   C1112493   6.127   4.343  10.620  0.4490 -0.2330 -0.0805
   9323SM  H11A12494   6.183   4.248  10.635  1.8981  0.7747  1.2648
   9323SM  H11B12495   6.019   4.331  10.640  0.5117 -1.2395 -0.3099
   9323SM     P12496   6.125   4.586  10.727 -0.3825  0.3475 -0.1071
   9323SM   O1312497   6.239   4.661  10.787  0.0181  0.1685  0.2975
   9323SM   O1412498   6.057   4.634  10.606 -0.3479 -0.1328 -0.2845
   9323SM   O1112499   6.017   4.571  10.839 -0.6715  0.4398 -0.4248
   9323SM   O1212500   6.180   4.439  10.710  0.0266  0.1677  0.1794
   9323SM   C1S12501   6.055   4.480  10.941 -0.1125 -0.3425  0.4985
   9323SM   H1S12502   6.165   4.482  10.956  0.8604  1.0738 -4.9497
   9323SM   H1T12503   6.020   4.376  10.922 -3.1244  0.8334 -1.1553
   9323SM    NF12504   6.060   4.439  11.184  0.0136 -0.8373 -0.0204
   9323SM   HNF12505   6.044   4.341  11.177 -1.6114 -0.9367  3.0378
   9323SM   C2S12506   5.993   4.518  11.077  0.1776 -0.1859 -0.1348
   9323SM   H2S12507   6.017   4.626  11.091 -0.0259 -0.3231  1.5152
   9323SM   C3S12508   5.836   4.500  11.067 -0.3946 -0.1156  0.2997
   9323SM   H3S12509   5.823   4.392  11.043 -1.9694  0.5116 -2.1465
   9323SM    O312510   5.777   4.562  10.954  0.6253 -0.1979 -0.2820
   9323SM   HO312511   5.847   4.588  10.894  1.0463 -2.3712 -0.8167
   9323SM   C4S12512   5.757   4.531  11.192  0.1983 -0.0624  0.0559
   9323SM   H4S12513   5.748   4.444  11.259  1.9079 -1.0449 -0.9356
   9323SM   C5S12514   5.704   4.651  11.227 -1.0466 -0.5220 -0.1924
   9323SM   H5S12515   5.711   4.728  11.148 -0.1706  0.2935  0.6544
   9323SM   C6S12516   5.622   4.674  11.350 -0.3253  0.3773  0.4056
   9323SM   H6S12517   5.519   4.696  11.315  0.2337  2.3249 -0.1210
   9323SM   H6T12518   5.664   4.760  11.405  2.6776 -1.2263  0.8425
   9323SM   C7S12519   5.612   4.564  11.451  0.0665 -0.6470  0.0548
   9323SM   H7S12520   5.717   4.540  11.477  0.7291 -2.4350 -3.5809
   9323SM   H7T12521   5.588   4.463  11.413  2.1046 -1.6012  1.1577
   9323SM   C8S12522   5.529   4.605  11.577  0.1447  0.1323 -0.0410
   9323SM   H8S12523   5.441   4.664  11.542  0.5158  0.3489 -0.6237
   9323SM   H8T12524   5.597   4.674  11.631  0.1528  1.0810 -1.2011
   9323SM   C9S12525   5.482   4.484  11.666 -0.1313 -0.6184  0.3515
   9323SM   H9S12526   5.567   4.445  11.726 -1.9159 -0.8676  2.8822
   9323SM   H9T12527   5.458   4.397  11.602 -0.2457 -0.9217  0.8017
   9323SM  C10S12528   5.363   4.505  11.757 -0.0604  0.4236  0.5925
   9323SM  H10S12529   5.349   4.405  11.803 -0.2516 -1.6492 -3.5303
   9323SM  H10T12530   5.277   4.520  11.688  1.1334 -1.2465 -1.3915
   9323SM  C11S12531   5.377   4.620  11.859 -0.2638 -0.4648 -0.3221
   9323SM  H11S12532   5.275   4.636  11.901 -0.6360  1.8566 -1.9491
   9323SM  H11T12533   5.393   4.718  11.811  1.2918 -0.2990  0.4633
   9323SM  C12S12534   5.480   4.598  11.975 -0.1432  0.1254  0.0084
   9323SM  H12S12535   5.579   4.599  11.925  0.0247 -2.5307  0.1214
   9323SM  H12T12536   5.473   4.498  12.023 -0.0744  0.6645  1.1916
   9323SM  C13S12537   5.447   4.703  12.093 -0.5380  0.5169 -0.0486
   9323SM  H13S12538   5.340   4.681  12.113 -0.2215 -1.4739 -0.3869
   9323SM  H13T12539   5.448   4.805  12.050 -1.4432  1.6604  2.4573
   9323SM  C14S12540   5.525   4.697  12.220  0.3614  0.1240 -0.2963
   9323SM  H14S12541   5.473   4.770  12.287 -0.4100  1.2045 -2.0157
   9323SM  H14T12542   5.630   4.726  12.200 -0.2851 -0.0182 -4.7576
   9323SM  C15S12543   5.527   4.552  12.280  0.2008 -0.3790 -0.9265
   9323SM  H15S12544   5.432   4.502  12.253 -0.4134 -0.7728  1.6926
   9323SM  H15T12545   5.606   4.497  12.224  0.6135  0.3888 -1.1144
   9323SM  C16S12546   5.530   4.545  12.431 -0.4587 -0.4951  0.0703
   9323SM  H16S12547   5.513   4.444  12.475 -0.1035 -1.7885 -2.5656
   9323SM  H16T12548   5.462   4.620  12.478 -0.7370 -0.0999 -0.9494
   9323SM  C17S12549   5.667   4.584  12.477  0.0280  0.2642 -0.1650
   9323SM  H17S12550   5.679   4.688  12.441 -0.6562  0.1417 -0.7626
   9323SM  H17T12551   5.746   4.526  12.424 -1.7105 -1.1369 -1.3435
   9323SM  C18S12552   5.682   4.570  12.627  0.1059 -0.8711  0.4013
   9323SM  H18S12553   5.783   4.605  12.657  0.1415 -0.1888 -0.4373
   9323SM  H18T12554   5.671   4.465  12.660  0.4468 -1.0197  0.0510
   9323SM  H18U12555   5.607   4.623  12.691 -0.4646 -2.9826  1.5525
   9323SM   C1F12556   6.177   4.474  11.236 -0.1905 -0.5709  0.4246
   9323SM    OF12557   6.218   4.590  11.221  0.1358  0.5416  0.4769
   9323SM   C2F12558   6.262   4.362  11.298 -0.5327  0.2741  0.4023
   9323SM   H2F12559   6.290   4.288  11.220  2.4861 -0.2764  1.8599
   9323SM   H2G12560   6.190   4.298  11.354 -1.0561 -1.0644 -1.6984
   9323SM   C3F12561   6.396   4.404  11.363 -0.4009 -0.4056  0.4522
   9323SM   H3F12562   6.443   4.485  11.303 -1.6569  0.5903  0.7813
   9323SM   H3G12563   6.468   4.320  11.353  0.5437  0.2265  1.7253
   9323SM   C4F12564   6.387   4.450  11.506 -0.3530  0.5122 -0.3500
   9323SM   H4F12565   6.494   4.449  11.535  0.5602 -3.8813 -2.9662
   9323SM   H4G12566   6.333   4.365  11.551  0.2175 -1.2109 -2.6938
   9323SM   C5F12567   6.330   4.589  11.528 -0.3020 -0.2844 -0.1995
   9323SM   H5F12568   6.225   4.595  11.492 -0.8049  1.7970  1.4455
   9323SM   H5G12569   6.398   4.653  11.469 -0.8764  1.3818  0.8706
   9323SM   C6F12570   6.345   4.633  11.677 -0.3058  0.4853 -0.1598
   9323SM   H6F12571   6.436   4.601  11.730  0.1967 -0.7443 -1.6837
   9323SM   H6G12572   6.254   4.592  11.727  0.0005  1.0599  0.8840
   9323SM   C7F12573   6.336   4.786  11.697 -0.0036 -0.1302 -0.1912
   9323SM   H7F12574   6.246   4.829  11.649 -0.9774 -1.9232 -0.0646
   9323SM   H7G12575   6.428   4.831  11.657 -0.3142  0.5526 -0.1517
   9323SM   C8F12576   6.333   4.827  11.846  0.6445 -0.4635  0.0119
   9323SM   H8F12577   6.233   4.810  11.892  0.9755 -1.1901  0.4687
   9323SM   H8G12578   6.358   4.935  11.852 -0.2776 -0.3101  1.6656
   9323SM   C9F12579   6.439   4.752  11.926  0.3795 -0.4088 -0.3135
   9323SM   H9F12580   6.540   4.746  11.879  0.5714  2.0613 -0.3510
   9323SM   H9G12581   6.402   4.648  11.941 -0.6543  0.0335  0.2576
   9323SM  C10F12582   6.457   4.810  12.067 -0.2558 -0.1615 -0.7630
   9323SM  H10F12583   6.359   4.809  12.120  0.4398 -2.2232  0.6238
   9323SM  H10G12584   6.490   4.916  12.056 -0.3926 -0.2268 -1.9349
   9323SM  C11F12585   6.566   4.743  12.167  0.1152 -0.3076  0.4743
   9323SM  H11F12586   6.668   4.760  12.126 -0.2041  2.6720  0.6913
   9323SM  H11G12587   6.546   4.634  12.170 -0.9656 -0.1205  0.6228
   9323SM  C12F12588   6.587   4.796  12.313 -0.0482  0.5514 -0.2096
   9323SM  H12F12589   6.499   4.770  12.376  1.0813 -0.0535  1.1831
   9323SM  H12G12590   6.600   4.906  12.319  0.5469  0.4761 -0.0736
   9323SM  C13F12591   6.710   4.726  12.380  0.6774 -0.0268 -0.4865
   9323SM  H13F12592   6.797   4.721  12.311  1.6345 -1.4271  0.7606
   9323SM  H13G12593   6.690   4.618  12.397  1.0659 -0.0272 -0.0153
   9323SM  C14F12594   6.762   4.804  12.497  0.2727 -0.2481  0.9151
   9323SM  H14F12595   6.744   4.911  12.474 -1.5098 -0.7479 -0.1979
   9323SM  H14G12596   6.870   4.778  12.501 -0.1401 -2.0070  2.1438
   9323SM  C15F12597   6.697   4.773  12.635  0.2939 -0.1623  0.2459
   9323SM  H15F12598   6.718   4.668  12.663  0.1622 -0.4096 -0.5560
   9323SM  H15G12599   6.587   4.786  12.624  0.4113 -0.3626 -1.3133
   9323SM  C16F12600   6.742   4.875  12.735 -0.1421  0.7897 -0.7565
   9323SM  H16F12601   6.716   4.981  12.717 -3.1413  0.4254  0.7526
   9323SM  H16G12602   6.851   4.855  12.729 -0.4345 -0.8333 -1.0255
   9323SM  C17F12603   6.700   4.846  12.883  0.8169 -0.0261  0.1271
   9323SM  H17F12604   6.765   4.897  12.957  2.0621 -1.5346  0.1185
   9323SM  H17G12605   6.696   4.737  12.901  0.0186 -0.1402 -0.6828
   9323SM  C18F12606   6.559   4.899  12.907  0.0363  0.1481 -0.1271
   9323SM  H18F12607   6.534   4.853  13.005 -1.6138  2.0277  0.3914
   9323SM  H18G12608   6.488   4.848  12.839 -1.5209  1.4522  0.4798
   9323SM  C19F12609   6.549   5.042  12.929  0.1939  0.3644 -0.2465
   9323SM  H19F12610   6.581   5.093  12.835  0.9030  0.3059 -0.0447
   9323SM  H19G12611   6.622   5.063  13.010  1.2994 -0.5536 -0.9668
   9323SM  C20F12612   6.416   5.101  12.966 -0.4141 -0.1850 -0.1938
   9323SM  H20F12613   6.342   5.092  12.883  0.1699  0.5449 -0.8079
   9323SM  H20G12614   6.415   5.202  13.012  1.0775 -1.7811  3.8243
   9323SM  C21F12615   6.338   5.014  13.070  0.1412 -0.5245  0.1310
   9323SM  H21F12616   6.380   5.025  13.173  0.4537 -1.6843  0.1420
   9323SM  H21G12617   6.335   4.904  13.054 -0.6626 -0.2237 -2.0390
   9323SM  C22F12618   6.188   5.056  13.088  0.3493 -0.3856 -0.3373
   9323SM  H22F12619   6.130   5.028  12.997 -0.4044  2.5918 -0.8753
   9323SM  H22G12620   6.190   5.166  13.102 -2.2363 -0.4419  0.9143
   9323SM  C23F12621   6.127   4.999  13.208 -0.3831  0.4139  0.2902
   9323SM  H23F12622   6.141   4.889  13.197  3.5363  0.6233  1.4733
   9323SM  H23G12623   6.021   5.025  13.226 -0.1644 -0.0262  2.4831
   9323SM  H23H12624   6.190   5.025  13.296 -1.4412  0.2595  1.1082
   9423SM     N12625   3.888   1.202  10.258  0.4815  0.1583  0.6304
   9423SM   C1512626   3.779   1.229  10.154  0.1793 -0.0090  0.2311
   9423SM  H15A12627   3.813   1.235  10.051 -1.1641  2.4303 -0.1268
   9423SM  H15B12628   3.744   1.330  10.166  2.9649  0.7384  3.5500
   9423SM  H15C12629   3.701   1.155  10.166 -0.3355  0.5222  0.1878
   9423SM   C1412630   3.931   1.055  10.251 -0.1950  0.7995 -0.2892
   9423SM  H14A12631   3.977   1.037  10.156 -0.7287  2.7367 -0.9630
   9423SM  H14B12632   3.847   0.986  10.257  0.1271  0.4436  0.3307
   9423SM  H14C12633   3.984   1.033  10.343 -1.6342 -0.2045  0.3614
   9423SM   C1312634   4.004   1.290  10.223  0.4129  0.0336  0.4443
   9423SM  H13A12635   4.049   1.274  10.126  0.9292  0.6049  0.5849
   9423SM  H13B12636   4.089   1.286  10.290 -1.2141 -1.5943  2.5301
   9423SM  H13C12637   3.973   1.394  10.224  0.6653  0.1220 -0.2395
   9423SM   C1212638   3.828   1.239  10.394 -0.2224 -0.3741 -0.2189
   9423SM  H12A12639   3.756   1.165  10.426 -0.0588 -0.0750  0.8917
   9423SM  H12B12640   3.783   1.336  10.385 -0.9954 -0.6708  0.3665
   9423SM   C1112641   3.931   1.235  10.513  0.2453 -0.1441  0.0904
   9423SM  H11A12642   3.875   1.264  10.604 -3.6661 -2.4415 -1.3591
   9423SM  H11B12643   4.017   1.304  10.497 -0.1152  0.3731  0.3454
   9423SM     P12644   4.088   1.068  10.643 -0.5747 -0.0577  0.3026
   9423SM   O1312645   4.165   0.949  10.601 -0.1760  0.0574  0.4983
   9423SM   O1412646   4.166   1.194  10.672  0.2068  0.3831 -0.1295
   9423SM   O1112647   4.008   1.027  10.770  0.4314 -0.4611 -0.6332
   9423SM   O1212648   3.976   1.100  10.543 -0.3914 -0.0114  0.1772
   9423SM   C1S12649   3.914   1.110  10.840 -0.2509 -0.0713 -0.6326
   9423SM   H1S12650   3.811   1.092  10.802 -0.6017 -0.1218  0.3177
   9423SM   H1T12651   3.935   1.218  10.828 -1.0910  0.2908  0.8391
   9423SM    NF12652   3.829   1.168  11.063  0.7002 -0.3645  0.0824
   9423SM   HNF12653   3.851   1.262  11.087 -0.5522 -0.0678  0.1508
   9423SM   C2S12654   3.926   1.083  10.995  0.2087 -0.5856  0.0591
   9423SM   H2S12655   3.893   0.979  11.014 -0.7881 -0.3616 -0.3564
   9423SM   C3S12656   4.070   1.107  11.047  0.2409  0.6527 -0.0792
   9423SM   H3S12657   4.113   1.192  10.989  3.9322 -1.3538 -0.6005
   9423SM    O312658   4.161   1.008  11.005 -0.3029 -0.6818 -0.0354
   9423SM   HO312659   4.129   0.997  10.915 -0.3281 -0.1749 -0.0906
   9423SM   C4S12660   4.083   1.143  11.191  0.2303  0.3309  0.6683
   9423SM   H4S12661   4.082   1.062  11.266  0.5523 -0.0005  0.3222
   9423SM   C5S12662   4.121   1.258  11.232 -0.7506 -1.1246 -0.5813
   9423SM   H5S12663   4.129   1.349  11.172  0.4917  0.5427  1.9281
   9423SM   C6S12664   4.160   1.297  11.371 -0.0167  0.0938 -1.3714
   9423SM   H6S12665   4.083   1.370  11.403 -0.2966 -0.4170 -0.8772
   9423SM   H6T12666   4.261   1.345  11.367  0.1937 -0.2742 -0.6269
   9423SM   C7S12667   4.161   1.185  11.475 -0.2345 -0.6778 -0.7126
   9423SM   H7S12668   4.226   1.104  11.436  0.9828 -0.8022  1.3813
   9423SM   H7T12669   4.055   1.153  11.480 -1.0195  1.8796  1.9136
   9423SM   C8S12670   4.213   1.232  11.616 -0.0049  0.1910 -0.3267
   9423SM   H8S12671   4.132   1.289  11.666 -1.1271 -0.7165 -1.0318
   9423SM   H8T12672   4.304   1.293  11.597  1.1638 -1.9550 -2.1701
   9423SM   C9S12673   4.244   1.110  11.707  1.1783  0.1690  0.1381
   9423SM   H9S12674   4.312   1.035  11.661  1.4326  1.0260 -0.9442
   9423SM   H9T12675   4.146   1.061  11.726  1.0826  0.5478  0.6428
   9423SM  C10S12676   4.296   1.145  11.850  0.5659 -0.0543  0.1763
   9423SM  H10S12677   4.212   1.207  11.888  1.5126  0.5336  1.3481
   9423SM  H10T12678   4.393   1.199  11.850 -1.0274  3.0475 -0.4234
   9423SM  C11S12679   4.307   1.015  11.937  0.0351 -0.0216  0.1709
   9423SM  H11S12680   4.387   0.953  11.892 -0.3771 -0.0254 -0.5780
   9423SM  H11T12681   4.206   0.970  11.937 -0.0511  0.1580 -0.5109
   9423SM  C12S12682   4.339   1.048  12.089 -0.5548  0.7515 -0.9550
   9423SM  H12S12683   4.441   1.091  12.095 -0.4265  0.2835  0.7279
   9423SM  H12T12684   4.330   0.956  12.152  0.4787  1.2671 -0.0247
   9423SM  C13S12685   4.243   1.147  12.151  0.4482 -0.2417  0.3917
   9423SM  H13S12686   4.138   1.118  12.129 -0.1998  1.9023  0.3982
   9423SM  H13T12687   4.250   1.246  12.101 -0.1017 -0.1367  0.5171
   9423SM  C14S12688   4.259   1.164  12.296  0.7442  0.6140 -0.2533
   9423SM  H14S12689   4.177   1.230  12.330  0.3180 -0.4564  0.8829
   9423SM  H14T12690   4.352   1.221  12.319  0.7345  0.6877 -0.3944
   9423SM  C15S12691   4.235   1.039  12.385 -0.4278  0.0129 -0.3179
   9423SM  H15S12692   4.317   0.965  12.375 -0.4010 -0.2012  1.3033
   9423SM  H15T12693   4.136   1.000  12.352 -0.2599  0.3753 -1.2878
   9423SM  C16S12694   4.221   1.093  12.533  0.1988 -0.1064  0.4361
   9423SM  H16S12695   4.180   1.008  12.591  0.6391  1.0401  2.5380
   9423SM  H16T12696   4.147   1.175  12.539 -1.1153 -1.2385  0.2982
   9423SM  C17S12697   4.353   1.136  12.585 -0.6861 -0.3060  0.2760
   9423SM  H17S12698   4.406   1.198  12.510  1.4653  0.1205  2.0383
   9423SM  H17T12699   4.420   1.049  12.604 -0.4069 -0.8685 -2.8328
   9423SM  C18S12700   4.339   1.220  12.710 -0.4927  0.4603 -0.1692
   9423SM  H18S12701   4.270   1.166  12.778  1.3384 -0.9555  0.6304
   9423SM  H18T12702   4.295   1.314  12.670 -1.5159 -0.3527 -1.0059
   9423SM  H18U12703   4.436   1.241  12.761 -1.3108  1.4581  1.0481
   9423SM   C1F12704   3.693   1.142  11.063  0.1948 -0.2256  0.3563
   9423SM    OF12705   3.650   1.041  11.016  0.0700 -0.5357 -0.0115
   9423SM   C2F12706   3.605   1.239  11.134  0.2288 -0.0394 -0.1763
   9423SM   H2F12707   3.524   1.185  11.188  1.8561 -0.6059  1.8687
   9423SM   H2G12708   3.566   1.314  11.062 -0.2356  2.1172  2.1655
   9423SM   C3F12709   3.681   1.320  11.247  0.7759  0.3451  0.1757
   9423SM   H3F12710   3.606   1.395  11.280  0.6562  0.8022 -1.0769
   9423SM   H3G12711   3.769   1.382  11.219  1.2007  0.2375  1.2218
   9423SM   C4F12712   3.720   1.225  11.367  0.1888 -0.0831  0.3260
   9423SM   H4F12713   3.803   1.156  11.341  0.1213  1.0048 -3.2861
   9423SM   H4G12714   3.635   1.155  11.382 -1.4609  1.9031  0.8230
   9423SM   C5F12715   3.752   1.306  11.491 -0.0517 -0.0471 -0.0669
   9423SM   H5F12716   3.661   1.348  11.538 -0.7571 -2.9012  1.3529
   9423SM   H5G12717   3.820   1.388  11.461  2.9278 -2.7633 -1.3152
   9423SM   C6F12718   3.801   1.222  11.606  0.1816 -0.3645  0.2055
   9423SM   H6F12719   3.894   1.163  11.593 -0.3342 -1.3135  0.7630
   9423SM   H6G12720   3.717   1.152  11.626 -0.0825 -0.4121 -0.9644
   9423SM   C7F12721   3.836   1.287  11.733 -0.0602 -0.9722 -0.6652
   9423SM   H7F12722   3.756   1.359  11.762  2.8143  2.5015 -0.7513
   9423SM   H7G12723   3.924   1.353  11.723 -0.3472 -0.1337  1.6433
   9423SM   C8F12724   3.855   1.191  11.848  0.3947  0.0054  0.0247
   9423SM   H8F12725   3.906   1.250  11.927 -0.1357 -0.3903  0.6696
   9423SM   H8G12726   3.929   1.111  11.825 -0.6971 -1.0213 -0.0210
   9423SM   C9F12727   3.726   1.138  11.921 -0.2192  1.3779  0.3511
   9423SM   H9F12728   3.666   1.065  11.862 -1.9680 -0.9896  4.5710
   9423SM   H9G12729   3.668   1.233  11.920  0.7471  1.9926  1.3598
   9423SM  C10F12730   3.743   1.076  12.063  0.2382 -0.3263 -0.2636
   9423SM  H10F12731   3.822   0.998  12.072  3.2329  2.5282  0.7001
   9423SM  H10G12732   3.643   1.038  12.094  0.7926  0.2594  2.5838
   9423SM  C11F12733   3.775   1.186  12.160 -0.3817  0.4070  0.1060
   9423SM  H11F12734   3.694   1.261  12.149 -0.6243  0.2935  1.0729
   9423SM  H11G12735   3.866   1.245  12.134 -1.3020  1.6809 -0.3412
   9423SM  C12F12736   3.783   1.139  12.306 -0.4885  0.3245 -0.5029
   9423SM  H12F12737   3.867   1.068  12.323 -0.0760  1.1721  1.2636
   9423SM  H12G12738   3.686   1.089  12.322  0.9628 -2.5051  0.1225
   9423SM  C13F12739   3.831   1.252  12.398  0.0455  0.0314  0.5994
   9423SM  H13F12740   3.760   1.336  12.386 -1.1913 -1.0319  0.1056
   9423SM  H13G12741   3.929   1.289  12.361 -0.1950 -0.9772 -1.1917
   9423SM  C14F12742   3.847   1.209  12.541  0.4263 -0.0848  0.2834
   9423SM  H14F12743   3.924   1.129  12.542  1.3290  0.7609  1.5539
   9423SM  H14G12744   3.753   1.172  12.586 -0.0540  0.6740 -0.0876
   9423SM  C15F12745   3.906   1.320  12.633  0.2285 -0.0601  0.2985
   9423SM  H15F12746   3.829   1.397  12.655 -0.4913 -1.1157  1.5829
   9423SM  H15G12747   3.989   1.371  12.579 -0.3783 -0.4000 -0.9948
   9423SM  C16F12748   3.962   1.271  12.767  0.4125 -0.2225  0.3140
   9423SM  H16F12749   4.021   1.358  12.806 -3.5980  3.5117 -1.1492
   9423SM  H16G12750   4.018   1.176  12.752  1.0003  0.2238 -0.4272
   9423SM  C17F12751   3.857   1.251  12.885 -0.9105 -0.1772  0.3718
   9423SM  H17F12752   3.772   1.186  12.852  0.5545 -1.4497 -1.0613
   9423SM  H17G12753   3.815   1.352  12.908 -0.3875  0.5201 -1.5137
   9423SM  C18F12754   3.935   1.197  13.013  0.3027  0.4184  0.8076
   9423SM  H18F12755   4.026   1.256  13.036  0.8156 -0.7377  1.8948
   9423SM  H18G12756   3.971   1.093  12.994  0.8902  0.4643  1.6190
   9423SM  C19F12757   3.850   1.198  13.137  0.1779 -0.0641 -0.2231
   9423SM  H19F12758   3.823   1.303  13.161  2.1027  0.3396  0.4116
   9423SM  H19G12759   3.911   1.171  13.226  2.2045  0.9350 -1.2448
   9423SM  C20F12760   3.713   1.114  13.129  0.1263  0.7060 -0.3044
   9423SM  H20F12761   3.732   1.013  13.089 -1.7426  0.4836 -0.7245
   9423SM  H20G12762   3.639   1.159  13.059 -3.7790 -0.4115  2.6922
   9423SM  C21F12763   3.645   1.099  13.273  0.2524 -0.1504  0.2742
   9423SM  H21F12764   3.640   1.203  13.311 -0.0117  0.3767 -1.1135
   9423SM  H21G12765   3.719   1.053  13.342  3.1117  0.6299 -2.0322
   9423SM  C22F12766   3.503   1.035  13.288  0.1285  0.0672 -0.2772
   9423SM  H22F12767   3.526   0.933  13.252 -1.2729  0.7980 -3.5490
   9423SM  H22G12768   3.427   1.073  13.217  2.3653  2.8611 -1.3785
   9423SM  C23F12769   3.465   1.047  13.438 -0.0345 -0.2514 -0.1283
   9423SM  H23F12770   3.555   1.007  13.488  0.4102  0.5193 -0.2966
   9423SM  H23G12771   3.382   0.975  13.450  1.9232 -2.5951 -0.0072
   9423SM  H23H12772   3.434   1.148  13.472  0.8435 -0.4462  1.2821
   9523SM     N12773   0.934   4.235  11.245 -0.2279 -0.0006  0.7244
   9523SM   C1512774   0.858   4.347  11.308 -0.9668 -0.1568  0.1586
   9523SM  H15A12775   0.793   4.309  11.386  0.1016 -1.3338  0.5036
   9523SM  H15B12776   0.811   4.410  11.233  2.5432  1.9400 -0.5033
   9523SM  H15C12777   0.933   4.413  11.348 -1.8202 -0.2864  2.1052
   9523SM   C1412778   0.839   4.142  11.183 -0.0525  0.2243  0.0476
   9523SM  H14A12779   0.781   4.100  11.264 -0.0375  1.7436  0.8988
   9523SM  H14B12780   0.890   4.056  11.144  0.9090  1.0331 -0.5358
   9523SM  H14C12781   0.780   4.188  11.106 -0.8138  0.1138  0.5531
   9523SM   C1312782   1.017   4.293  11.133 -0.0523  0.1730  0.3134
   9523SM  H13A12783   0.947   4.317  11.054 -1.3067 -3.6653  0.0479
   9523SM  H13B12784   1.080   4.218  11.087  1.2942  1.6201 -0.3194
   9523SM  H13C12785   1.083   4.377  11.153  0.3121 -0.2228  0.7719
   9523SM   C1212786   1.025   4.172  11.349 -1.3366  0.2921 -0.2986
   9523SM  H12A12787   1.083   4.247  11.401  0.7861 -0.8886 -0.8365
   9523SM  H12B12788   1.098   4.104  11.307 -0.2713  1.2449 -0.0417
   9523SM   C1112789   0.942   4.099  11.474 -0.3569  0.3300  0.3399
   9523SM  H11A12790   0.879   4.180  11.516 -0.2115  0.3354  0.5474
   9523SM  H11B12791   1.011   4.048  11.544 -0.7114 -3.2688 -1.6941
   9523SM     P12792   0.752   3.925  11.498  0.2568  0.4848 -0.1989
   9523SM   O1312793   0.657   4.027  11.544  0.6322 -0.0232  0.0153
   9523SM   O1412794   0.694   3.822  11.409  0.3090 -0.1566  0.1097
   9523SM   O1112795   0.817   3.865  11.624 -0.6785 -0.3371 -0.4906
   9523SM   O1212796   0.869   3.994  11.419  0.5652  0.3249 -0.0822
   9523SM   C1S12797   0.935   3.770  11.628 -0.2706 -0.0746  0.9704
   9523SM   H1S12798   1.017   3.808  11.564 -3.3200 -0.9909 -4.0946
   9523SM   H1T12799   0.896   3.676  11.583  1.5406  0.7079 -2.6074
   9523SM    NF12800   1.114   3.662  11.758 -0.4023  0.2839  0.3206
   9523SM   HNF12801   1.103   3.565  11.775  1.2062  0.0601  0.1537
   9523SM   C2S12802   0.985   3.730  11.766  0.4888 -0.2910  0.7669
   9523SM   H2S12803   0.998   3.825  11.821  0.9600 -0.6081  1.2122
   9523SM   C3S12804   0.873   3.658  11.846 -0.0326  0.2937 -0.1506
   9523SM   H3S12805   0.860   3.567  11.783  2.1372 -0.4318  0.3866
   9523SM    O312806   0.748   3.719  11.843  0.4071  0.3356  0.0164
   9523SM   HO312807   0.755   3.787  11.777 -2.8326  1.1167  0.3128
   9523SM   C4S12808   0.908   3.639  11.986  0.1822 -0.0701  0.5198
   9523SM   H4S12809   0.934   3.738  12.027  0.2714 -0.1991  0.7750
   9523SM   C5S12810   0.911   3.531  12.071  0.6036  0.1350  0.3493
   9523SM   H5S12811   0.887   3.431  12.032  0.7797  0.8847 -1.8585
   9523SM   C6S12812   0.943   3.531  12.215 -0.6933  0.4302  0.0850
   9523SM   H6S12813   1.030   3.466  12.240 -0.0820  0.7950 -1.0427
   9523SM   H6T12814   0.855   3.490  12.270 -0.1481  0.8412  1.3167
   9523SM   C7S12815   0.976   3.668  12.278  0.5822 -0.0176 -0.2101
   9523SM   H7S12816   0.889   3.732  12.252  1.1754  0.5043 -0.9718
   9523SM   H7T12817   1.070   3.709  12.234 -0.5618  1.1767 -1.6518
   9523SM   C8S12818   0.999   3.656  12.427  0.6148 -0.4441  0.1984
   9523SM   H8S12819   1.082   3.583  12.440 -0.1739 -1.4171 -0.0779
   9523SM   H8T12820   0.909   3.597  12.455 -0.7264  1.6822  0.5385
   9523SM   C9S12821   1.015   3.783  12.512  0.8679  0.2548  0.5252
   9523SM   H9S12822   0.921   3.841  12.504  0.4641 -0.2713  1.3535
   9523SM   H9T12823   1.104   3.845  12.485  0.6655  0.3240  0.0082
   9523SM  C10S12824   1.025   3.757  12.667 -0.1822 -0.1761 -0.2897
   9523SM  H10S12825   1.129   3.728  12.693 -0.8151  0.1665  3.0205
   9523SM  H10T12826   0.953   3.677  12.693 -0.3830  0.1354  0.1232
   9523SM  C11S12827   1.004   3.897  12.731 -0.6683  0.5339  0.0348
   9523SM  H11S12828   0.896   3.921  12.725 -0.3976  1.4832 -2.4161
   9523SM  H11T12829   1.050   3.983  12.677  0.4374  0.7227  1.2270
   9523SM  C12S12830   1.071   3.908  12.865 -0.0874 -0.2507  0.0935
   9523SM  H12S12831   1.064   4.009  12.911 -3.1154 -0.1689 -0.3172
   9523SM  H12T12832   1.182   3.905  12.855  0.1534 -1.1950  2.4612
   9523SM  C13S12833   1.032   3.808  12.970  0.5902  0.1631 -0.4418
   9523SM  H13S12834   1.079   3.714  12.933 -0.9773 -0.9723  0.3416
   9523SM  H13T12835   0.926   3.774  12.960  0.7376 -0.0148 -1.5245
   9523SM  C14S12836   1.066   3.857  13.109  0.2934 -0.5629  0.3516
   9523SM  H14S12837   1.000   3.943  13.135  2.5807  1.3962  0.0483
   9523SM  H14T12838   1.166   3.906  13.111 -0.4509  1.1086 -0.7344
   9523SM  C15S12839   1.058   3.754  13.217  0.4935 -0.7303 -0.8815
   9523SM  H15S12840   1.153   3.698  13.199  0.1839 -1.2665 -0.8785
   9523SM  H15T12841   0.969   3.689  13.203  0.0712 -0.3457 -0.0562
   9523SM  C16S12842   1.052   3.812  13.354 -0.2060 -0.4128 -0.2930
   9523SM  H16S12843   0.950   3.853  13.369  0.2627  0.5977  0.2246
   9523SM  H16T12844   1.112   3.904  13.366  0.3832 -0.9245  0.8131
   9523SM  C17S12845   1.091   3.730  13.478 -1.3604  0.0121  0.0878
   9523SM  H17S12846   1.065   3.793  13.566  0.9489  1.2492 -0.0317
   9523SM  H17T12847   1.201   3.717  13.481 -1.5436 -1.3952  1.5650
   9523SM  C18S12848   1.017   3.599  13.481 -0.5642 -0.7183 -0.3539
   9523SM  H18S12849   1.062   3.531  13.556 -3.3538 -1.3574  0.8398
   9523SM  H18T12850   1.027   3.549  13.382  0.9011 -0.1339 -0.5249
   9523SM  H18U12851   0.909   3.616  13.503 -0.0910  0.1478  1.4803
   9523SM   C1F12852   1.228   3.718  11.713  0.1720 -0.4635  0.7520
   9523SM    OF12853   1.228   3.842  11.715 -0.2159  0.3134 -0.2723
   9523SM   C2F12854   1.335   3.636  11.656 -0.0709  0.6367 -0.3490
   9523SM   H2F12855   1.336   3.638  11.545  2.1299 -4.1112 -0.6932
   9523SM   H2G12856   1.312   3.531  11.685 -1.1981  0.5796 -1.3351
   9523SM   C3F12857   1.472   3.682  11.700  0.1341 -1.0367 -0.2184
   9523SM   H3F12858   1.494   3.785  11.663  0.1131 -0.4485  1.3283
   9523SM   H3G12859   1.548   3.615  11.654 -2.0274 -1.4858 -3.4570
   9523SM   C4F12860   1.495   3.675  11.857  0.6481  0.4051 -0.2713
   9523SM   H4F12861   1.601   3.652  11.881  0.0714 -0.9882  1.1256
   9523SM   H4G12862   1.435   3.588  11.892 -0.0861  1.3199  0.8267
   9523SM   C5F12863   1.459   3.804  11.935  0.5545  0.4843 -0.2802
   9523SM   H5F12864   1.348   3.807  11.935  0.5336 -0.1680 -0.1579
   9523SM   H5G12865   1.500   3.884  11.870  0.4395  0.7902  0.0219
   9523SM   C6F12866   1.492   3.807  12.085  0.0588 -0.6125 -0.2331
   9523SM   H6F12867   1.460   3.907  12.122  0.1761 -0.6132 -0.1332
   9523SM   H6G12868   1.601   3.794  12.099  0.1280 -0.6836 -0.8187
   9523SM   C7F12869   1.414   3.717  12.169 -0.1233 -0.1053  0.2283
   9523SM   H7F12870   1.432   3.609  12.147 -0.7909  0.0105 -0.9840
   9523SM   H7G12871   1.304   3.731  12.168  0.0190  1.0246 -1.0183
   9523SM   C8F12872   1.451   3.743  12.318  0.4220  0.3745  0.6447
   9523SM   H8F12873   1.391   3.832  12.346 -0.2858  0.5819 -1.3734
   9523SM   H8G12874   1.556   3.771  12.340  0.2527  0.6229  1.1629
   9523SM   C9F12875   1.412   3.630  12.423 -0.3776  0.2044  0.3977
   9523SM   H9F12876   1.454   3.536  12.382 -1.5134 -0.6477  1.1366
   9523SM   H9G12877   1.305   3.603  12.426 -0.6400  1.2225  0.7975
   9523SM  C10F12878   1.454   3.671  12.563 -0.5101 -1.0515  0.0488
   9523SM  H10F12879   1.414   3.774  12.578  0.4610 -0.3302 -1.8937
   9523SM  H10G12880   1.564   3.666  12.557 -0.5230 -1.2179 -0.0465
   9523SM  C11F12881   1.398   3.584  12.675 -0.5920  0.6057 -0.4130
   9523SM  H11F12882   1.438   3.481  12.661  1.0179  1.2485 -0.7695
   9523SM  H11G12883   1.287   3.574  12.675 -0.4958 -0.7477  0.5836
   9523SM  C12F12884   1.437   3.640  12.812  0.2179  0.6110 -0.1948
   9523SM  H12F12885   1.400   3.745  12.817  0.2381  0.6202 -0.2391
   9523SM  H12G12886   1.547   3.652  12.813  0.4016 -0.1891 -2.8461
   9523SM  C13F12887   1.379   3.553  12.927 -0.8258 -0.7396 -0.3294
   9523SM  H13F12888   1.407   3.445  12.926  2.2008 -0.0582  0.0121
   9523SM  H13G12889   1.269   3.553  12.912 -0.6035  3.0301 -3.6161
   9523SM  C14F12890   1.425   3.606  13.062 -0.1945  0.1857  0.1889
   9523SM  H14F12891   1.378   3.704  13.089 -0.5658 -0.2186  1.0754
   9523SM  H14G12892   1.533   3.632  13.064 -0.0573 -0.3684  1.4598
   9523SM  C15F12893   1.383   3.517  13.172  0.6903  0.6964 -0.9555
   9523SM  H15F12894   1.412   3.410  13.160  1.3238  0.6120  1.0584
   9523SM  H15G12895   1.273   3.509  13.181  0.7620  2.0468  2.3891
   9523SM  C16F12896   1.437   3.559  13.311  0.6045  0.0405 -0.1425
   9523SM  H16F12897   1.380   3.644  13.355  1.1344 -0.0302  0.6917
   9523SM  H16G12898   1.536   3.609  13.310  0.5664  0.1607  1.1927
   9523SM  C17F12899   1.417   3.452  13.422 -0.6995  0.1803 -0.0578
   9523SM  H17F12900   1.480   3.364  13.394 -0.5273  0.3589 -0.2334
   9523SM  H17G12901   1.310   3.421  13.423 -0.5022 -0.7534 -1.8721
   9523SM  C18F12902   1.465   3.492  13.556 -0.6056  0.8153  0.1282
   9523SM  H18F12903   1.431   3.594  13.584  0.6514  1.3188 -0.1235
   9523SM  H18G12904   1.575   3.496  13.545 -0.4648  2.5819  1.6988
   9523SM  C19F12905   1.428   3.384  13.659  0.3970 -0.3990  0.0732
   9523SM  H19F12906   1.468   3.288  13.620  0.4083 -0.5661  0.4957
   9523SM  H19G12907   1.317   3.391  13.665  0.4846  1.9222 -0.0342
   9523SM  C20F12908   1.487   3.409  13.797 -0.0096  0.3056  0.4608
   9523SM  H20F12909   1.422   3.356  13.871 -1.0766  0.0667 -0.6194
   9523SM  H20G12910   1.476   3.515  13.829 -0.7980  0.0329  1.1343
   9523SM  C21F12911   1.635   3.363  13.807  0.2695 -0.0933  0.0231
   9523SM  H21F12912   1.694   3.419  13.732  0.7300  1.8497  1.7358
   9523SM  H21G12913   1.635   3.255  13.779 -0.4680 -0.2078  0.4151
   9523SM  C22F12914   1.681   3.387  13.950 -0.3082 -0.2740 -0.3491
   9523SM  H22F12915   1.628   3.311  14.011 -1.2933  1.5075  1.1050
   9523SM  H22G12916   1.642   3.488  13.975 -0.3006 -0.3523 -0.0171
   9523SM  C23F12917   1.829   3.390  13.976 -0.5578 -0.1635 -1.1688
   9523SM  H23F12918   1.880   3.483  13.943  0.6575  0.6679  2.5073
   9523SM  H23G12919   1.874   3.300  13.929  2.2076 -1.2135  2.8691
   9523SM  H23H12920   1.854   3.384  14.085 -0.8283  2.0919 -0.9289
   9623SM     N12921   0.900   3.065  11.151 -0.0482  0.5743  0.5316
   9623SM   C1512922   0.853   2.980  11.261 -0.2343  0.9611  0.7062
   9623SM  H15A12923   0.781   3.033  11.322 -1.2780 -0.9557  1.2173
   9623SM  H15B12924   0.933   2.936  11.318 -0.7582  0.6037  1.1831
   9623SM  H15C12925   0.796   2.905  11.208  1.5433 -1.4157  1.9595
   9623SM   C1412926   0.956   2.987  11.039  0.0342 -0.4220  0.4984
   9623SM  H14A12927   0.881   2.922  10.996  0.1562 -0.7501  0.7808
   9623SM  H14B12928   1.046   2.931  11.058  1.5513  0.0628 -3.9199
   9623SM  H14C12929   0.982   3.052  10.956  0.7438 -2.4885 -0.9860
   9623SM   C1312930   0.783   3.139  11.107 -0.7007  0.4713  0.5963
   9623SM  H13A12931   0.811   3.196  11.019 -0.1150 -0.0569  0.4346
   9623SM  H13B12932   0.751   3.207  11.184 -0.9950  0.2756  0.6448
   9623SM  H13C12933   0.708   3.065  11.084  0.4678 -0.5763  0.0330
   9623SM   C1212934   1.010   3.151  11.198  0.1614  0.5210  0.1276
   9623SM  H12A12935   1.058   3.198  11.113 -0.6475 -1.1174 -1.3024
   9623SM  H12B12936   1.095   3.096  11.236  0.1843 -0.5786 -1.4060
   9623SM   C1112937   0.982   3.255  11.306  0.5307 -0.1499  0.1960
   9623SM  H11A12938   0.934   3.215  11.399 -1.5560 -0.1774 -0.8380
   9623SM  H11B12939   0.912   3.331  11.267  0.4374 -0.0237  0.6056
   9623SM     P12940   1.128   3.446  11.415 -0.1778 -0.1476  0.2243
   9623SM   O1312941   1.220   3.534  11.339  0.2514  0.4055 -0.3653
   9623SM   O1412942   0.997   3.503  11.451 -0.0459  0.4834  0.6256
   9623SM   O1112943   1.192   3.388  11.542 -0.5704 -0.1503  0.0023
   9623SM   O1212944   1.103   3.318  11.335 -0.1062  0.2113  0.2787
   9623SM   C1S12945   1.220   3.243  11.557  0.1522 -0.6518 -0.2041
   9623SM   H1S12946   1.312   3.214  11.503  0.5306  2.9227 -1.7537
   9623SM   H1T12947   1.129   3.185  11.530 -0.7584  1.5078 -2.0328
   9623SM    NF12948   1.304   3.071  11.719 -0.1875  0.4959  0.2119
   9623SM   HNF12949   1.250   2.998  11.761 -1.8198  1.1324 -0.6970
   9623SM   C2S12950   1.256   3.205  11.705  0.3300  1.0056  0.5588
   9623SM   H2S12951   1.339   3.273  11.734  0.0882  2.0083 -0.9489
   9623SM   C3S12952   1.138   3.243  11.797 -0.4732 -0.9329  0.2035
   9623SM   H3S12953   1.059   3.166  11.778 -0.0293 -0.8563 -2.2541
   9623SM    O312954   1.076   3.373  11.784  0.4737  0.2153  0.1139
   9623SM   HO312955   1.097   3.394  11.692  0.0075  1.4157  0.2610
   9623SM   C4S12956   1.176   3.202  11.943 -1.2240 -0.1705 -0.7632
   9623SM   H4S12957   1.152   3.096  11.964 -1.3700 -0.1222 -0.6851
   9623SM   C5S12958   1.230   3.284  12.039  1.1102 -0.0959  0.1252
   9623SM   H5S12959   1.240   3.391  12.017 -0.2510  0.5040  2.0866
   9623SM   C6S12960   1.273   3.246  12.180 -0.1218  0.4455 -0.0733
   9623SM   H6S12961   1.261   3.336  12.244 -1.9831  2.4512 -3.0280
   9623SM   H6T12962   1.382   3.223  12.176  0.1224  1.7749 -1.5741
   9623SM   C7S12963   1.197   3.124  12.247 -0.0172 -0.2837  0.2453
   9623SM   H7S12964   1.218   3.028  12.195  1.9224  0.6344 -0.7677
   9623SM   H7T12965   1.090   3.151  12.235  0.1986  0.0065 -1.2980
   9623SM   C8S12966   1.243   3.126  12.398  0.2272  0.2042 -0.4088
   9623SM   H8S12967   1.353   3.133  12.401  0.2887 -0.8483  1.0388
   9623SM   H8T12968   1.225   3.031  12.454 -0.4522 -0.1621 -1.2127
   9623SM   C9S12969   1.169   3.234  12.478 -0.1044  0.1757 -0.3579
   9623SM   H9S12970   1.074   3.266  12.429 -1.1153 -1.4020  0.4901
   9623SM   H9T12971   1.239   3.320  12.470  1.6903 -0.8559  2.8631
   9623SM  C10S12972   1.154   3.198  12.631  0.4389 -0.6676  0.6697
   9623SM  H10S12973   1.097   3.102  12.623  1.2114 -1.0465 -0.6095
   9623SM  H10T12974   1.090   3.272  12.683  0.0439 -0.3413 -0.2555
   9623SM  C11S12975   1.279   3.182  12.708  0.1618  0.8594  0.0818
   9623SM  H11S12976   1.336   3.278  12.698 -1.3396  1.6201 -1.8135
   9623SM  H11T12977   1.341   3.102  12.663 -1.3705 -0.7334  0.7306
   9623SM  C12S12978   1.257   3.143  12.857 -0.2066  0.1876  0.6415
   9623SM  H12S12979   1.210   3.043  12.857 -0.5062  0.3235  0.1520
   9623SM  H12T12980   1.184   3.213  12.903 -0.2193 -0.3289  1.4247
   9623SM  C13S12981   1.390   3.139  12.938  0.3254  0.4829 -0.4444
   9623SM  H13S12982   1.428   3.243  12.938  1.1161  0.2370 -2.4871
   9623SM  H13T12983   1.463   3.071  12.891 -0.1195 -1.7447  1.8847
   9623SM  C14S12984   1.352   3.095  13.080  0.1476  0.6217 -0.2243
   9623SM  H14S12985   1.435   3.102  13.153  1.0812  0.3321 -1.2274
   9623SM  H14T12986   1.333   2.986  13.072  1.4354  0.4792 -2.0337
   9623SM  C15S12987   1.226   3.160  13.146  0.1587 -0.7351  0.3259
   9623SM  H15S12988   1.135   3.141  13.084 -0.5403  1.5237  0.6016
   9623SM  H15T12989   1.243   3.269  13.139  1.3294 -0.8951  0.3899
   9623SM  C16S12990   1.202   3.127  13.295 -0.4650  0.4804  0.1759
   9623SM  H16S12991   1.297   3.144  13.349  1.2031  2.6194 -3.1190
   9623SM  H16T12992   1.188   3.017  13.306  1.2409  0.4385  2.6564
   9623SM  C17S12993   1.083   3.202  13.356 -0.2417 -0.4270  0.4887
   9623SM  H17S12994   1.106   3.310  13.352 -0.5196 -0.3801  0.1928
   9623SM  H17T12995   1.089   3.175  13.464 -2.1712  0.2471  0.7929
   9623SM  C18S12996   0.955   3.159  13.293 -0.3891 -0.0348  0.1407
   9623SM  H18S12997   0.875   3.213  13.350  0.8038 -0.3125  2.1874
   9623SM  H18T12998   0.921   3.053  13.293 -0.1435 -0.1126  0.1859
   9623SM  H18U12999   0.962   3.210  13.195  1.8556  0.2799  0.4164
   9623SM   C1F13000   1.421   3.037  11.677 -0.0347 -0.7012  0.4412
   9623SM    OF13001   1.507   3.126  11.656  0.7092  0.2148  0.1436
   9623SM   C2F13002   1.452   2.890  11.656 -0.8397 -0.2206 -0.3123
   9623SM   H2F13003   1.421   2.867  11.552 -4.3358 -1.5649  0.8847
   9623SM   H2G13004   1.389   2.832  11.727 -1.0883 -0.0235 -0.3712
   9623SM   C3F13005   1.596   2.859  11.719 -0.0510 -0.1579  0.4266
   9623SM   H3F13006   1.676   2.913  11.663 -1.1401  0.5907 -0.4580
   9623SM   H3G13007   1.615   2.753  11.694 -1.3935  0.2661 -2.8722
   9623SM   C4F13008   1.615   2.877  11.873 -0.6389  0.4110 -0.3547
   9623SM   H4F13009   1.641   2.982  11.900  0.5762 -0.2470  1.1638
   9623SM   H4G13010   1.704   2.823  11.912  1.1001  2.3659 -1.4086
   9623SM   C5F13011   1.495   2.832  11.964  0.2900  0.0442  0.0886
   9623SM   H5F13012   1.493   2.721  11.959  1.1156  0.0646 -1.0060
   9623SM   H5G13013   1.399   2.880  11.935  0.3822 -0.4351 -1.0830
   9623SM   C6F13014   1.523   2.858  12.110 -0.2849 -0.1000 -0.1038
   9623SM   H6F13015   1.514   2.968  12.125 -1.1658 -0.3929  1.9307
   9623SM   H6G13016   1.626   2.820  12.124 -0.5651 -0.5099  0.9612
   9623SM   C7F13017   1.424   2.791  12.204  0.0015 -0.3141  0.0752
   9623SM   H7F13018   1.450   2.684  12.191  2.1694  0.0352  0.9680
   9623SM   H7G13019   1.323   2.810  12.163 -0.0270  1.4138  0.8654
   9623SM   C8F13020   1.430   2.822  12.357 -0.1868 -0.0158 -0.1459
   9623SM   H8F13021   1.354   2.760  12.409  0.7481 -1.5491 -0.5499
   9623SM   H8G13022   1.406   2.929  12.379  1.0087  0.4656 -1.0347
   9623SM   C9F13023   1.564   2.783  12.423 -0.3232  0.0994 -0.0271
   9623SM   H9F13024   1.647   2.854  12.403 -0.2466  0.3991  1.2532
   9623SM   H9G13025   1.592   2.677  12.403  2.7411  0.8280 -0.1201
   9623SM  C10F13026   1.552   2.800  12.579  0.6957 -0.4154  0.3428
   9623SM  H10F13027   1.458   2.751  12.614  0.2594 -0.5672 -0.9724
   9623SM  H10G13028   1.525   2.904  12.608 -0.3477 -0.9034  1.2271
   9623SM  C11F13029   1.656   2.748  12.674  0.1935  1.1925  0.0930
   9623SM  H11F13030   1.756   2.791  12.656  1.5682 -1.4259  0.9836
   9623SM  H11G13031   1.666   2.637  12.666 -0.5763  1.0275  1.2036
   9623SM  C12F13032   1.614   2.767  12.824 -1.0824  0.0910 -0.5927
   9623SM  H12F13033   1.509   2.731  12.830 -0.3934 -2.0951 -0.8663
   9623SM  H12G13034   1.589   2.873  12.845 -1.5231 -0.1262 -0.0114
   9623SM  C13F13035   1.708   2.701  12.928 -0.1783 -0.5190 -0.4795
   9623SM  H13F13036   1.808   2.750  12.920  1.1158 -2.6538  1.5537
   9623SM  H13G13037   1.717   2.594  12.900  0.0446 -0.5966 -0.1127
   9623SM  C14F13038   1.662   2.704  13.075 -0.2494 -0.0029 -0.6933
   9623SM  H14F13039   1.596   2.617  13.095 -0.4944  0.4104  0.3578
   9623SM  H14G13040   1.590   2.789  13.074 -0.1214  0.1602  1.0600
   9623SM  C15F13041   1.767   2.707  13.187  0.5568 -0.2373  0.2326
   9623SM  H15F13042   1.839   2.789  13.166  2.0437 -1.6295 -0.3745
   9623SM  H15G13043   1.824   2.613  13.207  2.1822  0.3293 -1.4311
   9623SM  C16F13044   1.701   2.733  13.328 -1.0169  0.8580  0.1193
   9623SM  H16F13045   1.654   2.834  13.332 -0.4545  1.1092  0.8243
   9623SM  H16G13046   1.780   2.732  13.406 -1.7675 -1.0817  0.9194
   9623SM  C17F13047   1.591   2.634  13.374  0.9409  0.6104 -0.4391
   9623SM  H17F13048   1.628   2.530  13.368 -1.6867 -0.4174 -0.1559
   9623SM  H17G13049   1.496   2.647  13.320  0.2440  2.1862  1.0651
   9623SM  C18F13050   1.558   2.669  13.523  0.2553 -0.1971  0.4691
   9623SM  H18F13051   1.657   2.665  13.572  0.4379  4.6219  1.0055
   9623SM  H18G13052   1.482   2.599  13.563 -0.5459  0.3996  0.0445
   9623SM  C19F13053   1.479   2.804  13.529  0.2476 -0.1392 -0.2447
   9623SM  H19F13054   1.377   2.792  13.486  0.0488  0.3208  0.0958
   9623SM  H19G13055   1.539   2.892  13.497 -2.8347  2.1908 -0.0817
   9623SM  C20F13056   1.445   2.826  13.688 -0.5637 -0.7629  0.3956
   9623SM  H20F13057   1.538   2.790  13.736  1.1458 -0.5387 -2.5603
   9623SM  H20G13058   1.361   2.754  13.704 -0.5937 -0.9491 -0.5332
   9623SM  C21F13059   1.415   2.976  13.728  0.3139 -0.2305  0.6080
   9623SM  H21F13060   1.332   3.022  13.671  0.5742 -0.3422  0.1326
   9623SM  H21G13061   1.500   3.038  13.694 -0.3030 -1.0224 -2.8398
   9623SM  C22F13062   1.396   3.003  13.879 -0.7361 -0.6941  0.3957
   9623SM  H22F13063   1.305   2.954  13.918  0.8138 -2.9939  1.3609
   9623SM  H22G13064   1.378   3.111  13.899 -0.0926 -0.8506  1.9486
   9623SM  C23F13065   1.521   2.965  13.969 -0.3145 -0.0798  0.0654
   9623SM  H23F13066   1.546   2.859  13.945 -0.9342  0.1959 -2.0082
   9623SM  H23G13067   1.492   2.984  14.074  0.3372  0.6527  0.1231
   9623SM  H23H13068   1.608   3.028  13.938 -2.5096  3.4224  0.5437
   9723SM     N13069   3.331   2.088  11.068 -0.6300 -0.3672 -0.0744
   9723SM   C1513070   3.410   2.187  10.981 -0.6403  0.3648  0.9659
   9723SM  H15A13071   3.488   2.130  10.934 -1.4342  0.0470 -0.0087
   9723SM  H15B13072   3.446   2.258  11.055 -1.6592 -0.3800  2.2282
   9723SM  H15C13073   3.349   2.236  10.906  0.5763  1.2030  0.4914
   9723SM   C1413074   3.283   1.981  10.978 -0.5500 -0.3685 -0.5938
   9723SM  H14A13075   3.260   1.890  11.031  1.3940 -0.9199 -0.5987
   9723SM  H14B13076   3.358   1.954  10.905 -0.7272 -1.8516 -0.2613
   9723SM  H14C13077   3.198   2.024  10.928 -0.4911  0.6107  0.1263
   9723SM   C1313078   3.427   2.040  11.183  0.1306 -0.7354  0.9148
   9723SM  H13A13079   3.469   2.114  11.249 -0.8932 -1.3224  2.2703
   9723SM  H13B13080   3.510   1.992  11.132 -0.3165  0.8657 -1.5209
   9723SM  H13C13081   3.378   1.971  11.249  0.1271  0.8793  2.7000
   9723SM   C1213082   3.216   2.161  11.134 -0.5150 -0.3512  0.1421
   9723SM  H12A13083   3.138   2.183  11.063  0.6808  0.4774 -0.9507
   9723SM  H12B13084   3.246   2.256  11.176 -0.3785 -0.1424 -0.4109
   9723SM   C1113085   3.146   2.086  11.253 -0.2209  0.1908  0.1377
   9723SM  H11A13086   3.075   2.162  11.292  0.8556  2.2310 -1.6444
   9723SM  H11B13087   3.215   2.063  11.337  0.5703 -0.7849 -0.7612
   9723SM     P13088   2.934   1.982  11.138 -0.5410  0.2120 -0.2442
   9723SM   O1313089   2.915   2.102  11.059 -0.4355 -0.1750 -0.0857
   9723SM   O1413090   2.905   1.852  11.070 -0.2783  0.3741  0.2517
   9723SM   O1113091   2.855   1.982  11.273  0.2431  0.4394 -0.2172
   9723SM   O1213092   3.081   1.970  11.197  0.3403  0.2882 -0.2682
   9723SM   C1S13093   2.814   1.864  11.351 -0.4237 -0.3414 -0.2742
   9723SM   H1S13094   2.838   1.773  11.292 -0.7560  0.7400 -2.1709
   9723SM   H1T13095   2.704   1.860  11.365 -0.3958  0.3830  0.2044
   9723SM    NF13096   2.856   1.749  11.569  0.6329  0.3465  0.2884
   9723SM   HNF13097   2.759   1.726  11.579  0.8158 -1.3121 -1.2996
   9723SM   C2S13098   2.887   1.875  11.491  0.6227  0.4204 -0.5550
   9723SM   H2S13099   2.994   1.879  11.462  0.5053  0.4878 -0.9853
   9723SM   C3S13100   2.854   2.008  11.571 -0.4022 -0.7139 -0.0118
   9723SM   H3S13101   2.756   2.000  11.623 -0.6072  1.3096 -0.0170
   9723SM    O313102   2.859   2.121  11.482  0.7831 -0.1617  0.5553
   9723SM   HO313103   2.863   2.089  11.392  3.0140 -1.3757  1.0014
   9723SM   C4S13104   2.960   2.026  11.690 -0.2995 -0.2323 -0.0045
   9723SM   H4S13105   2.922   2.005  11.791  1.2472 -0.4273  0.5652
   9723SM   C5S13106   3.087   2.074  11.675  0.5409  1.1383 -0.2404
   9723SM   H5S13107   3.117   2.097  11.572 -0.9849 -0.8372 -1.2033
   9723SM   C6S13108   3.189   2.092  11.789 -0.4219 -0.7944 -0.2050
   9723SM   H6S13109   3.234   2.193  11.783 -1.4385 -0.3920 -1.3264
   9723SM   H6T13110   3.272   2.018  11.784  0.4428 -0.1189  2.3919
   9723SM   C7S13111   3.134   2.072  11.931 -0.5247 -0.2540  0.3435
   9723SM   H7S13112   3.114   1.964  11.947  0.9123 -0.5815  0.1233
   9723SM   H7T13113   3.053   2.143  11.956 -0.2465  0.2680 -0.2219
   9723SM   C8S13114   3.247   2.108  12.032 -0.4889 -0.4343 -0.6029
   9723SM   H8S13115   3.298   2.201  11.998 -3.4533  1.2165 -0.8245
   9723SM   H8T13116   3.321   2.027  12.049  0.2933  0.2716 -0.5190
   9723SM   C9S13117   3.187   2.142  12.174  0.2869 -0.1131 -0.5865
   9723SM   H9S13118   3.103   2.070  12.191 -0.9085  1.2610 -0.4947
   9723SM   H9T13119   3.138   2.241  12.167 -0.8492 -0.3527  2.3369
   9723SM  C10S13120   3.300   2.136  12.286  0.0032 -0.1867  1.0552
   9723SM  H10S13121   3.370   2.222  12.275 -1.7353  1.1531 -0.0032
   9723SM  H10T13122   3.347   2.036  12.272  3.1765  1.3075  0.0222
   9723SM  C11S13123   3.256   2.160  12.428 -0.3964  0.4822  0.2037
   9723SM  H11S13124   3.161   2.102  12.434  0.5814 -1.1351  0.7278
   9723SM  H11T13125   3.231   2.267  12.441  1.2239  0.9377 -0.2427
   9723SM  C12S13126   3.368   2.130  12.529 -0.3829  0.0730  0.3183
   9723SM  H12S13127   3.459   2.188  12.504 -0.0380 -0.4168  0.4147
   9723SM  H12T13128   3.402   2.025  12.517  0.7035  0.3593  0.7864
   9723SM  C13S13129   3.322   2.159  12.671 -0.2265 -0.5843 -0.0592
   9723SM  H13S13130   3.221   2.112  12.680 -0.2371 -0.5356  0.0704
   9723SM  H13T13131   3.313   2.267  12.691 -0.8484 -0.6076 -0.1887
   9723SM  C14S13132   3.424   2.099  12.771 -0.1361  0.4773  0.0755
   9723SM  H14S13133   3.526   2.140  12.754  0.8042 -2.0790 -1.0216
   9723SM  H14T13134   3.426   1.989  12.758  0.7712  0.1002  2.8257
   9723SM  C15S13135   3.388   2.136  12.918  0.2300  0.1943 -0.4271
   9723SM  H15S13136   3.309   2.070  12.959 -0.2627  1.4583  0.7123
   9723SM  H15T13137   3.339   2.235  12.918  1.8591  1.0295  0.2857
   9723SM  C16S13138   3.514   2.139  13.016 -0.0004 -0.3082  0.0748
   9723SM  H16S13139   3.564   2.233  12.985  2.3643 -1.3762  0.4147
   9723SM  H16T13140   3.582   2.057  12.985 -1.8920 -2.0238  0.3201
   9723SM  C17S13141   3.473   2.141  13.163  1.1260 -0.6324 -0.8128
   9723SM  H17S13142   3.440   2.038  13.186  2.2644 -0.6245  1.0171
   9723SM  H17T13143   3.391   2.214  13.181 -0.3245 -2.3999 -0.0422
   9723SM  C18S13144   3.595   2.188  13.245  0.2203  0.5979 -0.0347
   9723SM  H18S13145   3.686   2.133  13.211 -0.4484 -1.5339  1.4405
   9723SM  H18T13146   3.584   2.172  13.354  0.4615  1.2522  0.0877
   9723SM  H18U13147   3.626   2.294  13.238  0.8414  0.5157  1.1634
   9723SM   C1F13148   2.931   1.640  11.550  0.0762  0.8269  0.0817
   9723SM    OF13149   3.036   1.644  11.485  0.6268  0.2251  0.5776
   9723SM   C2F13150   2.889   1.510  11.606  0.3802 -0.5062 -0.2600
   9723SM   H2F13151   2.885   1.429  11.531 -1.5211  0.4405 -1.2528
   9723SM   H2G13152   2.793   1.513  11.661  0.2758  0.0955 -0.4611
   9723SM   C3F13153   2.981   1.474  11.728 -0.0300 -0.4793  0.6951
   9723SM   H3F13154   3.076   1.470  11.670 -2.1977  0.0359 -3.2845
   9723SM   H3G13155   2.968   1.365  11.746  1.1604 -0.9608 -1.0452
   9723SM   C4F13156   3.009   1.575  11.845  0.1609 -0.0355  0.1638
   9723SM   H4F13157   3.048   1.671  11.805  0.4563 -1.1848 -2.5313
   9723SM   H4G13158   3.091   1.535  11.907  0.9611 -1.8399 -1.9290
   9723SM   C5F13159   2.881   1.608  11.913 -0.4113 -0.9763 -0.4085
   9723SM   H5F13160   2.826   1.520  11.954 -0.1553 -1.2680 -0.6940
   9723SM   H5G13161   2.812   1.656  11.841  0.9008  0.0457 -1.0329
   9723SM   C6F13162   2.905   1.711  12.021 -0.5452 -0.7652  0.6236
   9723SM   H6F13163   2.808   1.755  12.053  0.0015  1.3295 -0.3960
   9723SM   H6G13164   2.967   1.793  11.978 -0.4723 -0.3186  1.5461
   9723SM   C7F13165   2.968   1.662  12.149 -0.1435  0.2255  0.0697
   9723SM   H7F13166   3.068   1.619  12.124 -1.7391 -3.5835 -0.3981
   9723SM   H7G13167   2.907   1.585  12.199 -0.7157  0.2943 -0.5107
   9723SM   C8F13168   2.998   1.783  12.253  0.0038 -0.1856  0.3578
   9723SM   H8F13169   2.906   1.842  12.272 -0.4900 -0.8542  0.0765
   9723SM   H8G13170   3.072   1.849  12.202  1.4514  1.3742  4.0594
   9723SM   C9F13171   3.064   1.737  12.384  0.1566 -0.1500 -0.2564
   9723SM   H9F13172   3.144   1.666  12.355 -2.3246 -2.3387 -2.3036
   9723SM   H9G13173   3.000   1.672  12.447  0.7084  0.2604  0.7324
   9723SM  C10F13174   3.119   1.852  12.470 -1.1582  0.5953  0.2688
   9723SM  H10F13175   3.037   1.917  12.507 -1.1587 -0.0079  1.3777
   9723SM  H10G13176   3.190   1.899  12.399  1.1783  0.1553  2.1671
   9723SM  C11F13177   3.189   1.802  12.601 -0.4144 -0.3068  0.3229
   9723SM  H11F13178   3.283   1.858  12.617  0.4571 -2.2261  2.5926
   9723SM  H11G13179   3.212   1.693  12.592  0.5274 -0.1250  0.4726
   9723SM  C12F13180   3.106   1.813  12.734 -0.0168  0.5022  0.0589
   9723SM  H12F13181   3.020   1.744  12.726 -0.3058  1.0436 -2.2012
   9723SM  H12G13182   3.059   1.912  12.754 -1.6639 -0.6710  2.4740
   9723SM  C13F13183   3.195   1.788  12.858 -0.3430 -0.2693  0.6154
   9723SM  H13F13184   3.259   1.879  12.863 -1.3651  0.4507  0.9185
   9723SM  H13G13185   3.263   1.703  12.837  1.9342  0.8141  2.9322
   9723SM  C14F13186   3.120   1.791  12.988 -0.0381 -0.0504 -0.1544
   9723SM  H14F13187   3.040   1.715  13.005  0.6835 -0.8202 -0.1216
   9723SM  H14G13188   3.055   1.881  12.990 -3.0060 -1.9290 -2.0305
   9723SM  C15F13189   3.213   1.788  13.110 -0.0757 -0.2876 -0.1387
   9723SM  H15F13190   3.157   1.814  13.202 -0.1821  2.0112 -0.7855
   9723SM  H15G13191   3.298   1.859  13.102  1.1334 -1.5973  0.5831
   9723SM  C16F13192   3.279   1.655  13.126 -0.8928 -0.2823 -0.1541
   9723SM  H16F13193   3.343   1.629  13.038  2.8987  1.9373  1.6824
   9723SM  H16G13194   3.200   1.577  13.131 -0.7481 -0.3697  3.2759
   9723SM  C17F13195   3.367   1.643  13.251  0.2239  0.4934  0.4830
   9723SM  H17F13196   3.312   1.670  13.343  0.3913  0.0144  0.7269
   9723SM  H17G13197   3.458   1.707  13.241  0.9627 -0.5278  0.5623
   9723SM  C18F13198   3.396   1.495  13.278 -0.4025 -0.3251  0.4321
   9723SM  H18F13199   3.460   1.456  13.196  0.2273  0.8145  0.3710
   9723SM  H18G13200   3.300   1.440  13.267 -0.3345 -0.0908 -1.8549
   9723SM  C19F13201   3.460   1.464  13.410  0.2883  0.0842  0.5838
   9723SM  H19F13202   3.477   1.354  13.410  0.4943  0.0884  2.2243
   9723SM  H19G13203   3.392   1.487  13.495 -0.9672 -1.3245  0.0111
   9723SM  C20F13204   3.595   1.524  13.441  0.0433 -0.5501  0.4121
   9723SM  H20F13205   3.586   1.634  13.455  0.2304 -0.3529 -0.8820
   9723SM  H20G13206   3.663   1.512  13.354  1.1883 -0.3295  1.2459
   9723SM  C21F13207   3.651   1.461  13.566  0.3037 -0.9666  0.3371
   9723SM  H21F13208   3.706   1.367  13.544  2.9034  0.2822  1.0309
   9723SM  H21G13209   3.566   1.441  13.634 -3.7793  3.6300 -2.6562
   9723SM  C22F13210   3.745   1.560  13.651  0.5558  0.5498  0.0737
   9723SM  H22F13211   3.766   1.507  13.746 -5.1367  0.7737  1.7963
   9723SM  H22G13212   3.687   1.649  13.683  0.2109 -0.3837  2.2155
   9723SM  C23F13213   3.871   1.608  13.580  0.3278 -0.2593  0.8870
   9723SM  H23F13214   3.914   1.690  13.641 -0.0715 -0.8218  1.9502
   9723SM  H23G13215   3.857   1.636  13.473 -1.6607 -0.0962  1.1396
   9723SM  H23H13216   3.947   1.528  13.573  1.0230  0.5428 -3.0400
   9823SM     N13217   4.802   0.463  10.741 -0.6244  0.1155  0.0413
   9823SM   C1513218   4.895   0.565  10.681  0.0542 -0.4592  0.5384
   9823SM  H15A13219   4.853   0.662  10.658  1.3962 -0.4613 -2.3441
   9823SM  H15B13220   4.909   0.541  10.577 -1.7327  0.0551  0.1392
   9823SM  H15C13221   4.988   0.577  10.735 -0.3393 -0.5532  1.2517
   9823SM   C1413222   4.681   0.447  10.657 -0.3223 -0.2887  0.6170
   9823SM  H14A13223   4.704   0.380  10.575 -0.3902  2.3265 -1.7202
   9823SM  H14B13224   4.647   0.542  10.617 -0.9485 -0.4161  0.8352
   9823SM  H14C13225   4.594   0.408  10.706  0.4786 -0.9805  1.5095
   9823SM   C1313226   4.871   0.334  10.750  0.1843  0.5383  0.0454
   9823SM  H13A13227   4.944   0.333  10.830 -0.9165 -1.2298  1.1049
   9823SM  H13B13228   4.929   0.310  10.662 -1.5793 -1.0220 -0.7544
   9823SM  H13C13229   4.815   0.245  10.776  0.7371  0.2683  0.3525
   9823SM   C1213230   4.759   0.521  10.878 -0.1816 -0.9862 -0.8441
   9823SM  H12A13231   4.705   0.610  10.847  0.6695  0.5224  1.7343
   9823SM  H12B13232   4.850   0.560  10.919 -1.1076  1.0945 -0.6232
   9823SM   C1113233   4.677   0.442  10.977 -0.2513 -0.3295 -0.3696
   9823SM  H11A13234   4.652   0.512  11.060  1.0738 -0.6775  0.3525
   9823SM  H11B13235   4.743   0.362  11.017  1.1876  0.0215 -1.9032
   9823SM     P13236   4.511   0.236  10.912 -0.0496  0.3257  0.0791
   9823SM   O1313237   4.371   0.224  10.860 -0.0708  0.5087 -0.2675
   9823SM   O1413238   4.612   0.158  10.837 -0.1602  0.1951 -0.1073
   9823SM   O1113239   4.522   0.204  11.068  0.0445  1.0999  0.7256
   9823SM   O1213240   4.550   0.397  10.919 -0.3319  0.2249 -0.4123
   9823SM   C1S13241   4.620   0.118  11.121 -0.3935 -0.1183 -0.5745
   9823SM   H1S13242   4.721   0.149  11.086  0.0804  0.5265  1.2801
   9823SM   H1T13243   4.591   0.016  11.089  0.7991 -0.7979  0.4241
   9823SM    NF13244   4.723   0.044  11.340 -0.2616 -0.4671 -0.0538
   9823SM   HNF13245   4.687  -0.042  11.376 -1.1096 -1.3565 -2.7975
   9823SM   C2S13246   4.625   0.132  11.277 -0.4786 -0.0962 -0.1809
   9823SM   H2S13247   4.653   0.236  11.304 -3.3895  0.9097 -0.6848
   9823SM   C3S13248   4.484   0.108  11.335  0.1013 -0.3793  0.0033
   9823SM   H3S13249   4.454   0.003  11.316  0.4897 -0.8766  1.9198
   9823SM    O313250   4.378   0.199  11.278  0.1239 -0.1982 -0.3042
   9823SM   HO313251   4.419   0.242  11.202 -0.6901  1.5491  0.1777
   9823SM   C4S13252   4.488   0.120  11.480  0.2032  0.8385 -0.3385
   9823SM   H4S13253   4.502   0.020  11.523 -0.3525  1.7600  2.1479
   9823SM   C5S13254   4.474   0.233  11.551  0.2354  0.0375 -0.4003
   9823SM   H5S13255   4.442   0.323  11.496  0.2543  1.4455  1.7286
   9823SM   C6S13256   4.479   0.239  11.704  0.3614  0.1880 -0.4397
   9823SM   H6S13257   4.380   0.219  11.751 -0.7586  1.9892 -1.9042
   9823SM   H6T13258   4.512   0.344  11.719 -1.7792  0.9221 -0.4358
   9823SM   C7S13259   4.592   0.147  11.768 -0.4063 -0.5379 -0.5690
   9823SM   H7S13260   4.692   0.168  11.725  1.6297 -0.1022  3.8598
   9823SM   H7T13261   4.565   0.043  11.741 -0.8742 -0.0433 -2.1361
   9823SM   C8S13262   4.620   0.168  11.912 -0.2111 -0.4408 -0.4465
   9823SM   H8S13263   4.619   0.278  11.930 -4.9373 -0.2456 -0.8687
   9823SM   H8T13264   4.719   0.123  11.937  0.2404  2.1048  3.0631
   9823SM   C9S13265   4.506   0.110  11.996  0.7009 -0.2148 -0.6606
   9823SM   H9S13266   4.493   0.000  11.984 -0.6714 -0.3128  1.1546
   9823SM   H9T13267   4.411   0.165  11.979  1.1855  0.6873 -0.5152
   9823SM  C10S13268   4.537   0.130  12.147 -0.0412 -0.1563  0.6533
   9823SM  H10S13269   4.557   0.237  12.167  0.4890  0.0380 -0.8269
   9823SM  H10T13270   4.628   0.074  12.176  0.1517  0.7419  1.8216
   9823SM  C11S13271   4.431   0.089  12.251  0.4297  0.2702 -0.0543
   9823SM  H11S13272   4.417  -0.021  12.244 -0.0352  0.2117  1.3682
   9823SM  H11T13273   4.331   0.136  12.240  0.7343  1.4772  1.7298
   9823SM  C12S13274   4.483   0.136  12.391 -0.0545  0.3887 -0.2308
   9823SM  H12S13275   4.495   0.246  12.400  0.5501  0.3909 -0.9251
   9823SM  H12T13276   4.581   0.084  12.405  0.2317  0.4401 -1.8449
   9823SM  C13S13277   4.381   0.109  12.502  0.3257  0.1797  0.5905
   9823SM  H13S13278   4.377  -0.000  12.520 -0.7585  0.3948  1.7689
   9823SM  H13T13279   4.278   0.139  12.471 -0.0607  0.0021  1.6623
   9823SM  C14S13280   4.418   0.169  12.639  0.9117  0.5270 -0.8109
   9823SM  H14S13281   4.377   0.272  12.647  1.5269  0.6333  3.6547
   9823SM  H14T13282   4.528   0.175  12.651  1.0351 -1.5234 -0.5322
   9823SM  C15S13283   4.366   0.079  12.753  0.4905 -0.6903  0.9360
   9823SM  H15S13284   4.393  -0.028  12.743 -3.0730 -1.6873  0.6719
   9823SM  H15T13285   4.256   0.073  12.742  0.6525 -2.1126 -0.1038
   9823SM  C16S13286   4.409   0.140  12.890  0.2125  0.1127  0.6311
   9823SM  H16S13287   4.388   0.249  12.888 -0.3366  0.0849  2.5208
   9823SM  H16T13288   4.518   0.133  12.913  0.4875 -1.5274 -1.0204
   9823SM  C17S13289   4.343   0.081  13.010  0.4116  0.0317 -0.1711
   9823SM  H17S13290   4.370  -0.027  13.012 -0.1297 -0.1131 -0.5811
   9823SM  H17T13291   4.234   0.081  12.993  0.0762 -1.4297  1.6987
   9823SM  C18S13292   4.378   0.144  13.142  0.3230 -0.0439 -0.3578
   9823SM  H18S13293   4.348   0.098  13.239  1.4468  2.0705  1.0926
   9823SM  H18T13294   4.338   0.248  13.143 -1.8618 -0.8153  0.6369
   9823SM  H18U13295   4.488   0.158  13.145  0.0751  2.3282  2.0578
   9823SM   C1F13296   4.850   0.068  11.337  0.8122  0.5457  0.7055
   9823SM    OF13297   4.892   0.163  11.275 -0.1330 -0.1806 -0.5334
   9823SM   C2F13298   4.932  -0.035  11.401  0.1166 -0.4561 -0.0338
   9823SM   H2F13299   4.948  -0.124  11.336  2.4614 -0.7718  0.8778
   9823SM   H2G13300   4.870  -0.077  11.484 -1.1768  1.4109  0.0049
   9823SM   C3F13301   5.069   0.020  11.439  0.2482  0.8369  1.1993
   9823SM   H3F13302   5.121   0.054  11.347  0.0227 -1.8132 -0.0030
   9823SM   H3G13303   5.130  -0.066  11.474 -0.5713  0.6804  2.3120
   9823SM   C4F13304   5.054   0.132  11.542 -0.0976 -0.5073  0.1116
   9823SM   H4F13305   4.978   0.203  11.504  1.1271  0.0447 -1.3748
   9823SM   H4G13306   5.152   0.182  11.556 -0.6440  0.5980  0.0625
   9823SM   C5F13307   5.022   0.077  11.679  0.1846  0.6833  0.4229
   9823SM   H5F13308   5.096  -0.005  11.688  1.8287  2.2032  1.7652
   9823SM   H5G13309   4.917   0.044  11.691  0.3372  0.6252  1.7696
   9823SM   C6F13310   5.046   0.176  11.794 -0.2732  0.1449  0.4750
   9823SM   H6F13311   4.958   0.241  11.810 -1.8378 -1.5721 -0.6989
   9823SM   H6G13312   5.133   0.237  11.762 -1.1410  0.0907 -2.2458
   9823SM   C7F13313   5.065   0.095  11.923 -0.8417 -0.0432  0.3735
   9823SM   H7F13314   5.152   0.027  11.921  1.8392  2.9719  3.1807
   9823SM   H7G13315   4.969   0.040  11.938 -1.3755  1.0460  1.0915
   9823SM   C8F13316   5.087   0.178  12.050  0.2683  0.3065  0.9451
   9823SM   H8F13317   5.015   0.263  12.047  0.4782  0.4954  1.1670
   9823SM   H8G13318   5.193   0.213  12.052  0.1719  0.8547 -1.2659
   9823SM   C9F13319   5.069   0.108  12.191 -0.5697  0.2912  0.0376
   9823SM   H9F13320   5.118   0.177  12.263 -0.7720  0.5650 -0.0845
   9823SM   H9G13321   5.131   0.016  12.189  3.0090  2.5087 -1.4016
   9823SM  C10F13322   4.926   0.072  12.232 -0.4384 -0.5645 -0.2923
   9823SM  H10F13323   4.883   0.031  12.137 -0.7493  1.4877 -1.0847
   9823SM  H10G13324   4.863   0.159  12.260 -0.7589 -0.3119 -1.6954
   9823SM  C11F13325   4.921  -0.015  12.356 -0.2024 -0.4059 -0.2206
   9823SM  H11F13326   4.975  -0.111  12.351 -0.7775 -0.8639  1.6264
   9823SM  H11G13327   4.813  -0.042  12.363 -0.9545  1.8161 -1.7827
   9823SM  C12F13328   4.949   0.058  12.495  0.1974  0.0182 -0.3427
   9823SM  H12F13329   4.865   0.128  12.510 -1.0224 -1.7386  1.4600
   9823SM  H12G13330   5.045   0.112  12.480 -0.2214  0.9566  0.2944
   9823SM  C13F13331   4.972  -0.029  12.619  0.0779 -0.1813 -0.0940
   9823SM  H13F13332   5.075  -0.067  12.600 -0.4067 -0.8335 -1.6120
   9823SM  H13G13333   4.913  -0.123  12.613 -0.3331 -0.0475  1.5620
   9823SM  C14F13334   4.955   0.048  12.745 -0.1675  0.1918 -0.0306
   9823SM  H14F13335   4.864   0.112  12.740  0.8075  1.5889 -0.4961
   9823SM  H14G13336   5.034   0.125  12.754  0.7138 -0.7929  0.9493
   9823SM  C15F13337   4.939  -0.032  12.871  0.1032 -0.2195 -0.4887
   9823SM  H15F13338   5.032  -0.088  12.893  0.0395 -0.4702 -0.8375
   9823SM  H15G13339   4.850  -0.098  12.860  0.1908 -0.2524 -1.0223
   9823SM  C16F13340   4.902   0.050  12.997  0.5747  0.5912  0.5739
   9823SM  H16F13341   4.804   0.099  12.981  0.3719 -0.4184 -1.7014
   9823SM  H16G13342   4.981   0.128  13.005  1.5065 -0.1926 -0.6092
   9823SM  C17F13343   4.900  -0.044  13.114 -0.3652 -0.3073 -0.3279
   9823SM  H17F13344   5.006  -0.073  13.132 -0.7385 -0.8551  1.1650
   9823SM  H17G13345   4.834  -0.130  13.094 -1.5229  0.2517  0.8923
   9823SM  C18F13346   4.848   0.027  13.243 -0.2994 -0.0884  0.1109
   9823SM  H18F13347   4.740   0.045  13.227 -0.4496  1.4638  2.4004
   9823SM  H18G13348   4.895   0.127  13.259 -0.7421  0.5668 -2.1996
   9823SM  C19F13349   4.879  -0.050  13.372 -0.3267 -0.6868  0.7366
   9823SM  H19F13350   4.987  -0.035  13.392 -0.0058 -0.2691 -1.1409
   9823SM  H19G13351   4.844  -0.155  13.356  1.8164 -1.1372 -1.5166
   9823SM  C20F13352   4.810  -0.001  13.500  0.0700  0.1676 -0.2570
   9823SM  H20F13353   4.702  -0.006  13.475 -0.1440  1.4837  0.3260
   9823SM  H20G13354   4.834   0.107  13.511  0.6563 -0.1095  1.4483
   9823SM  C21F13355   4.845  -0.099  13.611 -0.1272  0.0943 -0.4474
   9823SM  H21F13356   4.825  -0.202  13.573 -0.7568  0.5931 -1.5148
   9823SM  H21G13357   4.773  -0.076  13.693  1.8270  0.2801  1.3071
   9823SM  C22F13358   4.984  -0.088  13.672 -0.4679  0.2527 -0.5430
   9823SM  H22F13359   5.062  -0.106  13.595 -1.1979  1.9099 -1.7294
   9823SM  H22G13360   4.987  -0.157  13.760 -1.8103 -1.2695 -1.6410
   9823SM  C23F13361   5.017   0.053  13.729 -0.1035 -0.1263  0.6162
   9823SM  H23F13362   4.944   0.086  13.806 -0.8222  0.5150 -0.3207
   9823SM  H23G13363   5.018   0.125  13.645  0.1736 -1.3480 -0.4562
   9823SM  H23H13364   5.116   0.055  13.780 -0.2693  0.9558  0.9157
   9923SM     N13365   6.623   1.098  10.677 -0.0797  0.3267 -0.0262
   9923SM   C1513366   6.756   1.065  10.612  0.4126  0.1136  0.3517
   9923SM  H15A13367   6.823   1.149  10.624  1.2411 -0.6146  0.9778
   9923SM  H15B13368   6.754   1.050  10.505  0.1058  0.9838  0.2325
   9923SM  H15C13369   6.811   0.980  10.651  1.7502  0.4518 -0.7308
   9923SM   C1413370   6.562   1.211  10.609  0.7422  0.0620 -0.3609
   9923SM  H14A13371   6.457   1.216  10.634  0.8762 -3.1027  1.4361
   9923SM  H14B13372   6.574   1.199  10.503  0.4627 -0.3904 -0.3463
   9923SM  H14C13373   6.604   1.306  10.640 -1.2331  0.9091 -0.1246
   9923SM   C1313374   6.540   0.975  10.659 -0.1063  0.4553  1.0311
   9923SM  H13A13375   6.446   0.979  10.711 -1.2204  0.5888 -0.8895
   9923SM  H13B13376   6.596   0.893  10.702 -1.3821 -0.5407  0.8518
   9923SM  H13C13377   6.525   0.948  10.555  0.5327  0.6583  0.8814
   9923SM   C1213378   6.645   1.129  10.830 -0.2386  0.4836  0.1869
   9923SM  H12A13379   6.709   1.215  10.837 -1.2982  1.2663  0.5198
   9923SM  H12B13380   6.703   1.045  10.867 -1.4632 -0.4512  0.0608
   9923SM   C1113381   6.516   1.145  10.921  0.0641 -0.0790  0.4876
   9923SM  H11A13382   6.461   1.229  10.873  1.7924  0.8265  0.0145
   9923SM  H11B13383   6.562   1.179  11.017  0.6362  2.4775 -0.5873
   9923SM     P13384   6.497   0.901  11.010 -0.6408 -0.3435  0.0865
   9923SM   O1313385   6.415   0.785  10.974 -0.0216  0.6313  0.0513
   9923SM   O1413386   6.643   0.885  10.991 -0.2730 -0.5175 -0.5166
   9923SM   O1113387   6.455   0.947  11.154  1.0650 -0.0886 -0.0658
   9923SM   O1213388   6.445   1.026  10.928 -0.0751  0.3672 -0.5993
   9923SM   C1S13389   6.318   1.000  11.175 -0.6571  0.1325 -0.2364
   9923SM   H1S13390   6.246   0.936  11.119 -0.0923 -0.1520 -0.6493
   9923SM   H1T13391   6.306   1.105  11.141 -2.1693 -0.6711 -2.3587
   9923SM    NF13392   6.169   0.998  11.372 -0.3652 -0.1394 -0.3498
   9923SM   HNF13393   6.139   1.092  11.389 -1.4450 -0.6185  0.5115
   9923SM   C2S13394   6.307   0.998  11.328 -0.4726  0.1439  0.2410
   9923SM   H2S13395   6.349   0.904  11.369 -1.5613  0.2031  1.5622
   9923SM   C3S13396   6.403   1.109  11.384  0.3174 -0.9891 -0.4286
   9923SM   H3S13397   6.356   1.199  11.339 -0.8984 -1.1270  0.5182
   9923SM    O313398   6.539   1.103  11.350 -0.0550  0.2869 -0.0519
   9923SM   HO313399   6.534   1.042  11.277  1.4370  1.5635 -1.2823
   9923SM   C4S13400   6.397   1.113  11.535  0.1642  0.1149 -0.2274
   9923SM   H4S13401   6.390   1.014  11.582 -0.9721 -0.2980 -1.2145
   9923SM   C5S13402   6.372   1.219  11.611  0.1225  0.4679  0.0143
   9923SM   H5S13403   6.385   1.318  11.565  1.3402 -0.4047 -1.6382
   9923SM   C6S13404   6.340   1.203  11.755 -0.1646 -0.6746  0.2144
   9923SM   H6S13405   6.393   1.286  11.806 -1.4186  0.2358  0.0835
   9923SM   H6T13406   6.363   1.105  11.800  0.8879 -0.0163  1.1400
   9923SM   C7S13407   6.189   1.230  11.789 -0.1844 -0.2557 -0.0648
   9923SM   H7S13408   6.131   1.141  11.754  0.8269 -0.7675 -0.4721
   9923SM   H7T13409   6.149   1.316  11.731 -1.0788 -1.1411 -0.8132
   9923SM   C8S13410   6.173   1.251  11.936  0.6082 -0.1854 -0.3597
   9923SM   H8S13411   6.192   1.359  11.955  2.1410 -0.7655  1.8634
   9923SM   H8T13412   6.246   1.203  12.005  1.2836 -0.8951 -1.5322
   9923SM   C9S13413   6.028   1.233  11.981 -0.3336  0.3483 -0.1999
   9923SM   H9S13414   6.002   1.125  11.974 -0.9507  0.5601 -1.3462
   9923SM   H9T13415   5.953   1.285  11.917 -1.7537 -2.4991 -0.9950
   9923SM  C10S13416   6.003   1.276  12.127 -0.6336  0.5789 -0.5727
   9923SM  H10S13417   5.892   1.267  12.138 -0.6047 -0.2676 -0.8991
   9923SM  H10T13418   6.014   1.384  12.147 -2.6150  0.3398  2.4297
   9923SM  C11S13419   6.076   1.201  12.242  0.9052 -0.6674 -0.4368
   9923SM  H11S13420   6.186   1.194  12.223  0.6921 -1.2610 -1.5307
   9923SM  H11T13421   6.025   1.104  12.262 -1.3295  0.9895  2.6673
   9923SM  C12S13422   6.048   1.268  12.380 -0.2808 -0.0671 -0.1499
   9923SM  H12S13423   5.947   1.313  12.386  0.2249  0.9839  1.0548
   9923SM  H12T13424   6.114   1.358  12.384  0.0073 -0.2655 -0.3913
   9923SM  C13S13425   6.079   1.174  12.495  0.2953 -0.2739  0.2261
   9923SM  H13S13426   6.179   1.127  12.486  0.1722 -0.6115  0.5919
   9923SM  H13T13427   6.014   1.084  12.490  0.8764 -0.7208  0.5516
   9923SM  C14S13428   6.066   1.244  12.637  0.2875  0.2404  0.1124
   9923SM  H14S13429   5.962   1.274  12.660 -0.4744 -1.9014 -0.2691
   9923SM  H14T13430   6.139   1.328  12.636  1.8913 -1.1087 -0.0712
   9923SM  C15S13431   6.117   1.164  12.753  0.4509 -0.3381 -0.1415
   9923SM  H15S13432   6.224   1.134  12.743  0.1921 -1.4680  0.2441
   9923SM  H15T13433   6.055   1.073  12.768 -0.1191  0.1077  0.2516
   9923SM  C16S13434   6.098   1.236  12.893 -1.0182 -0.4997 -0.4316
   9923SM  H16S13435   5.993   1.234  12.929 -0.3657 -0.8213  1.5885
   9923SM  H16T13436   6.121   1.344  12.880 -2.1304 -0.2593 -0.5781
   9923SM  C17S13437   6.175   1.180  13.015  0.0785 -0.1568  0.0950
   9923SM  H17S13438   6.271   1.235  13.019  0.5259 -0.9293  0.0876
   9923SM  H17T13439   6.207   1.076  12.992 -0.5027 -0.1887 -0.6287
   9923SM  C18S13440   6.079   1.190  13.144 -1.0683 -0.2530 -0.0337
   9923SM  H18S13441   6.028   1.288  13.144  2.3735  1.7343  1.2611
   9923SM  H18T13442   6.140   1.167  13.234  1.0642 -1.8033 -1.7571
   9923SM  H18U13443   6.003   1.111  13.128 -1.5579  0.2050  0.0374
   9923SM   C1F13444   6.083   0.905  11.352  0.2162 -0.1377  0.4042
   9923SM    OF13445   6.116   0.802  11.290  0.1423 -0.0915  0.0590
   9923SM   C2F13446   5.944   0.919  11.402  0.0106 -0.1629  0.1864
   9923SM   H2F13447   5.877   0.934  11.315 -0.7581 -1.3525  0.5437
   9923SM   H2G13448   5.933   1.007  11.470 -2.3840 -1.9963  2.3828
   9923SM   C3F13449   5.890   0.804  11.492 -1.0443  0.2449 -0.4659
   9923SM   H3F13450   5.957   0.804  11.581  0.9030 -0.5399 -1.8583
   9923SM   H3G13451   5.906   0.710  11.436  0.1068 -0.0704  0.3488
   9923SM   C4F13452   5.741   0.834  11.519  0.1387 -0.2203  0.9495
   9923SM   H4F13453   5.692   0.791  11.430 -0.8476  2.7924 -0.0781
   9923SM   H4G13454   5.718   0.941  11.535  1.0462 -0.0586  1.2617
   9923SM   C5F13455   5.690   0.755  11.646 -0.1394  0.6802  0.6917
   9923SM   H5F13456   5.728   0.652  11.629  0.0400  0.8657 -0.0555
   9923SM   H5G13457   5.579   0.748  11.639 -0.1357  0.8730  0.4060
   9923SM   C6F13458   5.736   0.809  11.778  0.3832  0.7064  0.2957
   9923SM   H6F13459   5.716   0.918  11.778  1.3973  0.9101  0.9853
   9923SM   H6G13460   5.847   0.804  11.781  0.5038  1.6100 -1.2261
   9923SM   C7F13461   5.672   0.730  11.895 -0.1062  0.4508 -0.5362
   9923SM   H7F13462   5.689   0.621  11.881  1.4863  0.6975 -0.7642
   9923SM   H7G13463   5.565   0.759  11.898 -0.8194 -2.0089  2.0332
   9923SM   C8F13464   5.732   0.782  12.031 -0.8038 -0.5959 -0.6215
   9923SM   H8F13465   5.700   0.888  12.025 -0.0762 -0.4072 -1.3437
   9923SM   H8G13466   5.843   0.772  12.037 -0.8265 -0.0482  1.6191
   9923SM   C9F13467   5.660   0.716  12.151  0.3439  0.4030  0.3405
   9923SM   H9F13468   5.696   0.611  12.154  0.5052  0.4722  1.0654
   9923SM   H9G13469   5.550   0.723  12.134  0.2557  1.9644  1.3772
   9923SM  C10F13470   5.691   0.793  12.276  0.7773  0.3292 -0.1738
   9923SM  H10F13471   5.626   0.883  12.284 -0.1269 -0.4797  2.5793
   9923SM  H10G13472   5.796   0.830  12.274  1.5400 -1.7526 -1.4861
   9923SM  C11F13473   5.670   0.711  12.405 -0.0099 -0.6359 -0.8799
   9923SM  H11F13474   5.727   0.616  12.403 -1.9697 -1.8448 -1.6863
   9923SM  H11G13475   5.563   0.684  12.408 -0.5879  1.4955 -0.7642
   9923SM  C12F13476   5.690   0.791  12.534 -0.3594 -0.2347 -0.9055
   9923SM  H12F13477   5.626   0.882  12.539  0.3429  0.2223  0.2920
   9923SM  H12G13478   5.795   0.827  12.537  0.7142 -2.9120 -2.6313
   9923SM  C13F13479   5.659   0.706  12.660  0.0897  0.0240  1.0893
   9923SM  H13F13480   5.730   0.620  12.656  0.6193  0.4155  1.8348
   9923SM  H13G13481   5.560   0.659  12.639 -0.1697  1.4024 -1.1569
   9923SM  C14F13482   5.684   0.776  12.798  0.1654  0.2852  0.5633
   9923SM  H14F13483   5.675   0.693  12.871 -3.1153  0.6726  0.7433
   9923SM  H14G13484   5.603   0.849  12.819 -1.0096 -0.4338 -1.2087
   9923SM  C15F13485   5.821   0.835  12.820  0.2457  0.0552  0.2586
   9923SM  H15F13486   5.849   0.926  12.764  1.0011  0.1066  0.7035
   9923SM  H15G13487   5.891   0.755  12.787 -1.7876 -0.2694 -3.8367
   9923SM  C16F13488   5.843   0.888  12.966 -0.0230  0.2647 -1.1090
   9923SM  H16F13489   5.775   0.976  12.974  1.4793  1.4921 -1.4216
   9923SM  H16G13490   5.949   0.922  12.969 -0.8686  3.3470 -1.7841
   9923SM  C17F13491   5.821   0.790  13.078 -0.5299  0.1364  0.7323
   9923SM  H17F13492   5.877   0.702  13.041  0.3274  1.4264 -1.2182
   9923SM  H17G13493   5.714   0.764  13.070  0.0255 -1.7347 -1.9982
   9923SM  C18F13494   5.873   0.832  13.213  0.3101  0.6488  0.0817
   9923SM  H18F13495   5.828   0.929  13.243 -2.3484 -0.6957  0.7267
   9923SM  H18G13496   5.984   0.843  13.208  0.6128 -1.9306 -0.1160
   9923SM  C19F13497   5.834   0.728  13.323 -0.4182  0.2647 -0.4621
   9923SM  H19F13498   5.867   0.773  13.420  2.4948 -0.6352 -0.9312
   9923SM  H19G13499   5.888   0.634  13.302  0.7094  0.8949 -0.4611
   9923SM  C20F13500   5.683   0.691  13.340 -0.7910  0.6870  0.0902
   9923SM  H20F13501   5.644   0.650  13.243 -0.2770 -2.1337  0.9756
   9923SM  H20G13502   5.622   0.780  13.365 -0.5929  0.2800  2.1833
   9923SM  C21F13503   5.656   0.586  13.446 -0.4014 -0.2570 -0.0262
   9923SM  H21F13504   5.675   0.642  13.540 -1.9548  0.8229 -0.3167
   9923SM  H21G13505   5.720   0.495  13.445 -2.3687 -1.8519  2.6883
   9923SM  C22F13506   5.506   0.545  13.451 -1.0774  0.6551  0.3167
   9923SM  H22F13507   5.504   0.454  13.515  1.3297  0.2738 -0.0356
   9923SM  H22G13508   5.483   0.495  13.355  4.3840  0.0179 -1.0067
   9923SM  C23F13509   5.418   0.647  13.509  0.2549 -0.3585 -0.5249
   9923SM  H23F13510   5.314   0.608  13.501  0.5405 -0.9716 -1.5342
   9923SM  H23G13511   5.425   0.745  13.458  0.4323  0.3035  0.7409
   9923SM  H23H13512   5.432   0.666  13.617 -1.8069  0.7369 -0.4114
  10023SM     N13513   5.864   1.429  10.824  0.4637 -0.5469  0.5884
  10023SM   C1513514   5.826   1.308  10.902  0.7207  0.4691  0.1078
  10023SM  H15A13515   5.729   1.321  10.947  1.0418  2.4585  0.3030
  10023SM  H15B13516   5.901   1.290  10.978 -1.7862 -1.8212  2.2291
  10023SM  H15C13517   5.832   1.222  10.836  3.2150 -0.3454  1.2471
  10023SM   C1413518   5.771   1.435  10.704 -0.5209  0.6350  0.1728
  10023SM  H14A13519   5.796   1.345  10.649 -0.1231 -0.2100  1.6698
  10023SM  H14B13520   5.792   1.516  10.636 -3.0267  0.2749 -1.1457
  10023SM  H14C13521   5.667   1.432  10.730 -0.2847  1.1252  1.2211
  10023SM   C1313522   5.842   1.547  10.918 -0.5211 -1.1858  0.7837
  10023SM  H13A13523   5.853   1.642  10.867 -1.6358 -0.9932  0.8749
  10023SM  H13B13524   5.912   1.545  11.000  1.8361  0.8922 -1.0313
  10023SM  H13C13525   5.747   1.540  10.970 -0.7890  0.6595  0.6172
  10023SM   C1213526   6.007   1.422  10.780  0.3772 -0.6506  0.0373
  10023SM  H12A13527   6.042   1.504  10.718  0.7334 -0.5880  0.3146
  10023SM  H12B13528   6.024   1.331  10.726 -0.0431  0.8825 -2.8584
  10023SM   C1113529   6.105   1.416  10.899  0.3870 -0.2061 -0.2193
  10023SM  H11A13530   6.208   1.384  10.872  0.8858 -0.2501  1.6207
  10023SM  H11B13531   6.074   1.334  10.967 -1.2781 -0.4690 -1.2403
  10023SM     P13532   6.233   1.622  11.003  0.0862  0.0248 -0.2701
  10023SM   O1313533   6.349   1.591  10.924  0.2156 -0.0789  1.1311
  10023SM   O1413534   6.195   1.764  11.002 -0.5064  0.5410  0.1413
  10023SM   O1113535   6.266   1.583  11.154 -0.0089 -0.0099  0.3358
  10023SM   O1213536   6.107   1.537  10.973 -0.0183  0.3254  0.5742
  10023SM   C1S13537   6.165   1.529  11.236 -0.6608 -0.7282 -0.1675
  10023SM   H1S13538   6.163   1.420  11.215 -1.2833 -1.3163  2.6353
  10023SM   H1T13539   6.063   1.568  11.213 -0.3485  0.8997  1.0202
  10023SM    NF13540   6.065   1.514  11.462 -0.0100 -0.1490 -0.1670
  10023SM   HNF13541   6.011   1.580  11.514 -1.2203  0.7008 -2.3717
  10023SM   C2S13542   6.180   1.558  11.388  0.1078 -0.7504  0.1952
  10023SM   H2S13543   6.263   1.490  11.418  2.7631  2.6568  1.3155
  10023SM   C3S13544   6.224   1.700  11.430  0.1566  0.4745  0.1376
  10023SM   H3S13545   6.139   1.771  11.418 -0.0611  0.0204 -1.2177
  10023SM    O313546   6.309   1.763  11.338 -0.7022  0.1033  0.1401
  10023SM   HO313547   6.286   1.712  11.259  2.3177 -0.3201 -0.6347
  10023SM   C4S13548   6.283   1.695  11.570  0.0055  0.2773  0.3104
  10023SM   H4S13549   6.215   1.730  11.649  0.4572 -0.2218  0.9287
  10023SM   C5S13550   6.411   1.660  11.600  0.4616  0.2035  0.0004
  10023SM   H5S13551   6.488   1.653  11.522  2.1891  2.9525  1.2710
  10023SM   C6S13552   6.464   1.661  11.744  0.1519  0.0447  0.4593
  10023SM   H6S13553   6.518   1.757  11.761  2.2777 -0.8122 -0.9552
  10023SM   H6T13554   6.538   1.578  11.740  0.0829 -0.0885  1.6512
  10023SM   C7S13555   6.365   1.640  11.864  0.2972  0.2973 -0.5268
  10023SM   H7S13556   6.295   1.555  11.845 -0.4263  1.0053 -1.0858
  10023SM   H7T13557   6.305   1.733  11.853  1.4528  1.1656  0.3448
  10023SM   C8S13558   6.433   1.634  12.002 -0.4373  0.2796 -0.2381
  10023SM   H8S13559   6.490   1.729  12.000  1.0089 -0.5598 -2.5646
  10023SM   H8T13560   6.504   1.551  12.017 -0.4875  0.0325 -1.2403
  10023SM   C9S13561   6.351   1.641  12.135 -0.1873  0.3298  0.1843
  10023SM   H9S13562   6.276   1.559  12.129 -0.1387  0.1702  1.5910
  10023SM   H9T13563   6.305   1.741  12.146  1.2347  0.9028  1.2822
  10023SM  C10S13564   6.435   1.609  12.257  0.1508  0.2647 -0.1777
  10023SM  H10S13565   6.505   1.690  12.284 -0.6607 -0.0684  3.4624
  10023SM  H10T13566   6.484   1.511  12.238 -0.4464 -0.1493  0.3620
  10023SM  C11S13567   6.344   1.582  12.380  0.6400 -0.3392  0.6620
  10023SM  H11S13568   6.291   1.488  12.357  0.5420  0.0801 -0.9684
  10023SM  H11T13569   6.268   1.662  12.392 -0.9288 -1.3074 -1.9274
  10023SM  C12S13570   6.435   1.538  12.497 -0.0608  0.1527  0.1698
  10023SM  H12S13571   6.530   1.595  12.494  0.9123 -1.4635 -1.2925
  10023SM  H12T13572   6.467   1.432  12.497 -0.4457  0.0346  0.2302
  10023SM  C13S13573   6.358   1.575  12.629 -0.6250  0.9537  0.5679
  10023SM  H13S13574   6.267   1.512  12.628  0.7105 -1.1134 -1.5462
  10023SM  H13T13575   6.321   1.679  12.622  3.0618  2.3892 -0.1259
  10023SM  C14S13576   6.444   1.550  12.747  0.0879  0.0087  0.1421
  10023SM  H14S13577   6.523   1.628  12.748 -2.1775  2.4510  1.2130
  10023SM  H14T13578   6.474   1.443  12.748  1.2712  0.3095 -1.0240
  10023SM  C15S13579   6.376   1.561  12.892  0.2564  0.3271 -0.5356
  10023SM  H15S13580   6.293   1.487  12.900  1.5399 -1.3370 -1.8196
  10023SM  H15T13581   6.332   1.663  12.887  2.3423  1.2303 -1.6878
  10023SM  C16S13582   6.472   1.543  13.010  0.2162  0.0145  0.0165
  10023SM  H16S13583   6.487   1.436  13.035 -2.3155 -0.7098 -1.2449
  10023SM  H16T13584   6.408   1.591  13.086  0.2561  0.2340 -0.0875
  10023SM  C17S13585   6.603   1.620  12.997 -0.0911 -0.2054 -0.3841
  10023SM  H17S13586   6.576   1.719  12.954 -5.1271 -2.2948 -2.8261
  10023SM  H17T13587   6.674   1.568  12.928 -0.3234 -1.2579  0.1533
  10023SM  C18S13588   6.677   1.630  13.135 -0.0176 -0.3756 -0.3556
  10023SM  H18S13589   6.712   1.534  13.179  3.0355 -0.2886 -2.2720
  10023SM  H18T13590   6.609   1.673  13.211 -0.7296 -0.0911 -1.1435
  10023SM  H18U13591   6.763   1.700  13.126  0.1806 -0.4408  0.7812
  10023SM   C1F13592   6.013   1.390  11.452 -0.2156 -0.2041 -0.3292
  10023SM    OF13593   6.074   1.289  11.415  0.4044 -0.1139  0.7193
  10023SM   C2F13594   5.868   1.385  11.488  0.1699  0.3975 -0.3065
  10023SM   H2F13595   5.813   1.331  11.408 -1.9833  0.0007  1.3354
  10023SM   H2G13596   5.831   1.490  11.489  0.1509  0.3910 -0.3383
  10023SM   C3F13597   5.858   1.315  11.625 -0.3671 -0.0314  0.0474
  10023SM   H3F13598   5.908   1.384  11.696  0.2330  0.8805 -1.2159
  10023SM   H3G13599   5.924   1.226  11.635  0.3933  0.6157  0.8962
  10023SM   C4F13600   5.715   1.277  11.665  0.1071 -0.2438  0.2202
  10023SM   H4F13601   5.663   1.222  11.584 -1.4220  1.4267  0.0217
  10023SM   H4G13602   5.653   1.369  11.667  1.1499  0.4920 -0.1906
  10023SM   C5F13603   5.690   1.204  11.796 -0.1579  0.5557 -0.6901
  10023SM   H5F13604   5.780   1.143  11.817 -0.5071 -0.0711 -0.9882
  10023SM   H5G13605   5.602   1.136  11.789  1.8024 -1.9764 -2.6389
  10023SM   C6F13606   5.663   1.290  11.919 -0.4418  0.0033 -0.0601
  10023SM   H6F13607   5.574   1.354  11.904 -1.9606 -1.9074  0.4378
  10023SM   H6G13608   5.748   1.361  11.927  0.0437 -0.6131  0.4012
  10023SM   C7F13609   5.658   1.196  12.040 -0.6088  0.4900 -0.2660
  10023SM   H7F13610   5.755   1.143  12.040 -0.7239  0.2497  1.0524
  10023SM   H7G13611   5.577   1.121  12.032 -0.3552  0.3325 -1.6403
  10023SM   C8F13612   5.642   1.290  12.164 -0.1390 -1.1646 -0.0949
  10023SM   H8F13613   5.544   1.342  12.156  0.2170 -0.4782 -0.0873
  10023SM   H8G13614   5.721   1.368  12.172 -1.7841  0.7167 -1.1235
  10023SM   C9F13615   5.640   1.209  12.297  0.3509  0.7466 -0.4307
  10023SM   H9F13616   5.728   1.145  12.319 -0.5089  0.0748  1.1491
  10023SM   H9G13617   5.553   1.141  12.288  1.0954 -0.4923  1.1219
  10023SM  C10F13618   5.616   1.300  12.421 -0.6029 -0.2781  0.4738
  10023SM  H10F13619   5.511   1.332  12.400  0.5479  2.4913 -1.6240
  10023SM  H10G13620   5.678   1.391  12.407 -0.6521 -0.1268  1.2312
  10023SM  C11F13621   5.635   1.222  12.550  0.2623  0.3806 -0.6495
  10023SM  H11F13622   5.735   1.175  12.555 -0.1599 -0.5187 -0.4482
  10023SM  H11G13623   5.553   1.150  12.567  0.4523  0.1492 -0.7182
  10023SM  C12F13624   5.636   1.316  12.678  0.4022  0.4037 -0.9535
  10023SM  H12F13625   5.532   1.351  12.692  0.4371 -0.3329  1.6311
  10023SM  H12G13626   5.702   1.404  12.660 -1.0815  1.1361 -3.1528
  10023SM  C13F13627   5.687   1.246  12.806  0.2447  0.0989 -0.4526
  10023SM  H13F13628   5.795   1.220  12.796  0.1771  0.1239 -1.3181
  10023SM  H13G13629   5.630   1.151  12.817  0.0914  0.2036 -0.3451
  10023SM  C14F13630   5.647   1.338  12.930 -0.0413  0.8307 -0.5800
  10023SM  H14F13631   5.537   1.349  12.940 -0.5131 -2.8248 -0.4967
  10023SM  H14G13632   5.694   1.435  12.905 -0.9228  1.3485 -0.2636
  10023SM  C15F13633   5.701   1.278  13.054 -0.1659  0.0413 -0.4128
  10023SM  H15F13634   5.810   1.288  13.037 -0.2698  3.7007  0.3294
  10023SM  H15G13635   5.667   1.174  13.073 -0.1547  0.2950  1.1257
  10023SM  C16F13636   5.676   1.357  13.181  0.6677  0.2213 -0.3862
  10023SM  H16F13637   5.567   1.366  13.198  0.5841 -2.1905  0.9587
  10023SM  H16G13638   5.730   1.454  13.180  0.3854  0.3759 -1.5994
  10023SM  C17F13639   5.740   1.294  13.305 -0.5073 -0.1771 -0.0149
  10023SM  H17F13640   5.734   1.370  13.385 -1.3429  2.0168 -2.0403
  10023SM  H17G13641   5.844   1.255  13.289 -0.0543  1.1947 -0.5405
  10023SM  C18F13642   5.666   1.174  13.363 -0.8556  0.4466  0.1742
  10023SM  H18F13643   5.671   1.081  13.302 -0.9997 -0.8369  1.9987
  10023SM  H18G13644   5.561   1.211  13.371 -0.0511  3.8808 -2.7101
  10023SM  C19F13645   5.710   1.135  13.506 -0.0019  0.4488 -0.3244
  10023SM  H19F13646   5.718   1.228  13.566  2.2130 -0.5592  1.0690
  10023SM  H19G13647   5.817   1.104  13.501 -0.1728 -0.0812 -0.7965
  10023SM  C20F13648   5.619   1.029  13.569  0.0421 -0.1417  0.2266
  10023SM  H20F13649   5.638   0.931  13.520  0.0467  0.0159 -0.0881
  10023SM  H20G13650   5.516   1.056  13.540 -0.3443 -0.2509  1.4115
  10023SM  C21F13651   5.645   1.024  13.719 -0.0586  0.2165  0.0809
  10023SM  H21F13652   5.650   1.117  13.779 -0.0471 -1.0085  2.0786
  10023SM  H21G13653   5.745   0.976  13.732 -1.3423 -2.3709  1.0391
  10023SM  C22F13654   5.549   0.922  13.791  0.8433  0.4192 -0.0259
  10023SM  H22F13655   5.560   0.830  13.729  1.2102  0.2523  0.2789
  10023SM  H22G13656   5.449   0.969  13.775  1.4876  0.9960 -2.9510
  10023SM  C23F13657   5.583   0.875  13.930  0.5816  0.0714 -0.2082
  10023SM  H23F13658   5.517   0.791  13.962 -1.9476  1.1591 -2.1601
  10023SM  H23G13659   5.576   0.964  13.997  1.5433  0.7828 -1.0253
  10023SM  H23H13660   5.685   0.833  13.929 -0.1259 -1.7511  0.0601
  101CHL1    C313661   3.229   4.731  15.505  0.1097 -0.1019  0.0346
  101CHL1    H313662   3.311   4.659  15.529 -0.6810 -1.2824 -0.7424
  101CHL1    O313663   3.170   4.771  15.627  0.0764 -0.0321  0.1500
  101CHL1   H3'13664   3.121   4.852  15.607  1.8744  0.8099 -1.0976
  101CHL1    C413665   3.285   4.852  15.433 -0.7156 -0.3589  0.3251
  101CHL1   H4A13666   3.207   4.931  15.430  1.6665  2.1990  1.3423
  101CHL1   H4B13667   3.369   4.886  15.498 -0.2878 -2.1787  0.7902
  101CHL1    C513668   3.348   4.826  15.301  0.2771 -0.5793  1.2737
  101CHL1    C613669   3.473   4.862  15.268 -0.3588 -0.0208  0.4537
  101CHL1    H613670   3.531   4.916  15.344 -0.2038 -0.6945  0.8272
  101CHL1    C713671   3.522   4.849  15.128 -0.9744 -0.2948  0.2799
  101CHL1   H7A13672   3.567   4.945  15.094 -0.9874 -1.2078 -2.5706
  101CHL1   H7B13673   3.603   4.773  15.132 -0.2576  0.4997  1.2565
  101CHL1    C813674   3.423   4.796  15.024  0.4335 -0.6133  0.7962
  101CHL1    H813675   3.372   4.889  14.990  0.5947 -0.4245  1.0662
  101CHL1   C1413676   3.492   4.734  14.899  0.6483 -0.4441  0.2724
  101CHL1   H1413677   3.538   4.641  14.939 -0.4853 -1.6461 -1.1381
  101CHL1   C1513678   3.607   4.807  14.826  0.2595  0.4071 -0.5464
  101CHL1  H15A13679   3.601   4.917  14.842 -2.7635  0.3812 -0.9171
  101CHL1  H15B13680   3.707   4.781  14.866  0.2896  1.0376 -0.2056
  101CHL1   C1613681   3.597   4.751  14.681  0.0534  0.4282 -0.6632
  101CHL1  H16A13682   3.573   4.836  14.613  1.1244  0.5455 -0.9090
  101CHL1  H16B13683   3.688   4.707  14.636 -0.7433 -2.0306 -0.0229
  101CHL1   C1713684   3.477   4.651  14.669  0.0439 -0.0602 -0.0000
  101CHL1   H1713685   3.515   4.552  14.700  0.9028  0.3224  0.2025
  101CHL1   C1313686   3.389   4.697  14.790 -0.3846  0.3450  0.0169
  101CHL1   C1813687   3.322   4.825  14.745  0.1585 -0.0647  0.0486
  101CHL1  H18A13688   3.261   4.797  14.656 -1.5672 -1.4190  1.5952
  101CHL1  H18B13689   3.250   4.866  14.819  1.2831 -1.5905  2.0914
  101CHL1  H18C13690   3.389   4.909  14.716 -1.3532  1.6071  1.1754
  101CHL1   C1213691   3.297   4.588  14.850  0.3017 -0.2663  0.0365
  101CHL1  H12A13692   3.216   4.558  14.780 -0.6935  0.6312  0.7819
  101CHL1  H12B13693   3.365   4.504  14.879  0.3463 -0.0046  0.7220
  101CHL1   C1113694   3.221   4.644  14.974 -0.2133  0.1468 -0.4796
  101CHL1  H11A13695   3.143   4.718  14.943 -1.6179 -0.6955  0.9074
  101CHL1  H11B13696   3.168   4.552  15.006 -0.7553  0.9354  0.9795
  101CHL1    C913697   3.318   4.698  15.079  0.8904  0.0809 -0.5453
  101CHL1    H913698   3.379   4.612  15.113 -1.4663 -2.0665 -1.4227
  101CHL1   C1013699   3.248   4.751  15.204  0.3287 -0.2978 -0.4471
  101CHL1   C1913700   3.130   4.852  15.158 -0.5096  0.1234  0.0978
  101CHL1  H19A13701   3.171   4.932  15.093 -0.6218 -0.5503 -0.8254
  101CHL1  H19B13702   3.038   4.805  15.115 -1.0210  2.4843 -1.5885
  101CHL1  H19C13703   3.098   4.896  15.254  2.3579  0.9759  0.7574
  101CHL1    C113704   3.187   4.628  15.282  0.1284 -0.3839 -0.3566
  101CHL1   H1A13705   3.104   4.594  15.216  0.1963 -0.3861 -0.4428
  101CHL1   H1B13706   3.260   4.544  15.282 -0.0120 -0.5225  0.8031
  101CHL1    C213707   3.126   4.658  15.421 -0.0588 -0.6325  0.4008
  101CHL1   H2A13708   3.088   4.565  15.469  0.2739 -0.3926  1.1504
  101CHL1   H2B13709   3.028   4.710  15.412  0.1025 -0.4455 -0.3280
  101CHL1   C2013710   3.416   4.640  14.531 -0.3505  0.5356  0.0074
  101CHL1   H2013711   3.372   4.739  14.508 -1.3652  0.0486 -0.1992
  101CHL1   C2113712   3.305   4.536  14.516  0.2618 -0.3887 -0.0192
  101CHL1  H21A13713   3.273   4.535  14.410  0.6246  1.7319 -0.1966
  101CHL1  H21B13714   3.210   4.552  14.571 -1.1945  0.5595 -2.6226
  101CHL1  H21C13715   3.356   4.441  14.543  0.6053 -0.2058 -0.0089
  101CHL1   C2213716   3.525   4.624  14.425 -0.1981  0.4628 -0.5400
  101CHL1  H22A13717   3.479   4.613  14.325 -2.2628 -3.3623  0.6347
  101CHL1  H22B13718   3.602   4.702  14.438  0.9952 -0.8973  0.9782
  101CHL1   C2313719   3.608   4.497  14.440  0.1417 -0.0586  0.6807
  101CHL1  H23A13720   3.634   4.468  14.544  0.4596 -1.1998  0.3015
  101CHL1  H23B13721   3.540   4.418  14.400  0.6227 -0.0996 -0.0620
  101CHL1   C2413722   3.738   4.503  14.345 -0.6351  0.0376  0.0669
  101CHL1  H24A13723   3.709   4.534  14.242 -0.0108 -0.8761 -0.4014
  101CHL1  H24B13724   3.805   4.579  14.390 -0.8446  0.3926 -0.2152
  101CHL1   C2513725   3.829   4.373  14.332  0.2394  0.3994 -0.2561
  101CHL1   H2513726   3.841   4.328  14.433 -0.9491  1.0738  0.2051
  101CHL1   C2613727   3.755   4.267  14.251 -0.2038 -0.2377  0.0067
  101CHL1  H26A13728   3.653   4.252  14.294 -0.6644  2.4112  0.0311
  101CHL1  H26B13729   3.743   4.310  14.150  1.3579  1.8545  0.6472
  101CHL1  H26C13730   3.799   4.165  14.243 -0.3780 -0.1745 -2.5224
  101CHL1   C2713731   3.973   4.408  14.292  0.4067 -0.1238 -0.1808
  101CHL1  H27A13732   4.041   4.323  14.271 -0.0040 -0.4896 -0.0318
  101CHL1  H27B13733   3.967   4.484  14.211 -0.3538 -0.1430 -0.1477
  101CHL1  H27C13734   4.011   4.467  14.378 -1.0030  0.8888 -0.2114
  102CHL1    C313735   1.430   4.584  15.321 -0.6935  0.4211 -0.0302
  102CHL1    H313736   1.370   4.651  15.255 -1.5342 -1.1214 -0.8859
  102CHL1    O313737   1.362   4.564  15.440 -0.4222 -0.4455  0.1408
  102CHL1   H3'13738   1.416   4.496  15.482 -0.6306  0.5102  2.0648
  102CHL1    C413739   1.437   4.449  15.239 -0.4875 -0.5090  0.2593
  102CHL1   H4A13740   1.507   4.379  15.290 -1.3934 -1.6125  0.0362
  102CHL1   H4B13741   1.332   4.412  15.247 -1.0892  1.2060  1.0258
  102CHL1    C513742   1.493   4.484  15.104 -0.4415 -0.7462  0.4895
  102CHL1    C613743   1.423   4.459  14.991 -0.1640  0.4091 -0.1416
  102CHL1    H613744   1.327   4.406  14.994  0.8888 -1.8194 -2.0404
  102CHL1    C713745   1.486   4.475  14.858 -0.2949 -0.5903 -0.4925
  102CHL1   H7A13746   1.470   4.388  14.790 -2.6886 -0.3516 -0.3054
  102CHL1   H7B13747   1.443   4.565  14.809 -0.5216  1.1176  2.6066
  102CHL1    C813748   1.639   4.496  14.869  0.6109 -0.4841 -0.2543
  102CHL1    H813749   1.687   4.400  14.896  1.2372 -0.0029  0.3906
  102CHL1   C1413750   1.696   4.540  14.742 -0.1835  0.2753  0.0647
  102CHL1   H1413751   1.639   4.631  14.712  1.4658  0.9232 -1.3085
  102CHL1   C1513752   1.673   4.451  14.620 -0.0750  0.1827  0.2496
  102CHL1  H15A13753   1.696   4.347  14.651  0.7170 -0.4827 -2.3153
  102CHL1  H15B13754   1.567   4.456  14.587  0.5836 -0.0124 -2.0356
  102CHL1   C1613755   1.780   4.488  14.517  0.3377  0.5015  0.6549
  102CHL1  H16A13756   1.832   4.392  14.496  1.3972  1.0993  0.4377
  102CHL1  H16B13757   1.730   4.522  14.424 -1.0393 -1.6370  0.5525
  102CHL1   C1713758   1.869   4.594  14.585  0.0131  0.2043 -0.2368
  102CHL1   H1713759   1.810   4.686  14.569 -1.4171 -0.4001  1.3056
  102CHL1   C1313760   1.843   4.578  14.738  0.5624  0.2528  0.4505
  102CHL1   C1813761   1.926   4.449  14.775 -0.1697 -0.1930  0.4230
  102CHL1  H18A13762   2.032   4.481  14.783 -0.3227  0.2238  0.8446
  102CHL1  H18B13763   1.906   4.403  14.875  2.0508  1.4196  1.6959
  102CHL1  H18C13764   1.909   4.366  14.704 -0.1946 -1.0946  1.4490
  102CHL1   C1213765   1.865   4.698  14.827 -0.3386 -0.2632  0.7410
  102CHL1  H12A13766   1.970   4.732  14.825 -0.8179  1.2425 -0.4989
  102CHL1  H12B13767   1.804   4.785  14.796  0.9589  0.2864 -0.3349
  102CHL1   C1113768   1.820   4.655  14.966 -0.3980 -0.2790  0.2308
  102CHL1  H11A13769   1.891   4.579  15.006  0.1633  0.7854  1.3372
  102CHL1  H11B13770   1.837   4.746  15.028  1.2933 -2.6113  3.4571
  102CHL1    C913771   1.679   4.600  14.976 -0.0711 -0.9479  0.0135
  102CHL1    H913772   1.614   4.687  14.952  3.4579  1.7147 -0.7255
  102CHL1   C1013773   1.637   4.551  15.114  0.2092  0.7407 -0.1376
  102CHL1   C1913774   1.745   4.443  15.164 -0.4288  0.3906 -0.3078
  102CHL1  H19A13775   1.766   4.362  15.091  0.8788 -2.4472  2.9549
  102CHL1  H19B13776   1.839   4.495  15.194 -0.4900  0.5588 -0.4074
  102CHL1  H19C13777   1.703   4.388  15.251  0.3721  0.5576  0.1938
  102CHL1    C113778   1.646   4.667  15.217  0.2297  0.7243  0.1622
  102CHL1   H1A13779   1.750   4.698  15.242  0.1525 -0.7970  2.7022
  102CHL1   H1B13780   1.590   4.757  15.182 -1.2023  0.0224  0.5713
  102CHL1    C213781   1.573   4.628  15.350 -0.0393  0.6763  0.0179
  102CHL1   H2A13782   1.562   4.725  15.403  0.8707  2.2022 -2.3984
  102CHL1   H2B13783   1.636   4.550  15.399 -1.1891 -0.3986 -0.1697
  102CHL1   C2013784   2.005   4.607  14.523 -0.1990  0.3494 -0.8247
  102CHL1   H2013785   2.074   4.525  14.552 -1.1828  0.0543  0.8083
  102CHL1   C2113786   2.081   4.737  14.563  0.5789  0.3111  0.3569
  102CHL1  H21A13787   2.097   4.758  14.671  0.8169  0.5979  0.2693
  102CHL1  H21B13788   2.040   4.822  14.504  1.3772 -0.5294 -1.4932
  102CHL1  H21C13789   2.184   4.736  14.520 -0.2006 -1.3642 -1.6244
  102CHL1   C2213790   2.004   4.597  14.374 -0.9679  0.3260  0.1927
  102CHL1  H22A13791   1.918   4.642  14.321 -0.6939  0.4054 -0.1917
  102CHL1  H22B13792   2.087   4.661  14.337 -0.3700 -0.5525 -0.0187
  102CHL1   C2313793   2.048   4.452  14.322  0.4747 -0.3641  0.3952
  102CHL1  H23A13794   2.149   4.426  14.359  1.9060 -1.5589 -3.7733
  102CHL1  H23B13795   1.985   4.365  14.353  0.4814 -0.3116  0.5584
  102CHL1   C2413796   2.048   4.446  14.167  0.2558 -0.5574  0.1114
  102CHL1  H24A13797   1.939   4.442  14.144 -0.2476  1.7473  1.7451
  102CHL1  H24B13798   2.091   4.540  14.127 -0.8764 -0.0130  0.1072
  102CHL1   C2513799   2.113   4.322  14.103 -0.1471  0.4100  0.6816
  102CHL1   H2513800   2.063   4.232  14.145  1.3113 -2.9366 -3.9503
  102CHL1   C2613801   2.094   4.321  13.952  0.2440 -0.4742  0.3483
  102CHL1  H26A13802   2.111   4.221  13.907 -3.6825 -0.8063 -0.7998
  102CHL1  H26B13803   1.993   4.346  13.913  1.3622  0.1744 -2.3396
  102CHL1  H26C13804   2.159   4.393  13.898 -0.3199 -0.4720 -0.3320
  102CHL1   C2713805   2.265   4.319  14.129  0.3468 -0.0957  0.3752
  102CHL1  H27A13806   2.279   4.317  14.239  0.3072 -0.7682  0.3758
  102CHL1  H27B13807   2.306   4.225  14.086  1.6626  0.5411  0.2034
  102CHL1  H27C13808   2.306   4.406  14.074 -0.3206 -0.0327 -0.0310
  103CHL1    C313809   1.412   3.411  15.800 -0.2158 -0.0786 -0.4285
  103CHL1    H313810   1.497   3.481  15.783  0.0485 -0.1375  0.5433
  103CHL1    O313811   1.399   3.384  15.941  0.3985  0.0511 -0.0194
  103CHL1   H3'13812   1.347   3.455  15.978 -0.3938  0.3419 -1.6317
  103CHL1    C413813   1.288   3.477  15.739 -0.4518 -0.7975 -0.4617
  103CHL1   H4A13814   1.203   3.420  15.782  1.2326 -1.6498  1.9780
  103CHL1   H4B13815   1.265   3.573  15.790 -3.0373 -1.4000 -0.3563
  103CHL1    C513816   1.294   3.491  15.589 -0.0121 -0.8354  0.0103
  103CHL1    C613817   1.273   3.610  15.534 -0.2361 -0.2879  0.8095
  103CHL1    H613818   1.270   3.700  15.598  1.3661  0.6038 -0.2882
  103CHL1    C713819   1.280   3.631  15.379 -0.5799 -1.2318  0.3968
  103CHL1   H7A13820   1.199   3.700  15.348 -0.0836 -0.9713 -0.3269
  103CHL1   H7B13821   1.375   3.680  15.351 -0.4006 -2.1986 -0.8175
  103CHL1    C813822   1.264   3.502  15.299  0.0418  0.6522 -0.4878
  103CHL1    H813823   1.156   3.475  15.309  0.1059  0.4958 -0.2301
  103CHL1   C1413824   1.304   3.530  15.152  0.5427 -0.9804 -0.2025
  103CHL1   H1413825   1.410   3.565  15.153 -0.2443  1.6599  1.1861
  103CHL1   C1513826   1.234   3.639  15.075 -0.0883 -0.3260 -0.2488
  103CHL1  H15A13827   1.128   3.628  15.104  0.0732 -0.7157  0.2062
  103CHL1  H15B13828   1.257   3.744  15.102  0.0064 -0.2816 -0.4997
  103CHL1   C1613829   1.252   3.604  14.924  0.2935 -0.4395 -0.6091
  103CHL1  H16A13830   1.150   3.609  14.880 -0.3127 -0.4756  0.7595
  103CHL1  H16B13831   1.321   3.679  14.879  2.2756 -0.7488  1.6883
  103CHL1   C1713832   1.313   3.471  14.927 -0.4126  0.7580  0.5930
  103CHL1   H1713833   1.421   3.495  14.930 -0.0551 -0.1866 -1.7984
  103CHL1   C1313834   1.285   3.404  15.062 -0.3660 -0.4764 -0.5754
  103CHL1   C1813835   1.140   3.351  15.065  0.1026 -0.2404 -0.1737
  103CHL1  H18A13836   1.132   3.258  15.004  0.0228  0.5812 -1.4579
  103CHL1  H18B13837   1.109   3.319  15.167  1.0474 -0.6524 -0.0111
  103CHL1  H18C13838   1.061   3.422  15.033 -1.4996 -1.7450  0.2800
  103CHL1   C1213839   1.393   3.304  15.116 -0.3235  0.2679  0.2261
  103CHL1  H12A13840   1.395   3.207  15.061 -1.8808  0.8285 -0.8911
  103CHL1  H12B13841   1.495   3.349  15.113 -0.4432  0.5862  0.8368
  103CHL1   C1113842   1.362   3.266  15.260 -0.0793  0.1674  0.0443
  103CHL1  H11A13843   1.263   3.216  15.266 -0.9202  1.3543 -2.5739
  103CHL1  H11B13844   1.437   3.191  15.294 -0.1334 -0.0036 -0.2082
  103CHL1    C913845   1.351   3.389  15.356  0.1172 -0.0396  0.2261
  103CHL1    H913846   1.453   3.433  15.356  0.5883 -1.0672 -1.0558
  103CHL1   C1013847   1.324   3.359  15.506 -0.2126  0.1255 -0.3101
  103CHL1   C1913848   1.197   3.269  15.515  0.3205 -0.0640 -0.4729
  103CHL1  H19A13849   1.120   3.321  15.455  0.4843 -0.5194 -1.0822
  103CHL1  H19B13850   1.212   3.170  15.469 -1.5503 -0.8788  0.5669
  103CHL1  H19C13851   1.165   3.261  15.621  3.1162  2.1064  0.6766
  103CHL1    C113852   1.449   3.294  15.572 -0.1002  0.0561 -0.2671
  103CHL1   H1A13853   1.481   3.195  15.532  0.2848  0.0350  0.0969
  103CHL1   H1B13854   1.535   3.360  15.549 -0.5385  0.9838  0.7128
  103CHL1    C213855   1.440   3.278  15.725 -0.9533  0.3617 -0.8034
  103CHL1   H2A13856   1.538   3.238  15.758 -1.1053 -1.2850 -2.1757
  103CHL1   H2B13857   1.369   3.197  15.753  1.5433 -1.4364  0.7809
  103CHL1   C2013858   1.298   3.405  14.786 -0.4221  0.3699  0.3607
  103CHL1   H2013859   1.189   3.389  14.771 -0.6689  0.8372  1.5088
  103CHL1   C2113860   1.366   3.260  14.792  0.1247 -0.2126 -0.2214
  103CHL1  H21A13861   1.453   3.245  14.858 -1.3196 -0.2214  1.7891
  103CHL1  H21B13862   1.367   3.224  14.687  0.4127  1.1693 -0.7125
  103CHL1  H21C13863   1.296   3.184  14.833 -0.4673 -0.5997 -1.8728
  103CHL1   C2213864   1.351   3.491  14.672 -0.4806 -0.2592 -0.3637
  103CHL1  H22A13865   1.280   3.576  14.663  0.0367  0.2845  0.6356
  103CHL1  H22B13866   1.452   3.527  14.698 -1.2280  1.7555 -0.0998
  103CHL1   C2313867   1.369   3.427  14.531 -0.7195  0.1812  0.1304
  103CHL1  H23A13868   1.452   3.353  14.522 -1.7030 -0.9323 -0.1040
  103CHL1  H23B13869   1.277   3.366  14.519 -1.1776  0.6409  1.1835
  103CHL1   C2413870   1.394   3.528  14.423  0.2274  0.0667  0.0771
  103CHL1  H24A13871   1.317   3.608  14.425 -0.5795 -0.6692 -0.6464
  103CHL1  H24B13872   1.494   3.576  14.436  0.4968 -0.5984  0.4906
  103CHL1   C2513873   1.390   3.483  14.278  0.6293  0.6525  0.0599
  103CHL1   H2513874   1.455   3.393  14.266  1.7442  1.3511  0.7282
  103CHL1   C2613875   1.248   3.442  14.234  0.4757 -0.6070  0.7807
  103CHL1  H26A13876   1.188   3.373  14.298 -1.2444 -2.3045 -2.3924
  103CHL1  H26B13877   1.188   3.534  14.218  1.5316  0.1623  1.1694
  103CHL1  H26C13878   1.263   3.397  14.133  1.7774  2.2918 -0.4263
  103CHL1   C2713879   1.454   3.587  14.188 -0.0301  0.2718 -0.2099
  103CHL1  H27A13880   1.447   3.550  14.084  0.9328 -1.9662  0.4634
  103CHL1  H27B13881   1.398   3.683  14.191  0.0196  0.3198 -0.7265
  103CHL1  H27C13882   1.558   3.604  14.221  0.0117 -0.4525  0.0422
  104CHL1    C313883   5.584   5.739  15.189 -0.2288  0.3355  0.2059
  104CHL1    H313884   5.689   5.759  15.158 -0.6996  1.5365 -0.7259
  104CHL1    O313885   5.588   5.634  15.289 -0.4845  0.2853 -0.1117
  104CHL1   H3'13886   5.501   5.596  15.278  0.0666 -0.2141 -4.3262
  104CHL1    C413887   5.532   5.870  15.254 -0.0758  0.1470  0.7621
  104CHL1   H4A13888   5.438   5.840  15.305  0.6588 -3.9919  0.0428
  104CHL1   H4B13889   5.609   5.891  15.331 -0.4616  1.1059  0.8919
  104CHL1    C513890   5.506   5.982  15.154  0.2758 -0.8474  0.6659
  104CHL1    C613891   5.560   6.104  15.171 -0.3844  0.3988  0.1733
  104CHL1    H613892   5.611   6.126  15.266  0.5719 -0.6038 -0.0841
  104CHL1    C713893   5.517   6.225  15.080 -0.6398  0.2288 -0.6954
  104CHL1   H7A13894   5.485   6.306  15.150  0.2453  0.8942 -1.0337
  104CHL1   H7B13895   5.608   6.257  15.025 -0.4017 -2.1845 -1.8023
  104CHL1    C813896   5.414   6.194  14.966 -0.3609 -0.3787  0.3530
  104CHL1    H813897   5.311   6.188  15.007 -1.1661  1.7437 -1.1469
  104CHL1   C1413898   5.431   6.298  14.856 -0.1690  0.2987 -0.1793
  104CHL1   H1413899   5.534   6.294  14.814  0.5058  1.2211  1.3380
  104CHL1   C1513900   5.424   6.446  14.897  0.2945 -0.2848 -0.1913
  104CHL1  H15A13901   5.329   6.470  14.949 -0.5925 -1.3502 -1.2657
  104CHL1  H15B13902   5.521   6.479  14.941  0.0223  0.0801  0.1437
  104CHL1   C1613903   5.386   6.525  14.765 -0.8767  0.0672 -0.2303
  104CHL1  H16A13904   5.292   6.579  14.790 -2.7937 -3.4234  0.7917
  104CHL1  H16B13905   5.469   6.593  14.734  0.0600 -0.6424  0.6675
  104CHL1   C1713906   5.361   6.418  14.652  0.2031 -1.1061 -0.4428
  104CHL1   H1713907   5.451   6.396  14.592  0.5477  0.7336 -0.6599
  104CHL1   C1313908   5.336   6.279  14.730 -0.5248  0.2297  0.0026
  104CHL1   C1813909   5.189   6.272  14.782 -0.6637 -0.6888  0.5749
  104CHL1  H18A13910   5.160   6.189  14.850 -2.0511 -0.4658  0.2894
  104CHL1  H18B13911   5.164   6.373  14.820  1.7958  1.4669 -2.9020
  104CHL1  H18C13912   5.121   6.256  14.696  0.5667 -1.0344 -0.3694
  104CHL1   C1213913   5.380   6.146  14.666 -0.2043 -0.3519  0.2808
  104CHL1  H12A13914   5.325   6.121  14.573  1.3670  0.5328 -0.9256
  104CHL1  H12B13915   5.484   6.167  14.634 -0.3965 -0.8617 -0.7225
  104CHL1   C1113916   5.373   6.019  14.763 -0.2451 -0.2386  0.3250
  104CHL1  H11A13917   5.264   6.001  14.770 -0.1374 -1.4004 -0.7033
  104CHL1  H11B13918   5.425   5.935  14.713 -0.6738  1.5840 -3.5489
  104CHL1    C913919   5.443   6.050  14.903 -0.2751  0.0461 -0.2330
  104CHL1    H913920   5.552   6.057  14.883 -0.2053  0.1166  0.1620
  104CHL1   C1013921   5.423   5.944  15.018 -0.3312  0.6510 -0.1432
  104CHL1   C1913922   5.277   5.920  15.040 -0.3780  0.7874  0.7263
  104CHL1  H19A13923   5.271   5.825  15.098  2.7782  0.4140  0.5700
  104CHL1  H19B13924   5.220   6.003  15.087 -1.8942  0.7008 -0.8419
  104CHL1  H19C13925   5.219   5.899  14.948 -0.0504 -1.4338  0.9763
  104CHL1    C113926   5.492   5.815  14.964  0.2627 -0.3870  0.2955
  104CHL1   H1A13927   5.426   5.782  14.881  0.3943  1.0560 -0.4196
  104CHL1   H1B13928   5.590   5.853  14.928 -0.0657 -0.9365 -1.2908
  104CHL1    C213929   5.507   5.697  15.061  0.0971  0.3988 -0.7949
  104CHL1   H2A13930   5.564   5.618  15.009 -2.8822 -2.5036  0.0290
  104CHL1   H2B13931   5.405   5.659  15.083  0.4170 -0.4105 -0.6853
  104CHL1   C2013932   5.263   6.466  14.545  0.1878  0.1594  0.0834
  104CHL1   H2013933   5.166   6.496  14.591  0.2626 -0.8046  0.8945
  104CHL1   C2113934   5.230   6.353  14.442  0.1569 -0.0624 -0.3387
  104CHL1  H21A13935   5.320   6.331  14.382 -0.7860  1.2734 -2.3547
  104CHL1  H21B13936   5.142   6.376  14.378 -3.6474 -2.3538  3.4539
  104CHL1  H21C13937   5.195   6.266  14.502  2.1663 -0.2287  0.6717
  104CHL1   C2213938   5.302   6.596  14.460  0.0171 -0.0340  1.0248
  104CHL1  H22A13939   5.229   6.611  14.378 -2.0738  1.1577  2.9675
  104CHL1  H22B13940   5.277   6.677  14.532  1.5892 -0.6997  2.3973
  104CHL1   C2313941   5.445   6.593  14.397 -0.0009 -0.0005 -0.4110
  104CHL1  H23A13942   5.516   6.585  14.483  0.2887  0.3649 -0.6135
  104CHL1  H23B13943   5.467   6.506  14.331  0.4807 -1.1493  1.2017
  104CHL1   C2413944   5.474   6.719  14.315  0.0611 -0.1721 -0.0477
  104CHL1  H24A13945   5.482   6.804  14.386  1.5524 -0.0555 -0.3268
  104CHL1  H24B13946   5.577   6.700  14.280  0.4020 -0.6330  1.1605
  104CHL1   C2513947   5.376   6.753  14.203 -0.1640 -0.2331  0.3622
  104CHL1   H2513948   5.279   6.781  14.248 -0.2281  0.2363 -0.0560
  104CHL1   C2613949   5.440   6.864  14.112  0.3557 -0.1438  0.4744
  104CHL1  H26A13950   5.457   6.955  14.174 -1.9846  0.4408  0.3310
  104CHL1  H26B13951   5.536   6.832  14.067 -1.1714  0.1182 -3.2773
  104CHL1  H26C13952   5.365   6.884  14.033 -0.1205 -0.1430  0.9169
  104CHL1   C2713953   5.361   6.628  14.119 -0.0070 -0.5613  0.3819
  104CHL1  H27A13954   5.300   6.554  14.175  0.8387 -1.1672  0.5204
  104CHL1  H27B13955   5.308   6.656  14.025  1.2553  0.0412 -0.1677
  104CHL1  H27C13956   5.455   6.576  14.092  0.2095 -0.6854  1.3478
  105CHL1    C313957   4.522   2.883  15.571 -0.0945 -0.3484 -0.0603
  105CHL1    H313958   4.496   2.783  15.531  0.0893 -0.7850  0.8780
  105CHL1    O313959   4.595   2.883  15.690 -0.4094  0.9873  0.3570
  105CHL1   H3'13960   4.598   2.975  15.719 -0.0569  0.6272  1.5290
  105CHL1    C413961   4.617   2.943  15.464  0.5279 -0.5192  0.4569
  105CHL1   H4A13962   4.653   3.045  15.487  0.7058 -0.6022  0.5516
  105CHL1   H4B13963   4.705   2.875  15.455 -1.3256 -3.1641  1.0255
  105CHL1    C513964   4.548   2.949  15.331 -0.0114 -0.6323 -0.4209
  105CHL1    C613965   4.599   2.876  15.231  0.1493 -0.7396 -0.3356
  105CHL1    H613966   4.696   2.826  15.244  0.4156 -0.5703 -1.5475
  105CHL1    C713967   4.536   2.872  15.096 -0.2853  0.5772  0.0509
  105CHL1   H7A13968   4.618   2.861  15.022 -0.0107 -1.1744  0.5832
  105CHL1   H7B13969   4.483   2.775  15.088  1.3313 -0.6112  2.4059
  105CHL1    C813970   4.438   2.991  15.069  0.2070  0.7610 -0.9769
  105CHL1    H813971   4.489   3.089  15.070 -1.4150  1.6639 -1.7195
  105CHL1   C1413972   4.365   2.970  14.940  0.3291 -0.0329 -0.6309
  105CHL1   H1413973   4.315   2.872  14.949 -0.7857  0.3630 -2.1505
  105CHL1   C1513974   4.448   2.967  14.813  0.2908 -0.1482  0.0372
  105CHL1  H15A13975   4.514   3.055  14.802 -0.1996 -0.0158 -2.4895
  105CHL1  H15B13976   4.501   2.870  14.803  1.7629  0.3153  2.4927
  105CHL1   C1613977   4.349   2.993  14.700  0.1938 -0.6196 -0.5539
  105CHL1  H16A13978   4.383   3.077  14.636 -1.1269  1.7590  1.6623
  105CHL1  H16B13979   4.318   2.901  14.647  0.2664 -1.3040  0.5634
  105CHL1   C1713980   4.219   3.039  14.771  0.6738  0.7748  0.3461
  105CHL1   H1713981   4.154   2.952  14.793  0.1160  1.5457  1.8768
  105CHL1   C1313982   4.262   3.078  14.917  0.6926 -0.0801  0.7594
  105CHL1   C1813983   4.311   3.221  14.917 -0.8100 -0.1354 -0.2528
  105CHL1  H18A13984   4.367   3.238  14.823 -0.3406  0.7385  0.1795
  105CHL1  H18B13985   4.231   3.297  14.929 -0.1668  0.9076 -2.1669
  105CHL1  H18C13986   4.381   3.231  15.002 -0.7648 -2.1860  0.0240
  105CHL1   C1213987   4.151   3.051  15.018  0.0868 -0.3826 -0.6232
  105CHL1  H12A13988   4.065   3.120  15.003 -0.0841 -0.1405  1.2518
  105CHL1  H12B13989   4.126   2.943  15.008  1.4206 -0.9407  1.5379
  105CHL1   C1113990   4.208   3.076  15.156 -1.0655 -0.8731  0.4621
  105CHL1  H11A13991   4.227   3.183  15.181  0.0222 -1.1014  0.6415
  105CHL1  H11B13992   4.136   3.046  15.236 -1.5541 -2.3754 -0.5034
  105CHL1    C913993   4.339   3.000  15.185  1.0794  0.4849 -0.1534
  105CHL1    H913994   4.303   2.895  15.189 -1.7366  1.2733 -1.5948
  105CHL1   C1013995   4.410   3.030  15.324  1.0701  0.5452  0.8948
  105CHL1   C1913996   4.446   3.186  15.329 -0.8711  0.2372  0.2431
  105CHL1  H19A13997   4.352   3.246  15.331 -0.7524  0.4237  1.5374
  105CHL1  H19B13998   4.506   3.220  15.417 -1.4212  2.2952 -0.1062
  105CHL1  H19C13999   4.510   3.211  15.243 -1.4224 -1.0554 -0.5736
  105CHL1    C114000   4.318   2.990  15.442  0.1385  0.0129  0.1311
  105CHL1   H1A14001   4.228   3.055  15.441  0.0400 -0.1095 -1.4718
  105CHL1   H1B14002   4.283   2.887  15.422  0.1570  0.4231 -2.3382
  105CHL1    C214003   4.386   2.973  15.580  0.1093 -0.3151 -0.3094
  105CHL1   H2A14004   4.312   2.921  15.644  0.0153  0.0187 -0.1457
  105CHL1   H2B14005   4.411   3.066  15.635 -0.0272 -0.5818  0.2227
  105CHL1   C2014006   4.133   3.137  14.687  0.9479 -0.1831 -0.0199
  105CHL1   H2014007   4.192   3.227  14.661 -0.1541  0.4954 -0.2691
  105CHL1   C2114008   4.012   3.193  14.770 -0.1377  0.3855 -1.0990
  105CHL1  H21A14009   4.055   3.262  14.845  0.1947 -1.4955  0.5255
  105CHL1  H21B14010   3.957   3.112  14.824  1.4042 -0.1885 -0.3523
  105CHL1  H21C14011   3.947   3.257  14.706  0.3786  1.8502 -0.2060
  105CHL1   C2214012   4.082   3.069  14.553  0.1504 -0.1697  0.3273
  105CHL1  H22A14013   4.161   3.005  14.508  0.1087  1.0891 -1.6566
  105CHL1  H22B14014   4.003   2.993  14.571  0.6815 -0.6325  0.7390
  105CHL1   C2314015   4.048   3.165  14.446  0.2646 -0.0354  0.2842
  105CHL1  H23A14016   3.958   3.223  14.476 -1.8059 -1.6405 -2.4100
  105CHL1  H23B14017   4.133   3.234  14.425 -0.6283  0.5924 -1.5379
  105CHL1   C2414018   4.007   3.105  14.310 -0.3479  0.6219 -0.7200
  105CHL1  H24A14019   4.065   3.015  14.281 -2.7493 -1.4212  0.4148
  105CHL1  H24B14020   3.903   3.064  14.309  0.8652 -2.8614  0.1385
  105CHL1   C2514021   4.027   3.208  14.191  0.4182 -0.3294 -0.5614
  105CHL1   H2514022   4.138   3.217  14.189  0.4563  0.9577  2.2318
  105CHL1   C2614023   3.981   3.142  14.058 -0.2104 -0.5392  0.6584
  105CHL1  H26A14024   4.009   3.210  13.974 -2.7666 -0.0090  0.1351
  105CHL1  H26B14025   4.027   3.043  14.039  1.7476  0.3654  0.4553
  105CHL1  H26C14026   3.870   3.133  14.049 -0.0447 -0.9555 -1.7333
  105CHL1   C2714027   3.969   3.350  14.212  0.6318  0.4887 -0.1826
  105CHL1  H27A14028   4.016   3.400  14.299  1.6270 -0.5015 -0.1387
  105CHL1  H27B14029   3.990   3.404  14.117 -1.4197  2.1512  0.2038
  105CHL1  H27C14030   3.858   3.350  14.224  0.6733 -0.2050  0.2501
  106CHL1    C314031   0.031   4.113  15.386  0.0804  0.1848  0.2957
  106CHL1    H314032   0.047   4.217  15.349  0.3266  0.8676  2.2031
  106CHL1    O314033   0.076   4.095  15.520 -0.5040  0.1878  0.0687
  106CHL1   H3'14034   0.011   4.034  15.557 -0.6040  0.2459 -0.0089
  106CHL1    C414035  -0.118   4.073  15.369 -0.7693  0.3060 -0.1771
  106CHL1   H4A14036  -0.141   3.982  15.429  0.0831  0.7374  0.8281
  106CHL1   H4B14037  -0.173   4.150  15.426 -1.2107  0.0204 -0.2162
  106CHL1    C514038  -0.160   4.066  15.222  0.1858 -0.7016  0.2608
  106CHL1    C614039  -0.274   4.128  15.179 -0.7692 -0.4527 -0.0392
  106CHL1    H614040  -0.345   4.175  15.249 -1.8667 -0.2550 -1.2616
  106CHL1    C714041  -0.337   4.115  15.041 -0.1614  0.3502 -0.0174
  106CHL1   H7A14042  -0.443   4.084  15.054 -0.5543  1.8400  0.5367
  106CHL1   H7B14043  -0.340   4.202  14.973  0.1368 -0.0284 -0.5214
  106CHL1    C814044  -0.262   4.003  14.958 -0.4412 -0.1776  0.1290
  106CHL1    H814045  -0.300   3.902  14.985  0.8252 -0.4917  0.8149
  106CHL1   C1414046  -0.278   4.023  14.811  0.6125 -0.1014  0.5326
  106CHL1   H1414047  -0.243   4.128  14.798 -1.1205  0.3338 -0.9934
  106CHL1   C1514048  -0.415   4.042  14.753  0.1216  0.6507 -0.2046
  106CHL1  H15A14049  -0.481   3.957  14.782  1.8870 -0.5523  0.4212
  106CHL1  H15B14050  -0.464   4.138  14.780 -0.1547 -0.1835  2.5312
  106CHL1   C1614051  -0.398   4.048  14.600 -0.5180 -0.2118  0.2826
  106CHL1  H16A14052  -0.472   3.984  14.547  1.5179 -1.5950 -1.0681
  106CHL1  H16B14053  -0.392   4.146  14.549  1.1924  0.1768  1.1652
  106CHL1   C1714054  -0.250   3.992  14.574 -0.1610 -0.1093  0.1593
  106CHL1   H1714055  -0.184   4.080  14.557  0.0150 -0.5299 -1.5462
  106CHL1   C1314056  -0.215   3.932  14.712 -0.5489  1.0201  0.0730
  106CHL1   C1814057  -0.273   3.791  14.735  0.6036  0.3335 -0.0308
  106CHL1  H18A14058  -0.377   3.781  14.697 -0.0652 -2.4413  2.1613
  106CHL1  H18B14059  -0.210   3.727  14.669 -0.4449  1.0452 -1.7936
  106CHL1  H18C14060  -0.266   3.749  14.838  1.9807 -0.4536 -0.4237
  106CHL1   C1214061  -0.061   3.930  14.743 -0.6213  0.0323  0.7523
  106CHL1  H12A14062  -0.008   3.856  14.680 -0.1943  0.4410  0.6272
  106CHL1  H12B14063  -0.024   4.030  14.710  0.5130 -0.9293 -1.0727
  106CHL1   C1114064  -0.029   3.917  14.892 -0.9634 -0.5885 -0.2360
  106CHL1  H11A14065  -0.029   3.809  14.919 -0.2522 -0.5350 -0.0079
  106CHL1  H11B14066   0.076   3.951  14.882 -0.8992 -1.3452 -2.7973
  106CHL1    C914067  -0.110   4.008  14.982  0.0204 -0.1351 -0.4213
  106CHL1    H914068  -0.083   4.114  14.960 -1.7313 -0.2101 -3.4060
  106CHL1   C1014069  -0.070   3.986  15.128  0.0303 -0.2464 -0.3222
  106CHL1   C1914070  -0.095   3.841  15.167  0.5726  0.5652 -0.6696
  106CHL1  H19A14071  -0.086   3.810  15.273  2.8404  0.0276 -0.9633
  106CHL1  H19B14072  -0.195   3.806  15.132 -0.1619  1.0716  0.8206
  106CHL1  H19C14073  -0.014   3.774  15.131 -0.1954  0.7991 -3.0218
  106CHL1    C114074   0.072   4.017  15.150  0.5842  0.5375  0.4421
  106CHL1   H1A14075   0.135   3.943  15.097 -0.1622 -0.8821  1.4644
  106CHL1   H1B14076   0.098   4.114  15.103  1.5809 -0.9840 -2.3837
  106CHL1    C214077   0.116   4.017  15.300  0.0792  0.0722 -0.4449
  106CHL1   H2A14078   0.222   4.052  15.302 -0.3556  1.4100  1.4895
  106CHL1   H2B14079   0.109   3.916  15.346  0.5999  0.2525  0.0400
  106CHL1   C2014080  -0.246   3.893  14.449  0.4878 -0.7433  0.1783
  106CHL1   H2014081  -0.315   3.810  14.474  0.2490  0.0480  2.3418
  106CHL1   C2114082  -0.109   3.822  14.428 -0.2160 -1.0223  0.1001
  106CHL1  H21A14083  -0.106   3.760  14.336  0.3500 -1.7640  0.6113
  106CHL1  H21B14084  -0.074   3.752  14.507  2.4617 -0.6084 -0.6081
  106CHL1  H21C14085  -0.033   3.903  14.427 -1.8627  0.5925  0.6309
  106CHL1   C2214086  -0.291   3.972  14.320 -0.3791  0.3048  0.0523
  106CHL1  H22A14087  -0.384   4.028  14.346 -0.8756 -1.4747  2.4261
  106CHL1  H22B14088  -0.217   4.051  14.295  0.6736 -1.0952 -1.3891
  106CHL1   C2314089  -0.323   3.883  14.198  0.6813  0.2719 -0.3339
  106CHL1  H23A14090  -0.230   3.825  14.182  1.8180  1.3543  1.8685
  106CHL1  H23B14091  -0.412   3.821  14.224 -0.8700  2.8427  0.8548
  106CHL1   C2414092  -0.351   3.967  14.072 -0.0106  0.0106 -1.0194
  106CHL1  H24A14093  -0.418   4.056  14.071  1.1089  0.8948 -2.8898
  106CHL1  H24B14094  -0.254   4.017  14.051  0.4662 -0.1683  0.6738
  106CHL1   C2514095  -0.397   3.884  13.954  0.1640  0.0570  0.1071
  106CHL1   H2514096  -0.341   3.788  13.953 -0.9335 -0.6359  1.3241
  106CHL1   C2614097  -0.539   3.840  13.961  0.1678  0.2303 -0.0336
  106CHL1  H26A14098  -0.614   3.922  13.962 -1.8287 -1.4434  2.8342
  106CHL1  H26B14099  -0.554   3.773  13.874  0.8626  0.3415 -0.2439
  106CHL1  H26C14100  -0.561   3.778  14.051  0.9436 -0.7711 -0.5011
  106CHL1   C2714101  -0.361   3.952  13.827  0.2793  0.2443 -0.4178
  106CHL1  H27A14102  -0.252   3.969  13.822  0.2806  0.4808  0.3467
  106CHL1  H27B14103  -0.375   3.900  13.730  0.2536  1.5508 -1.1330
  106CHL1  H27C14104  -0.418   4.047  13.816  0.5323  0.3431 -0.9163
  107CHL1    C314105   2.218   6.402  15.304 -0.3613 -0.3045 -0.2893
  107CHL1    H314106   2.225   6.291  15.307  0.0142 -0.2655  0.8975
  107CHL1    O314107   2.265   6.452  15.431  0.3734 -0.0372  0.0745
  107CHL1   H3'14108   2.292   6.544  15.424  0.8924 -0.0816  1.1990
  107CHL1    C414109   2.321   6.443  15.201 -0.2844  0.2124 -0.7971
  107CHL1   H4A14110   2.346   6.551  15.193  1.8084  0.1596  2.7333
  107CHL1   H4B14111   2.418   6.393  15.219  0.8948  1.1747 -3.8902
  107CHL1    C514112   2.270   6.405  15.069  0.2476  0.6726 -0.5292
  107CHL1    C614113   2.332   6.329  14.980 -0.7421  0.1212 -0.4035
  107CHL1    H614114   2.436   6.302  15.004 -2.0204 -3.0094  2.4647
  107CHL1    C714115   2.283   6.303  14.842 -0.4218  0.1472 -0.6403
  107CHL1   H7A14116   2.362   6.309  14.764  0.4242 -1.9763 -0.0304
  107CHL1   H7B14117   2.257   6.195  14.837 -0.0378  0.0487 -0.5242
  107CHL1    C814118   2.163   6.384  14.792  0.2019 -0.3834 -0.5934
  107CHL1    H814119   2.196   6.486  14.761 -2.6456 -0.1402 -3.3115
  107CHL1   C1414120   2.091   6.313  14.673 -0.4815 -0.2525  0.2244
  107CHL1   H1414121   2.051   6.221  14.721 -1.0487 -0.0878  0.0759
  107CHL1   C1514122   2.164   6.273  14.548 -0.6195  0.1297  0.5281
  107CHL1  H15A14123   2.213   6.368  14.519  0.7509 -0.7049  0.0198
  107CHL1  H15B14124   2.249   6.202  14.561 -1.2277 -0.4248  1.6560
  107CHL1   C1614125   2.058   6.235  14.442 -0.7186 -0.0379  0.5207
  107CHL1  H16A14126   2.084   6.292  14.350 -1.3175  0.2937  0.5493
  107CHL1  H16B14127   2.069   6.125  14.429  0.8492 -0.1184  2.1459
  107CHL1   C1714128   1.926   6.274  14.513  0.6350  0.0045 -0.6746
  107CHL1   H1714129   1.895   6.179  14.563  1.2099  0.3449  0.3683
  107CHL1   C1314130   1.958   6.373  14.629 -0.2844  0.3019 -0.2024
  107CHL1   C1814131   1.983   6.514  14.554  0.2629  0.7859  0.6502
  107CHL1  H18A14132   2.041   6.585  14.617 -0.1963  2.1220 -0.4151
  107CHL1  H18B14133   2.024   6.503  14.452  2.7549 -0.0279  1.6561
  107CHL1  H18C14134   1.887   6.569  14.547  0.5649  1.3261  0.7352
  107CHL1   C1214135   1.855   6.388  14.744 -0.6908  0.2143  0.6084
  107CHL1  H12A14136   1.772   6.456  14.713 -0.3710  0.3037 -0.0774
  107CHL1  H12B14137   1.811   6.293  14.780 -2.6330  0.3322 -1.3016
  107CHL1   C1114138   1.924   6.468  14.857 -0.5537  0.2690 -0.1394
  107CHL1  H11A14139   1.941   6.572  14.822  0.5974  0.3720  0.6929
  107CHL1  H11B14140   1.855   6.478  14.943 -1.9520 -2.0204 -0.9040
  107CHL1    C914141   2.060   6.406  14.904  0.3851  0.3740 -0.2453
  107CHL1    H914142   2.030   6.304  14.938 -0.9318  1.3375  1.6591
  107CHL1   C1014143   2.126   6.454  15.035  0.5595  0.1143  0.0310
  107CHL1   C1914144   2.128   6.608  15.024  0.2762 -0.3882  0.2811
  107CHL1  H19A14145   2.023   6.642  15.007 -0.2743 -2.4844 -0.9556
  107CHL1  H19B14146   2.169   6.667  15.109 -2.1306  1.7930  0.0447
  107CHL1  H19C14147   2.183   6.638  14.933 -1.3044 -0.8570 -0.8827
  107CHL1    C114148   2.025   6.419  15.148 -0.3893  0.8233  0.4245
  107CHL1   H1A14149   1.928   6.469  15.128 -0.4924  0.0343 -1.2181
  107CHL1   H1B14150   2.002   6.310  15.149  1.6609  0.3384 -0.4301
  107CHL1    C214151   2.085   6.456  15.285  0.3914 -0.2040 -0.3485
  107CHL1   H2A14152   2.019   6.409  15.361  0.8294 -1.0024 -0.4491
  107CHL1   H2B14153   2.087   6.567  15.295 -1.3164 -0.0754 -0.9621
  107CHL1   C2014154   1.810   6.311  14.409  0.4838 -0.0123 -0.5378
  107CHL1   H2014155   1.840   6.408  14.362 -1.2194  0.6472 -0.3134
  107CHL1   C2114156   1.674   6.330  14.476 -0.0157  0.4338 -0.2305
  107CHL1  H21A14157   1.669   6.431  14.523  0.7143 -1.3672  4.1910
  107CHL1  H21B14158   1.666   6.256  14.558  2.3040  1.3155  0.8751
  107CHL1  H21C14159   1.600   6.321  14.394  1.8829  2.7370 -2.3928
  107CHL1   C2214160   1.791   6.209  14.297  0.3531 -0.4235 -0.0220
  107CHL1  H22A14161   1.887   6.163  14.265  0.8916  0.6862 -0.0623
  107CHL1  H22B14162   1.732   6.119  14.325  1.2026 -1.3648 -1.1459
  107CHL1   C2314163   1.721   6.272  14.171 -0.2648 -0.2857  0.3965
  107CHL1  H23A14164   1.619   6.299  14.206 -0.8188 -0.7270 -0.8252
  107CHL1  H23B14165   1.778   6.364  14.142 -0.6608 -0.7451 -2.0405
  107CHL1   C2414166   1.713   6.161  14.061  0.0658  0.3256 -0.7988
  107CHL1  H24A14167   1.814   6.136  14.024  1.5149  1.5578  1.9657
  107CHL1  H24B14168   1.669   6.077  14.119  1.0801  1.3510  1.6099
  107CHL1   C2514169   1.618   6.193  13.942 -0.3875  0.7297 -0.5813
  107CHL1   H2514170   1.522   6.226  13.987 -0.9373  1.0388 -1.9093
  107CHL1   C2614171   1.660   6.299  13.846 -0.4618  0.6440 -0.3568
  107CHL1  H26A14172   1.767   6.292  13.818 -0.1154 -1.3074  1.2429
  107CHL1  H26B14173   1.592   6.304  13.757 -2.0779 -0.5885  0.7374
  107CHL1  H26C14174   1.656   6.394  13.903 -0.7127 -0.5079  1.6384
  107CHL1   C2714175   1.596   6.056  13.863  0.1620 -0.6679 -0.0657
  107CHL1  H27A14176   1.510   6.071  13.794 -0.3250  2.5326  1.0637
  107CHL1  H27B14177   1.689   6.018  13.815  0.5313 -0.8965  0.8127
  107CHL1  H27C14178   1.567   5.985  13.944 -0.3532  0.8102  1.0750
  108CHL1    C314179   4.044   2.473  15.610 -0.2469 -0.5246 -0.0634
  108CHL1    H314180   3.943   2.437  15.582  0.0544 -1.2812 -0.1935
  108CHL1    O314181   4.050   2.462  15.753 -0.3448 -0.2342 -0.6274
  108CHL1   H3'14182   4.143   2.476  15.776  0.1113  0.6451 -2.7225
  108CHL1    C414183   4.146   2.376  15.541 -0.1373 -0.1595  0.2597
  108CHL1   H4A14184   4.248   2.410  15.569 -0.0528  0.1433 -0.3846
  108CHL1   H4B14185   4.130   2.275  15.583 -2.6760 -0.1812 -0.6042
  108CHL1    C514186   4.129   2.379  15.391 -0.9084  0.4414  1.0704
  108CHL1    C614187   4.114   2.266  15.317  0.3908 -0.4804  0.3924
  108CHL1    H614188   4.103   2.165  15.360  0.1359 -1.5648 -2.0419
  108CHL1    C714189   4.108   2.255  15.165  0.1442 -0.4964  0.6660
  108CHL1   H7A14190   4.165   2.165  15.133  1.1717 -1.0065  3.5899
  108CHL1   H7B14191   4.003   2.239  15.132 -0.2464  2.1234  0.4343
  108CHL1    C814192   4.153   2.386  15.100  0.9069 -0.5926  0.0367
  108CHL1    H814193   4.263   2.385  15.091  0.8993 -2.1224 -0.1283
  108CHL1   C1414194   4.098   2.397  14.955  0.4822  0.1735 -0.1541
  108CHL1   H1414195   3.988   2.408  14.959  0.5746  1.2913 -0.3380
  108CHL1   C1514196   4.111   2.279  14.868 -0.1736 -0.1846  0.2414
  108CHL1  H15A14197   4.210   2.230  14.884  0.7938  1.8014  0.7304
  108CHL1  H15B14198   4.032   2.206  14.893  0.1231 -1.3509 -1.9862
  108CHL1   C1614199   4.102   2.326  14.719  0.3046  0.0162 -0.8274
  108CHL1  H16A14200   4.182   2.277  14.659 -0.3412 -4.4260  1.5318
  108CHL1  H16B14201   4.014   2.272  14.677  1.6151 -2.5845 -0.3842
  108CHL1   C1714202   4.087   2.484  14.729 -0.1076  0.2265 -0.2583
  108CHL1   H1714203   3.977   2.499  14.727 -0.3261 -1.0259  0.7909
  108CHL1   C1314204   4.141   2.516  14.873 -0.2842 -1.2240 -0.0748
  108CHL1   C1814205   4.293   2.533  14.868 -0.3241  0.7380  0.6203
  108CHL1  H18A14206   4.315   2.631  14.820 -0.9577  0.0729 -1.1288
  108CHL1  H18B14207   4.342   2.526  14.967 -0.7799 -1.8005  0.7412
  108CHL1  H18C14208   4.331   2.454  14.799 -1.8156  0.5583 -0.0520
  108CHL1   C1214209   4.082   2.643  14.947  0.1974 -0.3671  1.1548
  108CHL1  H12A14210   4.097   2.742  14.899  0.0136 -1.2465 -0.8051
  108CHL1  H12B14211   3.972   2.623  14.947 -0.3520  2.2440  0.4749
  108CHL1   C1114212   4.127   2.649  15.092  0.2502  0.1126 -0.0452
  108CHL1  H11A14213   4.227   2.698  15.086 -0.5720  1.9627  0.6088
  108CHL1  H11B14214   4.068   2.731  15.139  0.6269  0.4204 -0.0932
  108CHL1    C914215   4.107   2.512  15.167  0.8446  0.7547 -0.0469
  108CHL1    H914216   3.997   2.503  15.167  0.8294  0.7475  1.1022
  108CHL1   C1014217   4.138   2.515  15.323 -0.1341  0.0628  0.2062
  108CHL1   C1914218   4.289   2.563  15.336  0.4131 -0.4166 -0.7812
  108CHL1  H19A14219   4.302   2.662  15.289  0.4130  0.3652  0.7807
  108CHL1  H19B14220   4.335   2.572  15.437  3.8001 -1.7076 -2.0934
  108CHL1  H19C14221   4.363   2.496  15.288  1.3636 -0.9067  1.2344
  108CHL1    C114222   4.050   2.619  15.407  0.3661  0.7327  0.7315
  108CHL1   H1A14223   4.078   2.719  15.368  0.2388  0.5198  0.0812
  108CHL1   H1B14224   3.940   2.606  15.399  0.4524  1.0214 -1.6974
  108CHL1    C214225   4.073   2.612  15.560  0.3698 -0.0368 -0.1872
  108CHL1   H2A14226   4.002   2.685  15.605 -0.7911  0.7944 -3.1063
  108CHL1   H2B14227   4.180   2.636  15.573  0.3483  0.7717 -1.3795
  108CHL1   C2014228   4.139   2.565  14.604 -1.0476  0.2794 -0.5787
  108CHL1   H2014229   4.248   2.587  14.610 -1.1789  1.1222 -1.1433
  108CHL1   C2114230   4.076   2.702  14.603  0.6004  0.0400 -0.3375
  108CHL1  H21A14231   4.137   2.793  14.583 -1.2048  1.3023 -0.4636
  108CHL1  H21B14232   4.027   2.714  14.702  0.0089 -0.7428 -0.5244
  108CHL1  H21C14233   3.993   2.709  14.529  0.0337 -1.0255  0.1807
  108CHL1   C2214234   4.111   2.485  14.476 -0.7567  0.2703  0.8028
  108CHL1  H22A14235   4.180   2.398  14.473 -1.6271 -0.4309  0.5778
  108CHL1  H22B14236   4.008   2.443  14.482 -0.6160 -0.0230  1.2111
  108CHL1   C2314237   4.144   2.569  14.356  0.0494 -0.3889 -0.1574
  108CHL1  H23A14238   4.079   2.660  14.356  2.6381  1.6492  1.9064
  108CHL1  H23B14239   4.251   2.599  14.356 -0.5169  1.8410  0.7853
  108CHL1   C2414240   4.119   2.488  14.231 -0.0644 -0.2327  0.9393
  108CHL1  H24A14241   4.178   2.394  14.227 -0.0122 -0.1653 -2.4824
  108CHL1  H24B14242   4.009   2.473  14.220 -0.2976  2.0094 -0.5684
  108CHL1   C2514243   4.140   2.564  14.101  0.3064 -0.3021 -0.0972
  108CHL1   H2514244   4.106   2.666  14.128  0.1901 -1.5597  5.6990
  108CHL1   C2614245   4.287   2.583  14.065 -0.0050  0.4706 -0.1539
  108CHL1  H26A14246   4.338   2.630  14.152  0.7168  1.0796 -0.8917
  108CHL1  H26B14247   4.332   2.484  14.041 -0.0654 -0.5002  3.1284
  108CHL1  H26C14248   4.281   2.646  13.974 -1.5048 -0.0522 -0.4428
  108CHL1   C2714249   4.050   2.516  13.983 -0.0938 -0.0597  0.3358
  108CHL1  H27A14250   4.100   2.426  13.941  0.9245  1.5026 -2.0181
  108CHL1  H27B14251   3.954   2.477  14.021 -1.0320  1.9597  0.1719
  108CHL1  H27C14252   4.050   2.595  13.905  0.1299 -0.2339  0.1554
  109CHL1    C314253   1.411   6.008  15.310  0.0565 -0.2229  0.0963
  109CHL1    H314254   1.401   6.115  15.336  2.0320  0.4113 -1.5222
  109CHL1    O314255   1.435   5.939  15.429 -0.6911  0.1662  0.0288
  109CHL1   H3'14256   1.512   5.882  15.416 -0.7268 -0.5787  2.5864
  109CHL1    C414257   1.274   5.963  15.261  0.0534  0.3007  0.0808
  109CHL1   H4A14258   1.265   5.852  15.257  1.1448  0.1677  0.9181
  109CHL1   H4B14259   1.201   5.994  15.339  0.7851  0.6996  0.6147
  109CHL1    C514260   1.250   6.021  15.122 -0.2562 -0.5594  0.0392
  109CHL1    C614261   1.148   6.108  15.106 -1.1321  0.1374 -0.5568
  109CHL1    H614262   1.080   6.121  15.192 -2.2879 -0.5383 -1.3388
  109CHL1    C714263   1.108   6.170  14.971 -0.7119  0.6543 -0.7000
  109CHL1   H7A14264   1.000   6.154  14.952 -0.5821 -4.2059  1.2693
  109CHL1   H7B14265   1.142   6.274  14.951 -0.3495  0.2078 -2.6155
  109CHL1    C814266   1.173   6.091  14.856  0.3995 -0.4243  0.0361
  109CHL1    H814267   1.124   5.991  14.854 -1.2911  0.3353  0.9447
  109CHL1   C1414268   1.162   6.154  14.717  0.1333 -0.6008 -0.5460
  109CHL1   H1414269   1.221   6.248  14.724 -1.4670  0.3264  2.0610
  109CHL1   C1514270   1.023   6.195  14.682 -0.4314 -0.1681  0.3949
  109CHL1  H15A14271   0.952   6.114  14.710 -0.0640 -0.3321  0.8577
  109CHL1  H15B14272   1.014   6.290  14.738 -0.5766  0.0778 -0.0402
  109CHL1   C1614273   1.030   6.219  14.529  0.0796 -0.0694  0.1334
  109CHL1  H16A14274   0.946   6.159  14.489  0.4028 -0.3294 -0.1464
  109CHL1  H16B14275   1.000   6.325  14.511 -0.5755 -0.3746 -0.6165
  109CHL1   C1714276   1.166   6.182  14.476  0.3159 -0.8753 -0.4201
  109CHL1   H1714277   1.237   6.267  14.484  0.8773 -1.2830 -0.9587
  109CHL1   C1314278   1.212   6.083  14.593 -0.0455 -0.1718  0.0202
  109CHL1   C1814279   1.141   5.942  14.575 -0.3417 -0.4913 -0.5464
  109CHL1  H18A14280   1.036   5.961  14.545 -0.3512  2.2280  0.8567
  109CHL1  H18B14281   1.175   5.879  14.490  0.1601  0.0324 -0.7395
  109CHL1  H18C14282   1.152   5.888  14.671  0.6039  0.1429 -0.2824
  109CHL1   C1214283   1.365   6.071  14.611  0.8718  0.2383 -0.4067
  109CHL1  H12A14284   1.402   6.008  14.527 -0.3244 -0.5823 -0.3532
  109CHL1  H12B14285   1.408   6.171  14.591  2.5173 -0.5972 -1.2311
  109CHL1   C1114286   1.401   6.017  14.747  0.4058  0.3506 -0.0250
  109CHL1  H11A14287   1.375   5.909  14.741 -0.7694  0.5854  0.6146
  109CHL1  H11B14288   1.511   6.032  14.758  0.2138  0.9685  1.2940
  109CHL1    C914289   1.330   6.075  14.873  0.2014 -0.4304 -0.2918
  109CHL1    H914290   1.370   6.176  14.896 -1.2653 -0.4150  2.6406
  109CHL1   C1014291   1.355   5.995  15.006 -0.0609  0.0777 -0.2931
  109CHL1   C1914292   1.348   5.842  14.969 -0.3591  0.7492  0.8158
  109CHL1  H19A14293   1.433   5.813  14.904 -0.6668 -0.4683  0.9322
  109CHL1  H19B14294   1.350   5.785  15.064 -1.2193  0.2286  0.5333
  109CHL1  H19C14295   1.256   5.808  14.917  0.6796 -2.0019  0.6416
  109CHL1    C114296   1.491   6.037  15.070 -1.2955  0.0832  0.1030
  109CHL1   H1A14297   1.570   6.006  14.999 -0.1013  2.4704  0.2811
  109CHL1   H1B14298   1.492   6.148  15.082  4.6672  0.4563 -1.0462
  109CHL1    C214299   1.525   5.984  15.212  0.6878  0.1694  0.2426
  109CHL1   H2A14300   1.621   6.021  15.254  1.3262 -1.4734  0.3185
  109CHL1   H2B14301   1.531   5.874  15.195 -2.6520 -0.3254  1.4416
  109CHL1   C2014302   1.159   6.135  14.330 -0.0470 -0.2574  0.3522
  109CHL1   H2014303   1.100   6.041  14.320 -2.7160  1.2726  0.7931
  109CHL1   C2114304   1.302   6.115  14.272  0.3997  0.4954  0.2573
  109CHL1  H21A14305   1.341   6.029  14.329  0.3112 -0.7879 -1.5325
  109CHL1  H21B14306   1.362   6.209  14.275 -1.7693  1.9508  1.8248
  109CHL1  H21C14307   1.309   6.076  14.168 -1.3004 -0.4539  0.4629
  109CHL1   C2214308   1.086   6.245  14.243 -0.2338 -0.1273 -0.0290
  109CHL1  H22A14309   0.988   6.264  14.291 -0.2124  1.8636 -0.6886
  109CHL1  H22B14310   1.144   6.340  14.247 -0.6692  0.1523 -0.3298
  109CHL1   C2314311   1.053   6.206  14.098 -0.1332 -0.2648 -0.1506
  109CHL1  H23A14312   1.135   6.174  14.031 -0.9749  0.6333 -1.6547
  109CHL1  H23B14313   0.978   6.124  14.107 -2.1874  1.5542  0.0028
  109CHL1   C2414314   0.976   6.320  14.028 -0.5408 -0.0244  0.5179
  109CHL1  H24A14315   0.878   6.340  14.075 -0.4031 -1.1848  1.3477
  109CHL1  H24B14316   1.043   6.408  14.041 -1.1719  0.4210  0.8154
  109CHL1   C2514317   0.966   6.292  13.875 -0.2341  0.1943 -0.3917
  109CHL1   H2514318   1.069   6.264  13.843 -0.0717  0.0784  0.2110
  109CHL1   C2614319   0.877   6.177  13.839 -0.2000  0.1936 -0.0962
  109CHL1  H26A14320   0.781   6.202  13.890 -0.3209 -0.3226 -0.0710
  109CHL1  H26B14321   0.857   6.168  13.730 -0.3295  0.1269 -0.0676
  109CHL1  H26C14322   0.919   6.084  13.882 -0.0886 -1.0368 -2.7056
  109CHL1   C2714323   0.927   6.428  13.811 -0.0617 -0.5323  0.0813
  109CHL1  H27A14324   1.001   6.509  13.829 -0.0489 -0.5137 -0.0587
  109CHL1  H27B14325   0.919   6.409  13.702 -1.2375 -1.3365  0.2915
  109CHL1  H27C14326   0.825   6.456  13.846  0.4340  1.1630  0.2555
  110CHL1    C314327   0.354   5.282  14.910  0.4327  0.0504 -0.5612
  110CHL1    H314328   0.248   5.247  14.909  0.8192 -1.2031  0.1966
  110CHL1    O314329   0.391   5.264  15.045 -0.1605 -0.0599 -0.5106
  110CHL1   H3'14330   0.466   5.323  15.057  0.0024 -0.7488  2.9400
  110CHL1    C414331   0.443   5.204  14.813 -0.0629 -0.0635 -0.5465
  110CHL1   H4A14332   0.550   5.225  14.835  0.1918 -1.7709  0.0099
  110CHL1   H4B14333   0.434   5.095  14.834 -1.9730  0.2229  0.3822
  110CHL1    C514334   0.392   5.231  14.678  0.4577 -0.1399 -0.6139
  110CHL1    C614335   0.336   5.139  14.598  0.5528 -0.3989 -1.2663
  110CHL1    H614336   0.333   5.032  14.625  0.0621  0.4939  2.8336
  110CHL1    C714337   0.300   5.169  14.460  0.2140  0.0559  0.6231
  110CHL1   H7A14338   0.331   5.086  14.393 -2.1217 -0.3259 -0.0842
  110CHL1   H7B14339   0.189   5.171  14.454  0.2217  3.1258  0.0015
  110CHL1    C814340   0.347   5.304  14.401 -0.4499  0.4473  0.2343
  110CHL1    H814341   0.457   5.302  14.389 -0.3211  0.5080  1.2880
  110CHL1   C1414342   0.272   5.338  14.274 -0.0868  0.3261 -0.2516
  110CHL1   H1414343   0.168   5.345  14.314  0.2417 -1.6336  1.0717
  110CHL1   C1514344   0.252   5.231  14.164  0.1731  0.1021 -0.7283
  110CHL1  H15A14345   0.337   5.161  14.151 -1.1828 -2.1282  1.4575
  110CHL1  H15B14346   0.170   5.160  14.188  0.5158 -0.1522 -0.2922
  110CHL1   C1614347   0.235   5.305  14.036  0.1799  0.0032  0.2094
  110CHL1  H16A14348   0.323   5.281  13.973 -0.0202 -2.3090  0.7430
  110CHL1  H16B14349   0.154   5.275  13.966  2.1070 -2.1384 -1.2336
  110CHL1   C1714350   0.223   5.458  14.073 -0.7937 -0.1317  0.1992
  110CHL1   H1714351   0.117   5.480  14.095 -0.5149  1.2135  0.3092
  110CHL1   C1314352   0.303   5.473  14.207 -0.4678  0.0268 -0.3155
  110CHL1   C1814353   0.456   5.491  14.166 -0.0962 -0.0784 -0.4078
  110CHL1  H18A14354   0.473   5.597  14.139  0.8565  0.7187  2.9565
  110CHL1  H18B14355   0.532   5.472  14.245  1.4339 -2.7749 -2.3561
  110CHL1  H18C14356   0.484   5.430  14.077  0.8590  0.9266 -0.8058
  110CHL1   C1214357   0.277   5.581  14.314  0.3863  0.3753 -0.7633
  110CHL1  H12A14358   0.302   5.684  14.279  1.4473  1.0928  1.8214
  110CHL1  H12B14359   0.168   5.576  14.334  0.4050 -2.0484 -1.0034
  110CHL1   C1114360   0.345   5.553  14.447 -0.5291 -0.5356  0.4859
  110CHL1  H11A14361   0.452   5.572  14.428 -0.5024 -0.3485  0.8002
  110CHL1  H11B14362   0.311   5.624  14.526 -0.2813 -1.5610  1.5325
  110CHL1    C914363   0.323   5.410  14.506  0.9023  0.3860 -0.2877
  110CHL1    H914364   0.213   5.403  14.520  1.1328 -0.3012  1.3880
  110CHL1   C1014365   0.395   5.379  14.637 -0.7626 -0.6966  0.2336
  110CHL1   C1914366   0.541   5.435  14.631 -0.1054  0.3051 -0.0866
  110CHL1  H19A14367   0.609   5.393  14.708 -0.0264 -2.0914 -1.3689
  110CHL1  H19B14368   0.588   5.410  14.533  0.1743  4.1117 -1.1011
  110CHL1  H19C14369   0.529   5.546  14.632 -2.6373  0.1074 -1.7309
  110CHL1    C114370   0.314   5.457  14.747  0.4784  0.2690 -0.5373
  110CHL1   H1A14371   0.307   5.567  14.731 -1.4673  0.3616  0.5463
  110CHL1   H1B14372   0.211   5.419  14.731  0.5785  0.1882 -1.0019
  110CHL1    C214373   0.353   5.429  14.892 -0.4294 -0.7613  0.1346
  110CHL1   H2A14374   0.279   5.490  14.947 -0.4920  0.5769 -1.3850
  110CHL1   H2B14375   0.455   5.471  14.904 -0.3173 -0.7328 -0.8072
  110CHL1   C2014376   0.257   5.558  13.960  0.2667 -0.2393  0.0165
  110CHL1   H2014377   0.362   5.594  13.958 -0.4201  1.8813 -0.8176
  110CHL1   C2114378   0.171   5.682  13.982  0.5262 -0.2237 -0.0891
  110CHL1  H21A14379   0.199   5.769  13.919 -1.2674 -0.5538 -1.4022
  110CHL1  H21B14380   0.160   5.728  14.083  0.5700  0.4931 -0.3993
  110CHL1  H21C14381   0.069   5.645  13.961  1.4954 -3.2369  0.0281
  110CHL1   C2214382   0.223   5.497  13.818  0.4002 -0.2674 -0.4440
  110CHL1  H22A14383   0.296   5.415  13.807 -2.7918 -3.3909 -0.2185
  110CHL1  H22B14384   0.121   5.454  13.818  0.8331 -1.3247  0.3371
  110CHL1   C2314385   0.240   5.594  13.696 -0.9179 -0.6172 -0.2369
  110CHL1  H23A14386   0.179   5.685  13.713 -0.2528 -0.5086  1.9401
  110CHL1  H23B14387   0.346   5.626  13.684 -0.3478 -2.8071 -1.6214
  110CHL1   C2414388   0.212   5.509  13.568 -0.5422  0.4069  0.3586
  110CHL1  H24A14389   0.266   5.413  13.583 -0.2776  0.5772  0.4993
  110CHL1  H24B14390   0.106   5.477  13.578 -0.5180 -0.2350 -1.2112
  110CHL1   C2514391   0.238   5.575  13.430  0.0908 -0.7546  0.4743
  110CHL1   H2514392   0.347   5.594  13.428  0.7089 -3.6182  1.4591
  110CHL1   C2614393   0.209   5.478  13.314 -0.0564 -0.3601  0.0319
  110CHL1  H26A14394   0.099   5.476  13.301  0.0252  2.4269 -2.2514
  110CHL1  H26B14395   0.250   5.516  13.218  1.0540 -1.4186  0.0625
  110CHL1  H26C14396   0.255   5.382  13.347 -0.5365 -0.8598 -0.7140
  110CHL1   C2714397   0.173   5.717  13.414 -0.3287  0.3689  0.1619
  110CHL1  H27A14398   0.063   5.715  13.399 -0.3149  3.2952 -1.0261
  110CHL1  H27B14399   0.197   5.772  13.507  2.3100 -1.0768  0.4132
  110CHL1  H27C14400   0.220   5.769  13.328  0.9621 -0.3358  0.4266
  111CHL1    C314401   1.206   0.755  15.689  0.4450 -0.0811  0.1361
  111CHL1    H314402   1.274   0.842  15.705  0.1353 -0.1208  1.9735
  111CHL1    O314403   1.175   0.721  15.823 -0.1855  0.0527  0.1398
  111CHL1   H3'14404   1.224   0.784  15.876  0.6422  1.2028 -1.8423
  111CHL1    C414405   1.073   0.800  15.619 -0.1546  0.4548 -0.9584
  111CHL1   H4A14406   1.001   0.716  15.625 -0.9888  1.2523  1.6114
  111CHL1   H4B14407   1.027   0.885  15.673 -0.2015  0.2278 -0.6373
  111CHL1    C514408   1.093   0.832  15.470 -0.3047  1.1320 -0.8721
  111CHL1    C614409   1.055   0.951  15.421 -0.6319  0.4480  0.4083
  111CHL1    H614410   1.007   1.027  15.484  2.6896  1.0914  2.4035
  111CHL1    C714411   1.046   0.977  15.277 -0.0229  0.9917  0.8519
  111CHL1   H7A14412   0.948   1.028  15.263  0.5525  2.1071  0.8411
  111CHL1   H7B14413   1.118   1.052  15.238 -0.1939  1.2501  1.0293
  111CHL1    C814414   1.063   0.846  15.185 -0.1368  0.2016 -0.3270
  111CHL1    H814415   0.965   0.793  15.183  0.7927 -1.5939 -1.6555
  111CHL1   C1414416   1.096   0.882  15.042  0.3989  0.4960  0.0937
  111CHL1   H1414417   1.191   0.940  15.036  1.1186 -0.0757  3.8568
  111CHL1   C1514418   0.990   0.973  14.966  0.9102  0.0329 -0.8932
  111CHL1  H15A14419   0.889   0.943  15.002  0.7333 -0.3514 -1.6811
  111CHL1  H15B14420   0.998   1.081  14.991 -0.8445  0.1009 -0.5033
  111CHL1   C1614421   1.022   0.944  14.817  0.1975 -0.2294 -0.0578
  111CHL1  H16A14422   0.925   0.927  14.765  1.5145 -0.7323 -2.5024
  111CHL1  H16B14423   1.074   1.037  14.786  0.1418  1.0187  3.1843
  111CHL1   C1714424   1.120   0.826  14.814  0.7739 -0.6655  0.1172
  111CHL1   H1714425   1.225   0.864  14.821  1.3744 -1.4969 -2.7818
  111CHL1   C1314426   1.108   0.758  14.954 -0.3837  0.0159  0.6200
  111CHL1   C1814427   0.976   0.675  14.955 -0.0056 -0.0147 -0.5560
  111CHL1  H18A14428   0.982   0.580  14.897 -0.6540 -0.9431  0.8278
  111CHL1  H18B14429   0.941   0.652  15.058 -0.5828 -1.4258 -1.0369
  111CHL1  H18C14430   0.898   0.745  14.919  0.1782  0.8097  0.6145
  111CHL1   C1214431   1.226   0.675  15.003 -0.0620  0.1181  1.2632
  111CHL1  H12A14432   1.235   0.577  14.951  0.0962  1.3523 -1.2040
  111CHL1  H12B14433   1.318   0.734  14.981 -1.1774  1.4804  0.0653
  111CHL1   C1114434   1.220   0.641  15.149  0.1653 -0.0692 -0.2066
  111CHL1  H11A14435   1.149   0.557  15.158 -0.4349  0.4398 -0.0851
  111CHL1  H11B14436   1.315   0.600  15.189 -2.7209 -3.3319  4.3014
  111CHL1    C914437   1.169   0.756  15.240 -0.0410 -0.0966  0.2829
  111CHL1    H914438   1.252   0.830  15.247 -0.6437  0.6958 -0.6727
  111CHL1   C1014439   1.154   0.714  15.384 -0.1257  0.2472  0.4418
  111CHL1   C1914440   1.059   0.586  15.398  0.0805  0.0487  0.0157
  111CHL1  H19A14441   0.966   0.597  15.338  0.3257 -0.3911 -0.4544
  111CHL1  H19B14442   1.105   0.495  15.354 -2.0530 -0.6120 -1.0373
  111CHL1  H19C14443   1.030   0.568  15.504  2.9492 -1.2498  0.6785
  111CHL1    C114444   1.299   0.674  15.452  0.5744  0.0852  0.4211
  111CHL1   H1A14445   1.355   0.599  15.393 -0.8598  0.0677 -1.0139
  111CHL1   H1B14446   1.361   0.766  15.445  0.3678  0.1569 -0.8122
  111CHL1    C214447   1.275   0.641  15.610  0.3216 -0.3412  0.5068
  111CHL1   H2A14448   1.370   0.605  15.656 -0.0831 -0.9805  0.8530
  111CHL1   H2B14449   1.217   0.547  15.618 -0.9205  0.3448 -0.1859
  111CHL1   C2014450   1.111   0.751  14.681 -0.3889  0.5314  0.0451
  111CHL1   H2014451   1.026   0.680  14.688 -0.2319  0.3063 -0.3053
  111CHL1   C2114452   1.239   0.657  14.672  0.1045 -0.6223  0.1866
  111CHL1  H21A14453   1.338   0.705  14.661  0.4565 -1.4140 -0.2415
  111CHL1  H21B14454   1.230   0.601  14.576  0.8940 -2.7528  1.2972
  111CHL1  H21C14455   1.232   0.573  14.745  1.0325 -4.1782 -3.4189
  111CHL1   C2214456   1.094   0.836  14.553  0.2231 -0.4505  0.1133
  111CHL1  H22A14457   1.001   0.896  14.560  0.2020 -0.5428  0.6809
  111CHL1  H22B14458   1.179   0.909  14.557 -0.8564  0.7757  1.7698
  111CHL1   C2314459   1.097   0.763  14.418 -0.4121  0.5200 -0.2298
  111CHL1  H23A14460   1.204   0.738  14.402 -0.2745  1.7430 -1.4560
  111CHL1  H23B14461   1.030   0.674  14.417 -1.3277  1.1853 -1.7151
  111CHL1   C2414462   1.044   0.865  14.316 -0.3364 -0.3418  0.1497
  111CHL1  H24A14463   0.945   0.902  14.348  0.0220 -1.0078  2.1708
  111CHL1  H24B14464   1.108   0.956  14.318  0.2724 -0.7716  1.4156
  111CHL1   C2514465   1.042   0.806  14.178  0.2523 -0.2928 -0.5673
  111CHL1   H2514466   0.974   0.719  14.182 -2.7001  1.8770  0.6943
  111CHL1   C2614467   0.970   0.907  14.080  0.2385  0.2082  0.0871
  111CHL1  H26A14468   0.966   0.866  13.977 -2.2793  1.0555 -0.2389
  111CHL1  H26B14469   0.861   0.917  14.099  0.2448  2.7303 -0.7593
  111CHL1  H26C14470   1.018   1.007  14.084  1.9494 -0.5836  0.0838
  111CHL1   C2714471   1.175   0.758  14.128 -0.3882 -0.1747  0.2854
  111CHL1  H27A14472   1.235   0.848  14.100 -1.4024  0.3141 -0.3785
  111CHL1  H27B14473   1.229   0.699  14.205  0.5816 -0.7843 -0.8308
  111CHL1  H27C14474   1.182   0.700  14.034 -0.1489  1.3841 -0.6993
  112CHL1    C314475   3.619   2.028  15.312 -0.1426  0.4227 -0.3691
  112CHL1    H314476   3.585   2.134  15.303 -0.1110  0.7389  2.4125
  112CHL1    O314477   3.608   1.989  15.451  0.9058  0.0481  0.1217
  112CHL1   H3'14478   3.658   1.908  15.466  2.4759  1.1674  1.1366
  112CHL1    C414479   3.528   1.934  15.225 -0.0960  0.1925  0.1879
  112CHL1   H4A14480   3.555   1.830  15.251  3.9437  0.5835 -1.6537
  112CHL1   H4B14481   3.422   1.954  15.252  0.5865  2.4943  1.4584
  112CHL1    C514482   3.549   1.959  15.075  0.0334 -1.1272  0.6268
  112CHL1    C614483   3.443   1.997  14.997 -0.2766  0.0366  0.0156
  112CHL1    H614484   3.337   1.999  15.026 -0.4255 -0.3081 -0.4746
  112CHL1    C714485   3.463   2.011  14.845  0.1132 -0.0178  0.0266
  112CHL1   H7A14486   3.380   1.954  14.799 -0.0718 -1.8330  2.3881
  112CHL1   H7B14487   3.459   2.117  14.812 -2.2891 -0.0365  0.0853
  112CHL1    C814488   3.594   1.950  14.792 -0.4203  0.1916 -0.3140
  112CHL1    H814489   3.586   1.839  14.783 -0.5687  0.3128 -1.8239
  112CHL1   C1414490   3.625   2.014  14.659  0.1484 -0.2628  0.2163
  112CHL1   H1414491   3.634   2.124  14.671 -2.0833 -0.0620  0.5761
  112CHL1   C1514492   3.532   1.989  14.541  0.3754  0.0939  0.4591
  112CHL1  H15A14493   3.517   1.879  14.534 -2.5593  0.5101 -1.5619
  112CHL1  H15B14494   3.428   2.029  14.541 -0.1896 -1.3227 -0.4832
  112CHL1   C1614495   3.611   2.033  14.418 -1.1091  0.3383  0.2961
  112CHL1  H16A14496   3.600   1.954  14.341 -0.6903 -1.2266  1.7780
  112CHL1  H16B14497   3.575   2.130  14.379  1.2653  0.9524 -0.5184
  112CHL1   C1714498   3.765   2.047  14.460  0.3214 -0.1858 -0.8506
  112CHL1   H1714499   3.792   2.152  14.484 -0.6628  0.8101 -3.7411
  112CHL1   C1314500   3.765   1.966  14.595  0.3681  0.7295  0.4050
  112CHL1   C1814501   3.759   1.810  14.562 -0.3104 -0.3287 -0.5572
  112CHL1  H18A14502   3.864   1.777  14.555  0.7758  2.4927  0.5604
  112CHL1  H18B14503   3.691   1.758  14.634 -1.3589  3.4415  1.5126
  112CHL1  H18C14504   3.726   1.784  14.460  2.9484 -0.6004 -1.6412
  112CHL1   C1214505   3.882   1.994  14.693 -0.3620 -0.9442  0.3311
  112CHL1  H12A14506   3.974   1.949  14.649  0.2057 -0.8791  1.4417
  112CHL1  H12B14507   3.890   2.104  14.705  2.1433 -1.0831  0.5580
  112CHL1   C1114508   3.860   1.940  14.832 -0.7275  0.2456 -0.1435
  112CHL1  H11A14509   3.858   1.830  14.822  1.2221  0.1749 -0.2512
  112CHL1  H11B14510   3.934   1.974  14.908 -0.8366 -0.3384  0.2279
  112CHL1    C914511   3.717   1.986  14.878 -0.0830 -0.0955  0.3466
  112CHL1    H914512   3.709   2.097  14.877 -0.7859 -0.1288  1.2439
  112CHL1   C1014513   3.689   1.952  15.023 -0.5039  1.2326 -0.5920
  112CHL1   C1914514   3.729   1.806  15.043 -0.7863  0.7549  0.6990
  112CHL1  H19A14515   3.839   1.797  15.031 -0.8978 -0.9222  0.6531
  112CHL1  H19B14516   3.710   1.760  15.142 -0.4891  0.4097  0.5966
  112CHL1  H19C14517   3.682   1.740  14.967  2.6684 -0.4656 -0.5933
  112CHL1    C114518   3.782   2.033  15.115  0.2071 -0.2908 -0.1527
  112CHL1   H1A14519   3.888   2.004  15.106  0.0375 -0.7110 -0.8525
  112CHL1   H1B14520   3.772   2.141  15.090 -1.9070 -0.7070 -1.3917
  112CHL1    C214521   3.765   2.016  15.269 -0.6624  0.5986  0.3463
  112CHL1   H2A14522   3.816   2.105  15.311 -0.0967 -0.0533  1.0726
  112CHL1   H2B14523   3.792   1.911  15.295 -0.0484  0.5001 -0.6274
  112CHL1   C2014524   3.854   2.001  14.345  0.5401 -0.8505  0.2226
  112CHL1   H2014525   3.836   1.897  14.311  0.0173 -0.8407  0.4602
  112CHL1   C2114526   4.001   2.013  14.390 -0.6737  0.2175  0.3533
  112CHL1  H21A14527   4.036   2.103  14.445 -2.8690  1.4422 -0.1314
  112CHL1  H21B14528   4.066   2.011  14.300  0.3685  1.6011  1.0329
  112CHL1  H21C14529   4.025   1.922  14.450 -1.3980 -0.1558  0.0917
  112CHL1   C2214530   3.839   2.099  14.228  0.9743  0.2244 -0.3229
  112CHL1  H22A14531   3.731   2.123  14.214  0.6243 -0.9311  0.2166
  112CHL1  H22B14532   3.877   2.201  14.251  0.4303  0.1278  1.1229
  112CHL1   C2314533   3.884   2.031  14.100 -0.0092  0.5119  0.2942
  112CHL1  H23A14534   3.984   1.985  14.112  0.2925  0.1517 -2.8283
  112CHL1  H23B14535   3.807   1.954  14.077 -0.5113  0.9677  0.4122
  112CHL1   C2414536   3.874   2.140  13.987 -0.5596 -0.7880  0.9640
  112CHL1  H24A14537   3.767   2.169  13.980 -0.3759  0.3146  2.2467
  112CHL1  H24B14538   3.947   2.221  14.007  0.9905 -1.5933 -1.1005
  112CHL1   C2514539   3.899   2.089  13.842  0.1014 -0.5525 -0.8170
  112CHL1   H2514540   3.893   2.180  13.780  0.7873  0.7065  0.8856
  112CHL1   C2614541   4.039   2.025  13.837 -0.3101 -0.2611 -0.1224
  112CHL1  H26A14542   4.041   1.941  13.909  1.2732  0.5041  0.7636
  112CHL1  H26B14543   4.061   1.986  13.735 -0.1279 -0.2706 -0.0800
  112CHL1  H26C14544   4.118   2.088  13.881 -1.2788 -0.2043  1.6405
  112CHL1   C2714545   3.793   1.989  13.800 -0.2142 -0.3935 -0.3327
  112CHL1  H27A14546   3.808   1.891  13.850 -1.6044 -0.5578 -0.2052
  112CHL1  H27B14547   3.686   2.015  13.815 -0.4959 -1.5650 -0.1999
  112CHL1  H27C14548   3.803   1.970  13.691  2.2024 -1.2759 -0.0256
  113CHL1    C314549   0.002   5.359  15.067  0.2834  0.0736 -0.3300
  113CHL1    H314550   0.110   5.379  15.047 -0.1029  1.2230 -1.3641
  113CHL1    O314551  -0.025   5.366  15.205  0.2530  0.4177  0.0280
  113CHL1   H3'14552  -0.096   5.301  15.209  2.0228 -1.8324 -1.9067
  113CHL1    C414553  -0.079   5.473  15.007 -0.1036  0.3657 -0.2854
  113CHL1   H4A14554  -0.184   5.485  15.041 -0.0512  0.2838 -0.0928
  113CHL1   H4B14555  -0.018   5.558  15.044  0.9756 -0.0830 -0.9554
  113CHL1    C514556  -0.088   5.466  14.855 -0.0190  0.4252 -0.1293
  113CHL1    C614557  -0.046   5.573  14.786 -0.8376  0.5320 -0.3700
  113CHL1    H614558  -0.007   5.660  14.841  1.7953 -1.5616  1.3548
  113CHL1    C714559  -0.074   5.586  14.635 -0.6842 -1.0547 -0.3426
  113CHL1   H7A14560  -0.131   5.680  14.618  2.5482  0.8809 -1.4179
  113CHL1   H7B14561   0.021   5.604  14.580 -1.4096  0.1559 -1.2615
  113CHL1    C814562  -0.156   5.467  14.578  0.2892  0.5065  0.6466
  113CHL1    H814563  -0.265   5.483  14.594  0.1552  0.7503 -0.4131
  113CHL1   C1414564  -0.126   5.460  14.423  0.1564 -0.0874 -0.0116
  113CHL1   H1414565  -0.015   5.455  14.412  0.0364  0.7185 -2.0931
  113CHL1   C1514566  -0.170   5.573  14.331  0.0996 -0.0519  0.2439
  113CHL1  H15A14567  -0.268   5.611  14.367 -0.0815 -0.3831  0.1048
  113CHL1  H15B14568  -0.112   5.667  14.336 -0.2104  0.1634 -0.1959
  113CHL1   C1614569  -0.172   5.511  14.193  0.8892 -0.3744 -0.0149
  113CHL1  H16A14570  -0.267   5.531  14.138 -0.1800 -2.9154  0.7644
  113CHL1  H16B14571  -0.088   5.547  14.130 -0.9088  2.0005 -1.2136
  113CHL1   C1714572  -0.148   5.365  14.204 -0.3973 -0.2615 -0.2268
  113CHL1   H1714573  -0.038   5.348  14.204 -0.0203  1.8306  0.7687
  113CHL1   C1314574  -0.178   5.328  14.358  0.4766  0.4370  0.4510
  113CHL1   C1814575  -0.335   5.320  14.371 -0.3396 -0.1357 -0.4406
  113CHL1  H18A14576  -0.369   5.216  14.356  1.3946 -0.8506  0.2581
  113CHL1  H18B14577  -0.374   5.336  14.474 -0.5066  1.9408 -0.7839
  113CHL1  H18C14578  -0.384   5.396  14.307  2.8270  1.0822 -1.6205
  113CHL1   C1214579  -0.114   5.197  14.423 -0.3094  0.3767  1.1625
  113CHL1  H12A14580  -0.156   5.100  14.387  0.2580 -0.8655  3.6359
  113CHL1  H12B14581  -0.004   5.201  14.405 -0.7394  0.2051 -2.3364
  113CHL1   C1114582  -0.129   5.201  14.574  0.0285 -0.1324 -0.4268
  113CHL1  H11A14583  -0.235   5.179  14.601  0.4289 -0.2656  1.0782
  113CHL1  H11B14584  -0.075   5.114  14.616  1.4935  0.9702  0.0559
  113CHL1    C914585  -0.099   5.337  14.641 -0.0863 -0.2527  1.3917
  113CHL1    H914586   0.007   5.361  14.622 -0.7550  0.7610 -1.5431
  113CHL1   C1014587  -0.134   5.336  14.790  0.3723  0.1495 -0.9076
  113CHL1   C1914588  -0.283   5.302  14.820  0.1022  0.0944 -0.6200
  113CHL1  H19A14589  -0.356   5.352  14.753 -1.7882 -3.0834 -1.1295
  113CHL1  H19B14590  -0.294   5.195  14.794 -1.6228  0.6346 -2.3609
  113CHL1  H19C14591  -0.315   5.332  14.922  0.7762  2.0407 -0.9391
  113CHL1    C114592  -0.047   5.221  14.856  0.5360 -0.4453 -0.4977
  113CHL1   H1A14593  -0.086   5.121  14.827 -2.0798  0.0025  1.1173
  113CHL1   H1B14594   0.057   5.230  14.819  0.4634  0.8296 -0.4573
  113CHL1    C214595  -0.043   5.228  15.008 -0.2642 -0.0236  0.5260
  113CHL1   H2A14596   0.012   5.143  15.055 -0.6389 -0.4671  0.1756
  113CHL1   H2B14597  -0.149   5.214  15.039 -0.6528  1.9596  0.2307
  113CHL1   C2014598  -0.208   5.282  14.089 -0.2610 -0.4957  0.4591
  113CHL1   H2014599  -0.318   5.295  14.078 -0.2991 -0.2554  1.0734
  113CHL1   C2114600  -0.188   5.125  14.116  0.2015 -0.4436  0.4416
  113CHL1  H21A14601  -0.209   5.062  14.027  1.4477 -1.1743  0.6468
  113CHL1  H21B14602  -0.248   5.105  14.208 -0.4180  1.7475  0.5800
  113CHL1  H21C14603  -0.082   5.098  14.139  0.8393  0.3691 -1.3867
  113CHL1   C2214604  -0.146   5.312  13.951 -0.1694 -0.1820  0.1851
  113CHL1  H22A14605  -0.121   5.420  13.938  2.8354 -0.7930  0.2176
  113CHL1  H22B14606  -0.055   5.256  13.920  2.0125  2.7581  0.7985
  113CHL1   C2314607  -0.247   5.296  13.833  0.8831 -0.0371 -0.7684
  113CHL1  H23A14608  -0.284   5.192  13.822 -1.3242  0.1972  2.8395
  113CHL1  H23B14609  -0.333   5.355  13.873  2.2103  0.6478  1.2372
  113CHL1   C2414610  -0.191   5.354  13.707 -0.3228 -0.8162  0.2863
  113CHL1  H24A14611  -0.170   5.462  13.717  3.9084 -1.2938 -1.3523
  113CHL1  H24B14612  -0.101   5.296  13.676  1.3260  0.8480  1.7018
  113CHL1   C2514613  -0.272   5.338  13.582 -0.7022  0.5183  0.3207
  113CHL1   H2514614  -0.209   5.387  13.504  2.1931  0.5194  2.4791
  113CHL1   C2614615  -0.295   5.199  13.536  0.3171  0.6281  0.1758
  113CHL1  H26A14616  -0.327   5.134  13.620 -0.8599  1.4348  0.3625
  113CHL1  H26B14617  -0.369   5.196  13.453  2.3763 -1.2171 -1.7430
  113CHL1  H26C14618  -0.202   5.164  13.485  0.4454  1.0342  0.1263
  113CHL1   C2714619  -0.406   5.414  13.606 -0.0970  0.8064 -0.8758
  113CHL1  H27A14620  -0.477   5.401  13.522 -0.3266  1.8526 -0.8504
  113CHL1  H27B14621  -0.459   5.353  13.682 -0.8522  1.6010 -0.7495
  113CHL1  H27C14622  -0.406   5.521  13.636  0.1223  1.0847 -1.8601
  114CHL1    C314623   3.062   6.627  15.101 -0.1356 -0.3652  0.7397
  114CHL1    H314624   2.958   6.665  15.116  0.6433  1.7228  1.2231
  114CHL1    O314625   3.109   6.607  15.232  0.4170  0.5835  0.3716
  114CHL1   H3'14626   3.147   6.519  15.234 -1.3717 -0.2748 -0.7419
  114CHL1    C414627   3.073   6.496  15.026  0.3254  0.2322  0.3986
  114CHL1   H4A14628   3.180   6.467  15.021  1.0036  2.6476 -0.6987
  114CHL1   H4B14629   3.025   6.414  15.084  0.1398  0.6909  0.8995
  114CHL1    C514630   3.027   6.491  14.876 -0.2510 -0.5544  0.5313
  114CHL1    C614631   2.944   6.396  14.831  0.3549 -0.0299  0.3735
  114CHL1    H614632   2.905   6.319  14.899  0.6080 -2.2193 -1.8182
  114CHL1    C714633   2.889   6.386  14.688  0.2801  0.3022  0.2772
  114CHL1   H7A14634   2.885   6.285  14.642 -0.4726 -0.4000  1.8335
  114CHL1   H7B14635   2.782   6.416  14.687 -0.2588 -1.5532  0.5047
  114CHL1    C814636   2.969   6.482  14.597  1.0358 -0.1678  0.3691
  114CHL1    H814637   3.064   6.434  14.566  1.5075  0.2300  1.1630
  114CHL1   C1414638   2.886   6.504  14.472  0.3908 -0.2358 -0.1313
  114CHL1   H1414639   2.793   6.553  14.505  1.1096  1.3895 -0.4092
  114CHL1   C1514640   2.851   6.380  14.392  0.0710  0.1202 -0.3362
  114CHL1  H15A14641   2.945   6.322  14.388  0.1057  0.2341 -1.9364
  114CHL1  H15B14642   2.763   6.320  14.423  2.0136 -3.1887 -0.8090
  114CHL1   C1614643   2.820   6.438  14.248  0.2513 -0.3984  0.1273
  114CHL1  H16A14644   2.886   6.388  14.175 -0.1255  0.0890 -0.5551
  114CHL1  H16B14645   2.714   6.407  14.233  1.1061 -2.5348 -2.1500
  114CHL1   C1714646   2.839   6.590  14.261  0.4407 -0.1233  0.2770
  114CHL1   H1714647   2.747   6.625  14.312  1.5131  1.0900  1.4633
  114CHL1   C1314648   2.950   6.605  14.371  0.1754  0.0616 -0.1318
  114CHL1   C1814649   3.093   6.558  14.322  0.1107  0.0611  0.5864
  114CHL1  H18A14650   3.079   6.454  14.287  0.7327 -0.4076  1.7003
  114CHL1  H18B14651   3.125   6.613  14.231  1.3557 -2.4963 -0.6227
  114CHL1  H18C14652   3.171   6.568  14.400 -0.4872  2.6666  0.9513
  114CHL1   C1214653   2.959   6.740  14.448  0.5181  0.8519  0.4331
  114CHL1  H12A14654   3.007   6.806  14.373  0.4353 -0.4430 -0.8075
  114CHL1  H12B14655   2.858   6.776  14.478  1.0779  2.3823  0.5522
  114CHL1   C1114656   3.045   6.729  14.565  0.2135  0.2403 -0.8537
  114CHL1  H11A14657   3.154   6.729  14.539  0.6773  0.8956  0.9728
  114CHL1  H11B14658   3.045   6.825  14.619  2.5462  0.3864 -1.0002
  114CHL1    C914659   3.001   6.614  14.663  0.5204  0.6974 -0.3296
  114CHL1    H914660   2.904   6.650  14.702 -0.7314 -2.1044 -0.6409
  114CHL1   C1014661   3.083   6.602  14.786  0.2144 -0.2775 -0.5673
  114CHL1   C1914662   3.234   6.569  14.755  0.3378  0.0712  0.2562
  114CHL1  H19A14663   3.288   6.515  14.836  2.5616  1.2695 -0.3321
  114CHL1  H19B14664   3.241   6.505  14.665 -1.4148  0.5111 -0.2250
  114CHL1  H19C14665   3.296   6.661  14.748  0.8161 -0.0677  2.0717
  114CHL1    C114666   3.072   6.736  14.874 -0.1474  0.4430  0.1156
  114CHL1   H1A14667   3.126   6.811  14.813 -0.0250  1.5503  1.5161
  114CHL1   H1B14668   2.973   6.785  14.884 -1.7264 -1.9952 -2.2384
  114CHL1    C214669   3.134   6.738  15.017 -0.4815  0.1352 -0.4413
  114CHL1   H2A14670   3.125   6.839  15.061  0.2024  0.0791 -0.1697
  114CHL1   H2B14671   3.242   6.713  15.012 -0.3554  0.8525 -1.4507
  114CHL1   C2014672   2.859   6.668  14.129 -0.4779  0.5347 -0.9109
  114CHL1   H2014673   2.968   6.676  14.113 -0.4660  2.6813 -0.1156
  114CHL1   C2114674   2.808   6.812  14.150 -0.5355  0.4028 -0.6010
  114CHL1  H21A14675   2.835   6.866  14.057 -2.0458  2.9830  0.3500
  114CHL1  H21B14676   2.853   6.865  14.236 -1.4643  0.7900 -0.3467
  114CHL1  H21C14677   2.697   6.821  14.152 -0.4801  1.0652 -0.4943
  114CHL1   C2214678   2.785   6.603  14.012  0.1503  0.2570  0.0956
  114CHL1  H22A14679   2.833   6.504  13.997  0.7264  0.1991  2.0348
  114CHL1  H22B14680   2.683   6.604  14.056  0.5677  2.2292  1.1216
  114CHL1   C2314681   2.783   6.672  13.882  0.0059 -0.1568 -0.6990
  114CHL1  H23A14682   2.734   6.771  13.892  2.4496  1.3264 -2.4996
  114CHL1  H23B14683   2.887   6.700  13.854  0.3635  1.2401  1.7455
  114CHL1   C2414684   2.706   6.591  13.780  0.0120  0.1776  0.0779
  114CHL1  H24A14685   2.764   6.496  13.778  1.3929  0.9727  0.5861
  114CHL1  H24B14686   2.608   6.574  13.828 -0.2251 -3.8274 -1.4713
  114CHL1   C2514687   2.671   6.662  13.641 -0.0301  0.3616 -0.7430
  114CHL1   H2514688   2.764   6.689  13.587  0.3937 -0.9072 -0.6882
  114CHL1   C2614689   2.602   6.569  13.545 -0.3033  0.3357 -0.3450
  114CHL1  H26A14690   2.569   6.615  13.449  0.6279  0.6491 -0.5209
  114CHL1  H26B14691   2.677   6.491  13.523  0.4270  0.4446  1.5920
  114CHL1  H26C14692   2.501   6.536  13.577 -0.5314  1.8973  0.6534
  114CHL1   C2714693   2.591   6.794  13.664 -0.3237  0.5561  0.1245
  114CHL1  H27A14694   2.572   6.840  13.565 -2.2260  0.7939  0.5507
  114CHL1  H27B14695   2.498   6.774  13.722 -0.9855  1.8071 -0.4645
  114CHL1  H27C14696   2.654   6.862  13.725  3.2721 -2.2908 -0.0143
  115CHL1    C314697   0.534   1.404  15.627  0.7715  0.0482 -0.0420
  115CHL1    H314698   0.463   1.488  15.617 -0.9643 -1.3327  0.1709
  115CHL1    O314699   0.548   1.394  15.767 -0.2079 -0.0536  0.0594
  115CHL1   H3'14700   0.467   1.349  15.793  0.9291 -2.1205  0.2242
  115CHL1    C414701   0.473   1.279  15.561 -0.4402 -0.3174  0.4962
  115CHL1   H4A14702   0.542   1.194  15.582 -0.6725 -0.1636  2.0176
  115CHL1   H4B14703   0.374   1.249  15.601 -1.3208  0.5863 -0.9346
  115CHL1    C514704   0.471   1.295  15.408  0.1436  0.3625  0.8245
  115CHL1    C614705   0.354   1.280  15.339 -0.3470  0.0777  0.0847
  115CHL1    H614706   0.265   1.257  15.400  0.4442 -2.8212  0.2863
  115CHL1    C714707   0.334   1.301  15.199  0.2401  0.4449  0.1848
  115CHL1   H7A14708   0.262   1.229  15.155  0.4404 -0.1233  0.7744
  115CHL1   H7B14709   0.290   1.402  15.187 -1.2896  0.1298  2.5208
  115CHL1    C814710   0.466   1.291  15.123 -0.4418 -0.9056  0.6380
  115CHL1    H814711   0.500   1.187  15.104 -0.7083 -0.7532 -0.7766
  115CHL1   C1414712   0.446   1.354  14.981  0.2841 -0.0035  0.2466
  115CHL1   H1414713   0.417   1.460  14.998 -2.3405 -0.7497  0.8683
  115CHL1   C1514714   0.339   1.294  14.891  0.0827 -0.5515 -0.0532
  115CHL1  H15A14715   0.341   1.184  14.900  0.3815 -0.4705  1.0211
  115CHL1  H15B14716   0.237   1.328  14.920  1.0490  1.1957  1.5022
  115CHL1   C1614717   0.382   1.346  14.754  0.3635 -0.2186  0.6196
  115CHL1  H16A14718   0.388   1.278  14.667 -3.3292  3.0334 -2.5901
  115CHL1  H16B14719   0.317   1.426  14.712  0.4864 -1.4992 -2.2073
  115CHL1   C1714720   0.522   1.413  14.768  0.4213 -0.1008 -0.3861
  115CHL1   H1714721   0.504   1.522  14.779  1.2583 -0.0227  0.3870
  115CHL1   C1314722   0.572   1.362  14.901 -1.1638  0.0097  0.3574
  115CHL1   C1814723   0.635   1.222  14.878  1.5573  0.6257 -0.9776
  115CHL1  H18A14724   0.744   1.217  14.856  1.7266 -0.5088  0.0577
  115CHL1  H18B14725   0.629   1.149  14.961  0.0873  2.8210  0.9722
  115CHL1  H18C14726   0.587   1.169  14.792  0.6732  0.1277 -0.1937
  115CHL1   C1214727   0.678   1.449  14.977 -0.0044 -0.6519  0.0170
  115CHL1  H12A14728   0.770   1.478  14.923  0.7774  0.8241  2.0167
  115CHL1  H12B14729   0.623   1.543  15.001 -2.0957 -1.6079 -0.7942
  115CHL1   C1114730   0.703   1.391  15.115 -0.4372  0.3440 -0.1793
  115CHL1  H11A14731   0.747   1.291  15.098  0.5719  0.9160 -1.0446
  115CHL1  H11B14732   0.779   1.451  15.169 -0.2438  1.0229 -1.1773
  115CHL1    C914733   0.575   1.375  15.199  0.1300  0.4577 -0.4534
  115CHL1    H914734   0.528   1.475  15.188 -1.6478 -0.3976 -1.2869
  115CHL1   C1014735   0.600   1.340  15.345  0.0176 -1.1643  0.1118
  115CHL1   C1914736   0.702   1.222  15.353  0.0175  0.2855 -0.4052
  115CHL1  H19A14737   0.682   1.155  15.266  0.2018 -0.1135 -0.1439
  115CHL1  H19B14738   0.803   1.266  15.340  1.1062 -2.1571 -0.7366
  115CHL1  H19C14739   0.707   1.169  15.451  1.5267 -2.2464 -1.7572
  115CHL1    C114740   0.661   1.459  15.422  0.6775  0.7886  0.0977
  115CHL1   H1A14741   0.758   1.497  15.383  0.3551 -1.0563 -2.8816
  115CHL1   H1B14742   0.597   1.548  15.403  0.1957  0.1810 -1.2616
  115CHL1    C214743   0.669   1.447  15.575  0.6221  0.3950 -0.1168
  115CHL1   H2A14744   0.689   1.542  15.629  1.6480 -1.4928  3.1203
  115CHL1   H2B14745   0.740   1.369  15.609  0.4000 -0.0310 -0.6148
  115CHL1   C2014746   0.603   1.386  14.637 -0.0330  0.0802  0.8490
  115CHL1   H2014747   0.606   1.277  14.616 -0.4920  0.1253  0.5366
  115CHL1   C2114748   0.744   1.447  14.648  0.5991 -0.0355 -0.0835
  115CHL1  H21A14749   0.802   1.435  14.554  1.1534  0.3433  0.2015
  115CHL1  H21B14750   0.799   1.399  14.732 -1.3948 -0.9560  0.7723
  115CHL1  H21C14751   0.742   1.557  14.663 -0.2962  0.2147 -1.8308
  115CHL1   C2214752   0.534   1.433  14.509  0.2901 -0.0197 -0.4897
  115CHL1  H22A14753   0.427   1.452  14.531  1.0409  2.7468  1.2049
  115CHL1  H22B14754   0.582   1.524  14.467 -2.5977  1.7115 -0.3189
  115CHL1   C2314755   0.533   1.327  14.395  1.3304 -0.3579  0.2493
  115CHL1  H23A14756   0.638   1.293  14.384  1.6933  0.7657  0.0623
  115CHL1  H23B14757   0.470   1.240  14.422  0.3053  0.1043 -0.5936
  115CHL1   C2414758   0.485   1.388  14.262  0.0871 -0.4030  0.6086
  115CHL1  H24A14759   0.386   1.438  14.277  0.1321 -0.0577 -0.1929
  115CHL1  H24B14760   0.553   1.476  14.256  0.7675 -0.9376  0.4119
  115CHL1   C2514761   0.486   1.298  14.140  0.1555 -0.2826 -0.1011
  115CHL1   H2514762   0.451   1.355  14.051 -1.6813 -0.3170  0.5549
  115CHL1   C2614763   0.635   1.257  14.109  0.6848  0.3636 -0.1987
  115CHL1  H26A14764   0.630   1.206  14.010  0.2350  0.4745 -0.2349
  115CHL1  H26B14765   0.689   1.353  14.099 -0.6150  1.3714  1.7721
  115CHL1  H26C14766   0.671   1.200  14.197 -1.3000  0.5048  0.7674
  115CHL1   C2714767   0.404   1.167  14.160  0.4536  0.4338  0.6371
  115CHL1  H27A14768   0.431   1.104  14.247 -0.3615  1.0032  1.3265
  115CHL1  H27B14769   0.298   1.191  14.183  0.0428 -0.2287 -0.4869
  115CHL1  H27C14770   0.413   1.105  14.068  0.6518  1.5471 -0.1216
  116CHL1    C314771   1.864   0.644  15.126 -0.4294  0.7612  0.0739
  116CHL1    H314772   1.824   0.748  15.128 -0.0933  0.9014  2.0850
  116CHL1    O314773   1.888   0.617  15.264  0.1573  0.2239 -0.5031
  116CHL1   H3'14774   1.983   0.617  15.277  0.5236  0.0766 -2.8165
  116CHL1    C414775   1.762   0.542  15.069  0.1353 -0.4274  0.0277
  116CHL1   H4A14776   1.807   0.445  15.101 -0.4203 -0.8044 -0.3283
  116CHL1   H4B14777   1.672   0.562  15.130  1.4126 -2.4727  2.7866
  116CHL1    C514778   1.745   0.549  14.918  0.4949  0.5795  0.4026
  116CHL1    C614779   1.626   0.532  14.857  0.8734 -0.2438 -0.1590
  116CHL1    H614780   1.544   0.500  14.923  0.2180  1.9377  0.1601
  116CHL1    C714781   1.589   0.550  14.714 -0.2638  0.2404 -0.2011
  116CHL1   H7A14782   1.518   0.472  14.680 -0.1137  0.3800 -0.8433
  116CHL1   H7B14783   1.540   0.650  14.714 -0.9154  0.0232 -3.1459
  116CHL1    C814784   1.714   0.556  14.623  0.7072  0.8316 -0.5824
  116CHL1    H814785   1.751   0.452  14.611  0.5483  0.6726  0.2915
  116CHL1   C1414786   1.690   0.611  14.488  0.7605  0.4713 -0.4110
  116CHL1   H1414787   1.677   0.720  14.506  1.7853  0.2987  1.6033
  116CHL1   C1514788   1.562   0.563  14.414 -0.4205  0.0325 -0.4633
  116CHL1  H15A14789   1.540   0.455  14.428 -1.3750  0.2157 -0.4521
  116CHL1  H15B14790   1.482   0.625  14.459 -0.3509 -1.2041  1.4588
  116CHL1   C1614791   1.596   0.603  14.266  0.8053  0.0655 -0.3570
  116CHL1  H16A14792   1.579   0.510  14.207  0.2939  0.3565 -0.6724
  116CHL1  H16B14793   1.517   0.675  14.236  0.0501 -1.1483 -1.3850
  116CHL1   C1714794   1.740   0.656  14.264  0.1141 -0.2000  0.2479
  116CHL1   H1714795   1.723   0.765  14.280 -4.3716 -0.4127 -1.3993
  116CHL1   C1314796   1.808   0.601  14.389  0.3298  0.7111  0.4485
  116CHL1   C1814797   1.839   0.450  14.360  0.8925  0.0974 -0.3862
  116CHL1  H18A14798   1.884   0.406  14.452  0.3895  2.4621  1.0729
  116CHL1  H18B14799   1.752   0.389  14.326  0.6849 -1.0170  1.9634
  116CHL1  H18C14800   1.915   0.454  14.279  1.5889 -0.7678  0.2028
  116CHL1   C1214801   1.921   0.688  14.454  0.3512 -0.6863 -0.4682
  116CHL1  H12A14802   2.016   0.686  14.396  0.6940  0.2471  0.0403
  116CHL1  H12B14803   1.889   0.795  14.455  0.2605 -0.6790 -2.1941
  116CHL1   C1114804   1.943   0.654  14.599 -0.2050  0.7500 -0.5973
  116CHL1  H11A14805   2.000   0.558  14.599  3.0336  2.5300 -0.2567
  116CHL1  H11B14806   2.015   0.731  14.635  0.6295  0.2308 -1.1127
  116CHL1    C914807   1.827   0.632  14.694 -0.0936 -0.2685 -0.1694
  116CHL1    H914808   1.791   0.736  14.712  1.7494  0.2607  0.6759
  116CHL1   C1014809   1.858   0.582  14.836 -0.3614  0.9080 -0.5226
  116CHL1   C1914810   1.932   0.448  14.824 -0.1096  0.3809 -0.2209
  116CHL1  H19A14811   2.038   0.468  14.796  0.5223 -2.7203 -0.4866
  116CHL1  H19B14812   1.939   0.385  14.915 -0.2585 -0.7317 -0.9600
  116CHL1  H19C14813   1.887   0.384  14.745 -0.7202 -0.3642  0.7196
  116CHL1    C114814   1.963   0.680  14.906 -0.5005 -0.3413  0.5776
  116CHL1   H1A14815   2.053   0.678  14.841 -0.9658  1.6891 -0.2307
  116CHL1   H1B14816   1.919   0.783  14.901 -1.1875 -0.6208 -4.5152
  116CHL1    C214817   1.996   0.638  15.050 -0.3325 -0.0368 -0.0602
  116CHL1   H2A14818   2.071   0.701  15.102  0.9456  0.1311 -1.9959
  116CHL1   H2B14819   2.047   0.539  15.052 -1.1111 -0.4370  0.4798
  116CHL1   C2014820   1.804   0.635  14.133 -0.6215  0.2394 -0.2172
  116CHL1   H2014821   1.815   0.526  14.113 -3.7675 -0.6713  2.1371
  116CHL1   C2114822   1.945   0.702  14.125  1.0077 -0.8468 -0.4046
  116CHL1  H21A14823   1.929   0.801  14.174  1.3697 -0.7070 -0.5615
  116CHL1  H21B14824   1.976   0.717  14.020 -2.6664  2.9971 -1.2035
  116CHL1  H21C14825   2.015   0.639  14.185 -0.0162 -0.0853  1.7231
  116CHL1   C2214826   1.719   0.698  14.012  0.3415 -0.0454  0.1695
  116CHL1  H22A14827   1.619   0.649  14.014 -0.0285  0.5649 -1.7477
  116CHL1  H22B14828   1.703   0.805  14.038 -1.1656  0.1180 -1.2792
  116CHL1   C2314829   1.769   0.684  13.872 -0.3178  0.2958  0.5972
  116CHL1  H23A14830   1.842   0.764  13.846 -0.3155 -0.4271 -1.8397
  116CHL1  H23B14831   1.814   0.583  13.863  0.7434  0.8156 -0.1074
  116CHL1   C2414832   1.656   0.706  13.768 -0.7284  0.3405 -0.3550
  116CHL1  H24A14833   1.582   0.624  13.779  0.8440 -1.4137 -1.9801
  116CHL1  H24B14834   1.607   0.800  13.800 -1.0065 -0.6098  2.1754
  116CHL1   C2514835   1.703   0.722  13.622  0.0701 -0.2818 -0.2402
  116CHL1   H2514836   1.786   0.795  13.627  0.9904 -1.3249  0.1756
  116CHL1   C2614837   1.756   0.587  13.574 -0.5209  0.2637 -0.1634
  116CHL1  H26A14838   1.790   0.585  13.469  1.8004 -0.7216  0.5310
  116CHL1  H26B14839   1.845   0.552  13.632  0.2252  0.1479 -1.3531
  116CHL1  H26C14840   1.676   0.510  13.576  2.2691 -2.8566  1.3673
  116CHL1   C2714841   1.604   0.780  13.520  0.1261  0.1877 -0.5907
  116CHL1  H27A14842   1.583   0.888  13.538  1.4232  0.1544  1.3867
  116CHL1  H27B14843   1.654   0.781  13.420 -1.6442  1.5062 -1.5221
  116CHL1  H27C14844   1.514   0.716  13.526  0.4064 -0.1223  0.6231
  117CHL1    C314845   3.674   0.948  15.321 -0.0493  0.4786  0.1648
  117CHL1    H314846   3.735   1.034  15.286  2.1236 -0.1516  2.1083
  117CHL1    O314847   3.718   0.908  15.452 -0.0647 -0.3449 -0.0430
  117CHL1   H3'14848   3.683   0.973  15.513  0.4231  1.7466 -1.8759
  117CHL1    C414849   3.524   0.959  15.316 -0.2189  0.3539  0.3096
  117CHL1   H4A14850   3.485   0.860  15.346  0.3268  0.2987  0.8396
  117CHL1   H4B14851   3.485   1.027  15.395  1.0215 -0.7787  1.9445
  117CHL1    C514852   3.480   0.995  15.168  0.6796  1.0982 -1.1940
  117CHL1    C614853   3.389   1.093  15.153 -0.5019 -0.6914  0.7420
  117CHL1    H614854   3.345   1.146  15.239  0.1044  1.0701  0.0145
  117CHL1    C714855   3.343   1.133  15.018 -0.2608  0.1879 -0.0569
  117CHL1   H7A14856   3.232   1.140  15.023 -0.3010 -0.4318  0.0199
  117CHL1   H7B14857   3.386   1.233  14.997 -0.7177  0.3845 -0.0639
  117CHL1    C814858   3.381   1.038  14.902  0.4481  0.7203  0.3069
  117CHL1    H814859   3.317   0.948  14.912  1.5319 -0.2909 -1.3490
  117CHL1   C1414860   3.361   1.104  14.755 -0.1596 -0.5015  0.7139
  117CHL1   H1414861   3.434   1.187  14.767 -1.3349  0.7024 -0.0823
  117CHL1   C1514862   3.228   1.167  14.718  0.6257  0.1044 -1.1633
  117CHL1  H15A14863   3.157   1.091  14.758  1.3812 -0.1372 -0.2252
  117CHL1  H15B14864   3.207   1.264  14.769  1.3380 -0.0095 -0.6468
  117CHL1   C1614865   3.232   1.178  14.568  0.2764  0.4239 -0.8068
  117CHL1  H16A14866   3.152   1.125  14.512  0.8124 -1.2175 -0.0737
  117CHL1  H16B14867   3.237   1.276  14.516  0.2824 -0.1958 -2.0199
  117CHL1   C1714868   3.364   1.113  14.525 -0.0793  0.1796  0.6234
  117CHL1   H1714869   3.434   1.198  14.535 -1.0804  1.0369  0.5571
  117CHL1   C1314870   3.402   1.012  14.642 -0.0456  1.1081  0.4207
  117CHL1   C1814871   3.307   0.888  14.628 -0.2340 -0.5676 -0.1874
  117CHL1  H18A14872   3.278   0.827  14.716  3.0444 -1.4470  0.4010
  117CHL1  H18B14873   3.212   0.920  14.579 -0.1870 -2.1515 -1.3662
  117CHL1  H18C14874   3.346   0.809  14.561 -2.7976 -1.2670 -1.0012
  117CHL1   C1214875   3.545   0.968  14.657  0.4797  0.0001 -0.1716
  117CHL1  H12A14876   3.574   0.890  14.584 -0.0493 -0.3532  0.0002
  117CHL1  H12B14877   3.605   1.062  14.664  0.6060  0.0547 -1.6875
  117CHL1   C1114878   3.564   0.898  14.799 -0.3512 -0.0503  0.3328
  117CHL1  H11A14879   3.501   0.807  14.790  0.1822 -0.7248  2.7991
  117CHL1  H11B14880   3.670   0.866  14.791  0.1519  1.9544 -3.2725
  117CHL1    C914881   3.522   0.986  14.918 -0.1989  0.1549  0.8103
  117CHL1    H914882   3.584   1.079  14.919  0.1732 -0.0891  0.8662
  117CHL1   C1014883   3.546   0.914  15.057  0.8153  0.5333  0.4410
  117CHL1   C1914884   3.466   0.780  15.055 -0.1497 -0.1443 -0.4894
  117CHL1  H19A14885   3.469   0.736  15.157  1.8040  0.1265 -0.3974
  117CHL1  H19B14886   3.359   0.791  15.026 -0.0402  3.4034  0.0671
  117CHL1  H19C14887   3.524   0.720  14.982 -0.8932  0.4206 -1.5770
  117CHL1    C114888   3.694   0.887  15.085 -0.1594  0.2512 -0.4621
  117CHL1   H1A14889   3.720   0.812  15.008 -1.9291 -0.0400 -0.8023
  117CHL1   H1B14890   3.752   0.974  15.045 -0.6069  0.3502 -0.8879
  117CHL1    C214891   3.722   0.837  15.229  0.5158 -0.2852  0.1219
  117CHL1   H2A14892   3.830   0.812  15.239  0.5690 -0.5251 -0.8882
  117CHL1   H2B14893   3.667   0.742  15.244  1.7365 -1.0268  0.0255
  117CHL1   C2014894   3.360   1.055  14.382  0.2966  0.6659 -0.3551
  117CHL1   H2014895   3.300   0.961  14.378  1.6262 -0.1708 -1.7578
  117CHL1   C2114896   3.506   1.030  14.347 -0.1631 -0.7470 -0.0872
  117CHL1  H21A14897   3.540   0.925  14.361  2.4094 -0.1364 -1.0542
  117CHL1  H21B14898   3.568   1.106  14.401 -0.5970  1.1907 -2.1513
  117CHL1  H21C14899   3.525   1.060  14.242 -0.0130  1.6963  0.5704
  117CHL1   C2214900   3.287   1.161  14.285  0.7882 -0.7709  0.7890
  117CHL1  H22A14901   3.180   1.179  14.310  0.5148 -2.1173  0.6275
  117CHL1  H22B14902   3.341   1.257  14.298 -1.0800  0.2442  1.4661
  117CHL1   C2314903   3.284   1.126  14.135  0.0072 -0.7290 -0.1900
  117CHL1  H23A14904   3.386   1.120  14.091  0.4450  1.9238  0.2854
  117CHL1  H23B14905   3.234   1.027  14.128  0.8695 -1.1286 -0.8827
  117CHL1   C2414906   3.208   1.220  14.044 -0.3473  0.1838  0.7402
  117CHL1  H24A14907   3.111   1.234  14.096  0.7538  0.1937  2.9140
  117CHL1  H24B14908   3.255   1.321  14.031  0.7039 -0.2200  1.2768
  117CHL1   C2514909   3.187   1.156  13.899 -0.4392 -0.3986 -0.5162
  117CHL1   H2514910   3.146   1.054  13.918 -0.6954 -0.6013 -2.0433
  117CHL1   C2614911   3.081   1.227  13.816  0.0529 -0.2758 -0.0611
  117CHL1  H26A14912   3.120   1.328  13.795  1.3835 -0.6350  0.5558
  117CHL1  H26B14913   3.055   1.186  13.716  0.5194  4.3966 -2.3623
  117CHL1  H26C14914   2.989   1.228  13.879 -0.1195 -1.3242 -0.2785
  117CHL1   C2714915   3.310   1.146  13.809  0.0378  0.3644 -0.7406
  117CHL1  H27A14916   3.387   1.087  13.863  1.2387  2.8880  0.4971
  117CHL1  H27B14917   3.280   1.094  13.715 -1.1181  0.2434 -0.3155
  117CHL1  H27C14918   3.357   1.245  13.791 -0.7285  0.9170  0.1990
  118CHL1    C314919   5.886   2.087  15.638 -0.3100  0.3928  0.4744
  118CHL1    H314920   5.984   2.138  15.648 -0.8676  1.1359  2.7766
  118CHL1    O314921   5.857   2.067  15.771  0.2159 -0.5934  0.0409
  118CHL1   H3'14922   5.801   1.989  15.773  0.3476 -0.7240 -1.0475
  118CHL1    C414923   5.774   2.177  15.587  0.9980 -0.4830  0.2194
  118CHL1   H4A14924   5.676   2.127  15.603 -0.2879  2.1470  1.0867
  118CHL1   H4B14925   5.765   2.271  15.645 -1.6182 -0.4792 -0.0829
  118CHL1    C514926   5.789   2.196  15.437 -0.0616 -0.0765  0.2396
  118CHL1    C614927   5.799   2.319  15.376  0.1794  0.2160 -0.4367
  118CHL1    H614928   5.792   2.414  15.431 -0.3333 -0.9712  1.6206
  118CHL1    C714929   5.818   2.329  15.232  0.0719 -0.1693  0.6879
  118CHL1   H7A14930   5.762   2.414  15.188  1.2093  0.3568  0.2180
  118CHL1   H7B14931   5.924   2.360  15.216  0.2835  0.6510  3.1585
  118CHL1    C814932   5.776   2.206  15.150  0.5470 -0.4545  0.1943
  118CHL1    H814933   5.665   2.204  15.148  0.4249  2.3764 -1.7557
  118CHL1   C1414934   5.827   2.225  15.003  0.6310  0.1038 -0.5032
  118CHL1   H1414935   5.938   2.225  15.011  0.5394 -0.8466  1.4564
  118CHL1   C1514936   5.780   2.355  14.937 -0.4274 -0.1430  0.8648
  118CHL1  H15A14937   5.672   2.369  14.956 -0.2329  0.6250  1.4698
  118CHL1  H15B14938   5.834   2.446  14.972 -1.9234  0.7591  0.8857
  118CHL1   C1614939   5.800   2.325  14.792  0.2649  0.1230 -0.3061
  118CHL1  H16A14940   5.702   2.329  14.740 -0.8675  0.2625  1.7289
  118CHL1  H16B14941   5.873   2.387  14.735 -0.1820  0.6060 -0.3596
  118CHL1   C1714942   5.830   2.168  14.780  0.6919 -0.0280  0.4515
  118CHL1   H1714943   5.940   2.155  14.780  0.5295 -1.7941  2.0259
  118CHL1   C1314944   5.779   2.114  14.909 -0.2509  0.1135 -0.9451
  118CHL1   C1814945   5.624   2.097  14.906  0.2700 -0.6115 -0.1071
  118CHL1  H18A14946   5.596   2.021  14.830  0.4975 -0.2376 -0.5677
  118CHL1  H18B14947   5.591   2.054  15.003 -0.7052  0.2930 -0.0217
  118CHL1  H18C14948   5.566   2.189  14.883  0.6508 -0.5025 -0.6729
  118CHL1   C1214949   5.840   1.986  14.968 -0.6396  0.4672  0.1993
  118CHL1  H12A14950   5.819   1.901  14.900  3.3272 -0.6686  0.1497
  118CHL1  H12B14951   5.949   1.993  14.953 -0.3797 -1.3326  1.0228
  118CHL1   C1114952   5.818   1.953  15.114 -0.6557  0.2683  0.3969
  118CHL1  H11A14953   5.714   1.920  15.138 -0.8736  0.6467 -0.0063
  118CHL1  H11B14954   5.888   1.877  15.153 -1.3649  0.2576  1.7147
  118CHL1    C914955   5.837   2.079  15.210 -0.0850  0.3440  0.1129
  118CHL1    H914956   5.947   2.093  15.207 -0.0231 -0.2015 -0.2932
  118CHL1   C1014957   5.799   2.059  15.356 -0.7728 -1.0486 -0.1255
  118CHL1   C1914958   5.660   1.988  15.373 -0.0771 -0.5974 -0.3771
  118CHL1  H19A14959   5.628   1.982  15.480  0.6031 -2.1927 -0.2315
  118CHL1  H19B14960   5.584   2.040  15.310 -0.1692  0.4139  0.5328
  118CHL1  H19C14961   5.672   1.881  15.348  1.4897 -0.2827 -1.0462
  118CHL1    C114962   5.908   1.963  15.416 -0.0070 -0.1505  0.2775
  118CHL1   H1A14963   5.890   1.861  15.374  0.6246 -1.1241  2.2564
  118CHL1   H1B14964   6.006   2.004  15.385 -0.4019 -0.4610 -1.4988
  118CHL1    C214965   5.898   1.953  15.565 -0.0412 -0.2627  0.0378
  118CHL1   H2A14966   5.989   1.905  15.608 -0.6717 -0.5559  1.1058
  118CHL1   H2B14967   5.810   1.895  15.601 -0.9840  0.2528 -1.3729
  118CHL1   C2014968   5.790   2.111  14.644  0.5460 -0.2867 -0.1074
  118CHL1   H2014969   5.680   2.126  14.635  0.6065 -0.9279 -3.1471
  118CHL1   C2114970   5.817   1.956  14.642 -0.3188 -0.2457 -0.1288
  118CHL1  H21A14971   5.794   1.920  14.539 -1.0164 -2.2137  0.6642
  118CHL1  H21B14972   5.747   1.895  14.704  0.4450  1.2219  2.3070
  118CHL1  H21C14973   5.924   1.931  14.655 -0.0663  0.6017 -0.4953
  118CHL1   C2214974   5.855   2.186  14.523 -0.1619 -0.0851  0.5182
  118CHL1  H22A14975   5.833   2.294  14.528 -1.7372 -0.3873  0.7653
  118CHL1  H22B14976   5.966   2.179  14.521 -0.1655 -0.4620  1.1554
  118CHL1   C2314977   5.798   2.126  14.395 -0.2056 -0.6007  0.2886
  118CHL1  H23A14978   5.825   2.022  14.368 -0.4346 -0.4072 -0.7556
  118CHL1  H23B14979   5.687   2.136  14.399  0.0354  3.0654  1.3141
  118CHL1   C2414980   5.841   2.189  14.257 -0.5540 -0.1107 -0.0466
  118CHL1  H24A14981   5.801   2.292  14.270  0.7649  0.2642  1.3145
  118CHL1  H24B14982   5.951   2.183  14.244 -0.8100 -0.5948 -2.5334
  118CHL1   C2514983   5.771   2.116  14.137  0.2202  0.1345 -0.6923
  118CHL1   H2514984   5.662   2.118  14.157  0.3269 -0.1038 -0.0619
  118CHL1   C2614985   5.792   2.192  14.010  0.8976  0.3955  0.2658
  118CHL1  H26A14986   5.749   2.294  14.019 -1.3563 -0.4535 -0.1308
  118CHL1  H26B14987   5.899   2.192  13.979  0.7183 -0.7579 -0.4289
  118CHL1  H26C14988   5.744   2.143  13.922  1.7025  1.2558 -0.6901
  118CHL1   C2714989   5.810   1.967  14.112  0.5454 -0.4861 -0.5792
  118CHL1  H27A14990   5.756   1.892  14.174 -2.1588  2.1503  0.5213
  118CHL1  H27B14991   5.773   1.943  14.010 -0.9372  0.6376 -0.3563
  118CHL1  H27C14992   5.920   1.958  14.118  0.5036 -0.3670  2.7948
  119CHL1    C314993   6.706   0.923  15.541 -0.1832 -0.6530 -0.0896
  119CHL1    H314994   6.676   1.030  15.544 -0.4799 -0.7491  0.4185
  119CHL1    O314995   6.697   0.874  15.671 -0.2599 -0.3163  0.1373
  119CHL1   H3'14996   6.720   0.783  15.654  2.0024  0.3455 -0.8273
  119CHL1    C414997   6.606   0.842  15.455 -0.3274  0.3481 -0.4510
  119CHL1   H4A14998   6.622   0.734  15.476  0.8276  0.9217  2.0873
  119CHL1   H4B14999   6.505   0.853  15.500 -0.7460 -2.7052 -0.4189
  119CHL1    C515000   6.613   0.876  15.308  0.2242 -0.4991 -0.8029
  119CHL1    C615001   6.494   0.903  15.247  0.1766 -0.0098 -0.0261
  119CHL1    H615002   6.399   0.903  15.302 -0.3423 -1.5725 -0.8482
  119CHL1    C715003   6.477   0.921  15.096 -0.0612 -0.8475 -0.1506
  119CHL1   H7A15004   6.409   0.844  15.054 -0.5907 -1.8861  2.4328
  119CHL1   H7B15005   6.450   1.026  15.072 -0.1030 -1.6061 -4.0106
  119CHL1    C815006   6.617   0.907  15.028 -0.1164 -0.7044  0.6116
  119CHL1    H815007   6.626   0.799  15.002 -1.2258 -0.8820  0.9352
  119CHL1   C1415008   6.616   0.985  14.892  0.4829 -0.7034 -0.4863
  119CHL1   H1415009   6.611   1.091  14.924 -1.1308 -0.7704 -0.4689
  119CHL1   C1515010   6.498   0.973  14.795 -0.2298 -0.7321 -0.0576
  119CHL1  H15A15011   6.447   0.877  14.773 -3.7218  0.5963  1.4286
  119CHL1  H15B15012   6.435   1.053  14.839  1.7696 -0.1473  1.9560
  119CHL1   C1615013   6.546   1.051  14.670  0.4511 -0.2987 -0.3204
  119CHL1  H16A15014   6.528   0.988  14.581  0.0170  0.8474 -1.0743
  119CHL1  H16B15015   6.499   1.151  14.654  1.2570  0.0326 -0.6596
  119CHL1   C1715016   6.701   1.072  14.693  0.1573 -0.4153 -0.0618
  119CHL1   H1715017   6.716   1.177  14.723  3.1310 -1.2155  1.7214
  119CHL1   C1315018   6.742   0.977  14.809  0.3389  0.2294 -0.3308
  119CHL1   C1815019   6.772   0.836  14.758 -0.0455 -0.3615 -0.2195
  119CHL1  H18A15020   6.781   0.770  14.846  0.3139 -1.9161 -1.3828
  119CHL1  H18B15021   6.690   0.791  14.698  0.6513 -1.0827 -0.6472
  119CHL1  H18C15022   6.867   0.836  14.701  0.0271  2.2358 -0.2433
  119CHL1   C1215023   6.848   1.033  14.894 -0.4617 -0.3171  0.3632
  119CHL1  H12A15024   6.946   1.021  14.842 -0.4061 -0.5995  0.5301
  119CHL1  H12B15025   6.838   1.143  14.903 -0.2084 -0.3033  0.4813
  119CHL1   C1115026   6.865   0.962  15.029 -0.1082 -0.4207 -0.2149
  119CHL1  H11A15027   6.916   0.865  15.011  1.1951 -0.2046  1.9178
  119CHL1  H11B15028   6.943   1.002  15.097  0.6688 -0.5387 -1.0148
  119CHL1    C915029   6.733   0.956  15.116 -1.0725 -0.1941  0.1744
  119CHL1    H915030   6.705   1.063  15.125  0.4278  0.2224  0.1505
  119CHL1   C1015031   6.753   0.882  15.250 -0.1737  0.0636  0.0524
  119CHL1   C1915032   6.796   0.737  15.225  0.0353 -0.4212 -0.5235
  119CHL1  H19A15033   6.799   0.678  15.319 -0.7544  0.3990  0.0392
  119CHL1  H19B15034   6.735   0.685  15.149 -0.7290  0.1593 -0.3236
  119CHL1  H19C15035   6.899   0.742  15.184  0.1865  1.2097 -0.0337
  119CHL1    C115036   6.860   0.956  15.345  0.1476 -0.2990 -0.0674
  119CHL1   H1A15037   6.964   0.935  15.313  1.7397  2.8369  2.5673
  119CHL1   H1B15038   6.826   1.061  15.338  0.7671 -0.1960 -1.9834
  119CHL1    C215039   6.849   0.916  15.499 -0.1280 -0.1683  0.5677
  119CHL1   H2A15040   6.913   0.986  15.556 -2.0635  2.7398 -0.5641
  119CHL1   H2B15041   6.888   0.812  15.504 -0.9498 -0.5525 -0.3543
  119CHL1   C2015042   6.777   1.057  14.561  0.8948  0.9953  0.6030
  119CHL1   H2015043   6.761   0.953  14.525 -0.1841  1.4259 -0.2174
  119CHL1   C2115044   6.925   1.084  14.580  0.3069  0.1357  0.3128
  119CHL1  H21A15045   6.942   1.190  14.611  1.2480  0.2386 -0.5056
  119CHL1  H21B15046   6.984   1.072  14.487  0.1310 -3.4521  0.5345
  119CHL1  H21C15047   6.985   1.016  14.644 -0.9788 -1.1544  0.2063
  119CHL1   C2215048   6.726   1.160  14.442  0.3468 -0.4574  0.6153
  119CHL1  H22A15049   6.615   1.155  14.436  0.3586  0.3473 -0.9729
  119CHL1  H22B15050   6.739   1.268  14.468 -0.0568 -0.7727  2.2246
  119CHL1   C2315051   6.774   1.112  14.308 -0.1074 -0.1995  0.3149
  119CHL1  H23A15052   6.875   1.160  14.307 -1.1362  2.1751  1.8888
  119CHL1  H23B15053   6.778   1.001  14.305  0.9408 -0.1645 -0.5411
  119CHL1   C2415054   6.688   1.163  14.186  0.9646 -0.6117  0.0636
  119CHL1  H24A15055   6.585   1.127  14.205  0.8545 -1.1508 -1.4324
  119CHL1  H24B15056   6.695   1.273  14.199  1.1711 -0.9418  3.8444
  119CHL1   C2515057   6.733   1.117  14.043 -0.1409 -0.1043 -0.6267
  119CHL1   H2515058   6.839   1.148  14.036 -0.0946 -0.3667 -1.2137
  119CHL1   C2615059   6.722   0.963  14.032 -1.0412 -0.7603 -0.7326
  119CHL1  H26A15060   6.793   0.909  14.099 -0.1565  0.6601 -0.5029
  119CHL1  H26B15061   6.621   0.929  14.063 -1.0357 -1.0619 -1.0478
  119CHL1  H26C15062   6.749   0.925  13.931 -0.9867  0.5221 -1.2169
  119CHL1   C2715063   6.654   1.192  13.931  0.6852 -0.1515 -0.4768
  119CHL1  H27A15064   6.680   1.156  13.829  0.1395  0.1493 -0.7298
  119CHL1  H27B15065   6.547   1.179  13.960  0.1897  2.5274 -0.8263
  119CHL1  H27C15066   6.678   1.299  13.942  0.7092 -0.3907  2.4972
  120CHL1    C315067   5.150   1.305  15.316 -0.2609  1.1440 -0.2859
  120CHL1    H315068   5.048   1.341  15.342 -0.3353  1.6146 -1.1960
  120CHL1    O315069   5.212   1.263  15.439 -0.6522 -0.0200 -0.4659
  120CHL1   H3'15070   5.198   1.333  15.503 -1.4547  1.8921 -2.5933
  120CHL1    C415071   5.140   1.190  15.220 -0.4109 -0.1662 -0.4437
  120CHL1   H4A15072   5.238   1.139  15.208  0.3752  1.0436  0.5564
  120CHL1   H4B15073   5.069   1.117  15.264 -0.0962  0.9642  2.1370
  120CHL1    C515074   5.098   1.235  15.086 -1.3378 -0.1214 -0.0989
  120CHL1    C615075   4.996   1.177  15.028  0.8793  0.5433 -0.0241
  120CHL1    H615076   4.954   1.092  15.083  1.8238 -0.2010 -0.4284
  120CHL1    C715077   4.953   1.206  14.887 -0.1788 -0.4088  0.4674
  120CHL1   H7A15078   4.932   1.113  14.830  0.8699 -0.2752 -0.1662
  120CHL1   H7B15079   4.865   1.272  14.874 -0.0837 -0.6434 -1.8953
  120CHL1    C815080   5.076   1.268  14.811  0.5228 -0.1913 -0.5570
  120CHL1    H815081   5.152   1.186  14.810  0.2741 -0.5389  2.2007
  120CHL1   C1415082   5.030   1.309  14.671 -0.6622 -0.0299 -0.2660
  120CHL1   H1415083   4.943   1.377  14.687 -1.4811 -1.2236  0.5422
  120CHL1   C1515084   4.980   1.204  14.568 -0.0918 -0.3853 -0.2425
  120CHL1  H15A15085   5.049   1.117  14.562 -0.2238 -0.6761  1.6765
  120CHL1  H15B15086   4.879   1.157  14.581 -0.0271 -1.6333 -3.3795
  120CHL1   C1615087   4.987   1.278  14.428  0.2634  1.1794 -0.9945
  120CHL1  H16A15088   5.047   1.203  14.372  0.2919 -0.6292  1.2977
  120CHL1  H16B15089   4.889   1.295  14.379 -1.4161 -1.9473  0.9006
  120CHL1   C1715090   5.070   1.408  14.454  0.1882  0.4132  0.1902
  120CHL1   H1715091   4.994   1.486  14.476  1.2015  1.4545  0.1002
  120CHL1   C1315092   5.136   1.387  14.590 -0.4520  0.6194 -0.0159
  120CHL1   C1815093   5.260   1.299  14.566  0.6913 -0.0518 -0.4447
  120CHL1  H18A15094   5.233   1.207  14.509  1.7560  0.4751 -1.8738
  120CHL1  H18B15095   5.314   1.357  14.488  0.4409  0.9935  0.1460
  120CHL1  H18C15096   5.321   1.282  14.657 -1.6294  0.7706  1.3531
  120CHL1   C1215097   5.187   1.509  14.663  0.5300  0.1302  0.3028
  120CHL1  H12A15098   5.275   1.552  14.611 -0.3340 -0.2684 -1.5698
  120CHL1  H12B15099   5.110   1.587  14.683  0.7494 -0.0822  2.2166
  120CHL1   C1115100   5.236   1.478  14.804  0.0572 -1.3976 -0.0769
  120CHL1  H11A15101   5.334   1.427  14.788  0.1854 -1.1660 -0.0261
  120CHL1  H11B15102   5.258   1.572  14.858 -1.5544 -0.9148 -0.2144
  120CHL1    C915103   5.136   1.394  14.885  0.4162 -0.1130 -0.5710
  120CHL1    H915104   5.047   1.457  14.903  1.0925  0.1383  2.3780
  120CHL1   C1015105   5.188   1.345  15.025  0.0221  0.3105  0.2585
  120CHL1   C1915106   5.332   1.287  14.996  0.2744  0.3757 -0.0973
  120CHL1  H19A15107   5.376   1.226  15.079  1.1635 -0.9118 -1.4675
  120CHL1  H19B15108   5.337   1.222  14.906  1.6924 -1.7011  1.3550
  120CHL1  H19C15109   5.400   1.373  14.978 -0.2923  1.0988  1.0769
  120CHL1    C115110   5.191   1.459  15.124 -0.4315  0.5455 -0.5355
  120CHL1   H1A15111   5.250   1.547  15.090 -0.5601  0.8188 -0.0636
  120CHL1   H1B15112   5.089   1.502  15.138 -0.0935  0.4108  3.7561
  120CHL1    C215113   5.234   1.423  15.268 -0.0769 -0.0171 -0.2250
  120CHL1   H2A15114   5.205   1.505  15.338  0.2556 -1.9464  2.3056
  120CHL1   H2B15115   5.341   1.399  15.280 -0.4852 -1.8534 -0.0665
  120CHL1   C2015116   5.136   1.453  14.321  0.5857  0.2007  0.5482
  120CHL1   H2015117   5.220   1.385  14.297 -0.3441 -0.1827 -1.9446
  120CHL1   C2115118   5.172   1.598  14.341  0.0582  0.1705  0.2906
  120CHL1  H21A15119   5.236   1.610  14.430 -1.6116  1.0103  1.4352
  120CHL1  H21B15120   5.081   1.656  14.369  1.0050  0.6762  2.5534
  120CHL1  H21C15121   5.228   1.644  14.257  2.5984 -1.4273  1.0226
  120CHL1   C2215122   5.043   1.446  14.191 -0.3553 -0.0499  0.3723
  120CHL1  H22A15123   5.004   1.344  14.173 -0.9431  0.1287  0.6094
  120CHL1  H22B15124   4.971   1.529  14.208 -0.1293  0.4350 -0.9417
  120CHL1   C2315125   5.109   1.500  14.061 -0.8218 -0.5415  0.2744
  120CHL1  H23A15126   5.031   1.513  13.983  0.5540  0.8631 -0.9201
  120CHL1  H23B15127   5.144   1.603  14.083 -1.1135  0.3304 -2.8771
  120CHL1   C2415128   5.230   1.417  14.016  0.2893 -0.0432 -0.3692
  120CHL1  H24A15129   5.292   1.430  14.108 -3.9870  0.7273  2.7371
  120CHL1  H24B15130   5.201   1.310  14.008 -1.4311  0.2010  1.5439
  120CHL1   C2515131   5.298   1.469  13.891  0.2886 -0.3375 -0.0970
  120CHL1   H2515132   5.353   1.562  13.917 -0.9327 -0.2156  2.2980
  120CHL1   C2615133   5.401   1.380  13.838 -0.2344 -0.3278 -0.5358
  120CHL1  H26A15134   5.365   1.291  13.783 -0.0975 -0.5889 -0.2082
  120CHL1  H26B15135   5.468   1.429  13.764  0.5933  1.5055  1.3181
  120CHL1  H26C15136   5.468   1.357  13.924 -0.6155  1.5964  0.3231
  120CHL1   C2715137   5.200   1.519  13.781 -0.9021  0.7983  1.0225
  120CHL1  H27A15138   5.121   1.588  13.818 -0.9166  0.9915  0.6339
  120CHL1  H27B15139   5.253   1.564  13.694 -0.5772 -0.6318  0.4610
  120CHL1  H27C15140   5.144   1.429  13.748  0.8734 -0.6539  1.7847
  121CHL1    C315141   2.966   5.391  12.173 -0.1705  0.1991 -0.2597
  121CHL1    H315142   2.937   5.495  12.196 -2.8848 -0.4264 -0.5721
  121CHL1    O315143   2.986   5.381  12.033 -0.6599  0.2023  0.5452
  121CHL1   H3'15144   3.026   5.294  12.026  0.3156  0.6927 -0.2094
  121CHL1    C415145   3.111   5.361  12.235  0.0785 -0.0859  0.0863
  121CHL1   H4A15146   3.145   5.261  12.200  0.0292 -0.1359  0.1800
  121CHL1   H4B15147   3.180   5.433  12.188  0.1683  0.8559  1.6029
  121CHL1    C515148   3.105   5.360  12.386 -0.9157 -0.4145 -0.0627
  121CHL1    C615149   3.194   5.429  12.464  0.5188 -0.5148  0.0083
  121CHL1    H615150   3.268   5.489  12.409  1.2357 -1.6309 -0.2793
  121CHL1    C715151   3.202   5.432  12.618 -0.3170  0.2753  0.6689
  121CHL1   H7A15152   3.304   5.413  12.659 -1.1253 -2.1095  1.7780
  121CHL1   H7B15153   3.166   5.529  12.656  0.7450  1.0296 -0.1788
  121CHL1    C815154   3.120   5.321  12.674 -0.2568 -0.5550  0.2161
  121CHL1    H815155   3.172   5.224  12.664  0.0362 -0.3749 -0.0178
  121CHL1   C1415156   3.099   5.349  12.823 -0.5494  0.0475 -0.6667
  121CHL1   H1415157   3.037   5.441  12.832 -2.0615 -1.0247  0.4049
  121CHL1   C1515158   3.228   5.378  12.902 -0.5892 -0.1560 -0.3392
  121CHL1  H15A15159   3.303   5.300  12.875 -0.4009  0.9671 -3.4777
  121CHL1  H15B15160   3.261   5.483  12.891  0.2339 -0.5726 -2.1337
  121CHL1   C1615161   3.174   5.360  13.047 -0.1193  0.1064  0.0801
  121CHL1  H16A15162   3.241   5.292  13.104  0.1759 -0.3988 -0.8494
  121CHL1  H16B15163   3.160   5.457  13.099 -2.3548 -0.8944  1.4787
  121CHL1   C1715164   3.023   5.303  13.039 -0.6717  0.4684 -0.1814
  121CHL1   H1715165   2.945   5.382  13.047 -1.2634 -0.1888  0.8269
  121CHL1   C1315166   3.016   5.251  12.900  0.3314 -0.1023 -0.4261
  121CHL1   C1815167   3.085   5.107  12.896 -0.3695 -0.3671 -0.4495
  121CHL1  H18A15168   3.104   5.092  12.787  0.8602  0.5968 -0.3954
  121CHL1  H18B15169   3.182   5.099  12.949 -1.1649 -2.8421  0.7442
  121CHL1  H18C15170   3.014   5.029  12.930  0.0476 -0.6252 -0.1701
  121CHL1   C1215171   2.876   5.248  12.831 -0.4306  0.9992  0.6398
  121CHL1  H12A15172   2.821   5.162  12.875 -0.0303  1.7835  2.7907
  121CHL1  H12B15173   2.813   5.338  12.848 -2.1204  0.0524 -0.3464
  121CHL1   C1115174   2.887   5.221  12.681  0.5037 -0.0498  0.2463
  121CHL1  H11A15175   2.913   5.114  12.668  2.3360  0.3761  0.1487
  121CHL1  H11B15176   2.790   5.248  12.635 -1.1136 -1.6524  2.4794
  121CHL1    C915177   2.982   5.313  12.610  0.3110 -0.5536 -0.3088
  121CHL1    H915178   2.947   5.418  12.609 -1.5543 -1.0867  1.4386
  121CHL1   C1015179   2.997   5.276  12.456 -0.6629  0.0791 -0.0792
  121CHL1   C1915180   3.042   5.130  12.428  0.1581 -0.5641 -0.4193
  121CHL1  H19A15181   3.042   5.097  12.322 -0.5389 -0.3393 -0.4934
  121CHL1  H19B15182   3.142   5.116  12.475  0.0487  0.9645  0.3591
  121CHL1  H19C15183   2.972   5.064  12.484  2.9446 -0.6159  3.4440
  121CHL1    C115184   2.863   5.302  12.381 -0.0783 -0.7230 -0.3435
  121CHL1   H1A15185   2.780   5.240  12.420  1.1611 -0.9385  2.1397
  121CHL1   H1B15186   2.837   5.406  12.412 -1.7136 -1.0667 -0.4748
  121CHL1    C215187   2.860   5.293  12.225 -0.1007 -0.2320  0.0534
  121CHL1   H2A15188   2.758   5.322  12.191  0.2690 -0.8565 -1.6808
  121CHL1   H2B15189   2.873   5.184  12.208 -1.6072 -0.3288 -0.6944
  121CHL1   C2015190   2.999   5.211  13.160 -0.0544  0.4353  0.3583
  121CHL1   H2015191   3.064   5.121  13.161 -1.0447 -0.6828 -5.1379
  121CHL1   C2115192   2.855   5.155  13.153 -0.4886  0.0746 -0.1541
  121CHL1  H21A15193   2.847   5.085  13.238  1.3681  0.8987  0.7472
  121CHL1  H21B15194   2.860   5.095  13.059 -0.4040 -0.4981  0.2167
  121CHL1  H21C15195   2.774   5.231  13.156  0.2038  0.9010 -1.4177
  121CHL1   C2215196   3.003   5.286  13.292 -0.1754  0.1577 -0.1385
  121CHL1  H22A15197   3.099   5.340  13.300  0.5711 -1.3816  2.6942
  121CHL1  H22B15198   2.928   5.368  13.298  0.2095  0.4462  1.1944
  121CHL1   C2315199   2.999   5.195  13.422  0.3721  0.3559  0.0547
  121CHL1  H23A15200   2.894   5.165  13.443  1.6436 -5.0143  0.1820
  121CHL1  H23B15201   3.046   5.097  13.398 -0.0912 -0.2395  1.4332
  121CHL1   C2415202   3.085   5.267  13.529 -0.1445 -0.0479 -0.4508
  121CHL1  H24A15203   3.138   5.356  13.488 -0.8592 -0.4519 -2.3683
  121CHL1  H24B15204   3.005   5.300  13.598 -2.0233 -1.0796 -2.0269
  121CHL1   C2515205   3.189   5.176  13.603 -0.0074  0.0868  0.3960
  121CHL1   H2515206   3.221   5.240  13.688  2.5059 -1.7055  0.9062
  121CHL1   C2615207   3.135   5.040  13.651 -0.4871  0.3533 -0.0433
  121CHL1  H26A15208   3.125   4.969  13.565  1.1454 -1.3827  1.1270
  121CHL1  H26B15209   3.212   4.995  13.717 -0.7692  0.5373  0.4114
  121CHL1  H26C15210   3.037   5.048  13.703  0.1888  0.0696  1.3239
  121CHL1   C2715211   3.318   5.157  13.516 -0.1079  1.2958 -0.2537
  121CHL1  H27A15212   3.357   5.251  13.472  2.3778  2.0454  3.1675
  121CHL1  H27B15213   3.404   5.126  13.579 -0.6856 -1.8039 -0.8452
  121CHL1  H27C15214   3.290   5.079  13.441 -1.1677  1.9297 -0.5467
  122CHL1    C315215   2.210   5.682  11.594  0.6357 -0.5900  0.0957
  122CHL1    H315216   2.317   5.677  11.626  0.4964  0.9805  0.9151
  122CHL1    O315217   2.199   5.708  11.457 -0.3920 -0.3076 -0.0112
  122CHL1   H3'15218   2.291   5.716  11.428  0.1122 -2.8075  0.6911
  122CHL1    C415219   2.144   5.547  11.630  0.6373  0.2819  0.4129
  122CHL1   H4A15220   2.046   5.551  11.577  1.3232  0.6812 -0.8669
  122CHL1   H4B15221   2.207   5.470  11.580  1.7600 -0.1302  2.3536
  122CHL1    C515222   2.134   5.518  11.784  0.7434  0.0779  0.0675
  122CHL1    C615223   2.181   5.408  11.837 -0.0258  0.0193  0.2239
  122CHL1    H615224   2.223   5.328  11.774 -1.6229 -1.7493  1.2583
  122CHL1    C715225   2.179   5.374  11.983 -0.0836  0.7962 -0.1042
  122CHL1   H7A15226   2.136   5.272  12.000 -2.6637  2.1506  2.3590
  122CHL1   H7B15227   2.286   5.373  12.013  0.2598  1.6151 -1.2554
  122CHL1    C815228   2.101   5.477  12.066  0.0522  0.0972  0.1116
  122CHL1    H815229   1.993   5.453  12.056  0.4079 -1.3649 -0.4374
  122CHL1   C1415230   2.139   5.470  12.218 -0.2141 -0.2817  0.5347
  122CHL1   H1415231   2.247   5.499  12.221 -0.0187 -0.4472 -2.2361
  122CHL1   C1515232   2.135   5.328  12.285 -0.7138 -0.0339 -0.1601
  122CHL1  H15A15233   2.049   5.279  12.234  1.6378 -3.1227 -1.4977
  122CHL1  H15B15234   2.226   5.274  12.250 -2.1161 -1.7862 -1.2764
  122CHL1   C1615235   2.122   5.355  12.435  0.3333 -0.3063  0.4876
  122CHL1  H16A15236   2.032   5.313  12.485  0.8103  0.7114  2.2590
  122CHL1  H16B15237   2.215   5.337  12.494  0.4716  0.7473  0.6019
  122CHL1   C1715238   2.108   5.514  12.451  0.0471  0.4148  0.3178
  122CHL1   H1715239   2.210   5.560  12.453 -0.0902  0.7226  2.0598
  122CHL1   C1315240   2.061   5.559  12.311  0.0996 -0.1618  0.1058
  122CHL1   C1815241   1.908   5.536  12.299 -0.5886  0.1924  0.7552
  122CHL1  H18A15242   1.875   5.542  12.193  1.4281  3.0432  0.1944
  122CHL1  H18B15243   1.877   5.439  12.343 -0.2211 -0.2842 -0.0202
  122CHL1  H18C15244   1.855   5.612  12.361 -0.8379 -0.1273  0.9394
  122CHL1   C1215245   2.090   5.706  12.262 -0.3007 -0.0012 -0.6898
  122CHL1  H12A15246   2.026   5.771  12.325 -0.0289 -1.0077  0.6704
  122CHL1  H12B15247   2.193   5.731  12.296 -1.3961  1.8487  1.6074
  122CHL1   C1115248   2.070   5.729  12.113  0.6663  0.8634 -0.0698
  122CHL1  H11A15249   1.961   5.730  12.096  0.8792  0.2055 -1.5970
  122CHL1  H11B15250   2.101   5.832  12.085  1.3551  0.7348  0.1885
  122CHL1    C915251   2.123   5.620  12.021 -0.2586 -0.3860 -0.2659
  122CHL1    H915252   2.233   5.628  12.016 -0.3377  1.0426 -0.0890
  122CHL1   C1015253   2.085   5.634  11.872  0.6007 -0.9608 -0.0765
  122CHL1   C1915254   1.930   5.626  11.854 -0.1144 -0.2205 -0.0726
  122CHL1  H19A15255   1.899   5.525  11.887  0.0502 -0.6436 -1.1932
  122CHL1  H19B15256   1.869   5.700  11.912 -1.3082  0.1228 -1.6929
  122CHL1  H19C15257   1.894   5.642  11.751  0.6344  0.5633 -0.2286
  122CHL1    C115258   2.141   5.769  11.818  0.0854  0.2284 -0.0388
  122CHL1   H1A15259   2.077   5.849  11.861 -1.6767 -2.1318  2.0378
  122CHL1   H1B15260   2.242   5.783  11.863  0.1298 -1.0124  0.3054
  122CHL1    C215261   2.136   5.792  11.667 -0.3388  0.6734  0.7739
  122CHL1   H2A15262   2.171   5.894  11.642 -0.6785  1.1111  1.9828
  122CHL1   H2B15263   2.030   5.789  11.635 -0.1897  0.9114  0.2521
  122CHL1   C2015264   2.033   5.547  12.582 -0.1363 -0.2221  0.4208
  122CHL1   H2015265   1.929   5.509  12.590  0.2902 -1.7903 -0.8704
  122CHL1   C2115266   2.023   5.702  12.602  0.0734 -0.5510 -0.7107
  122CHL1  H21A15267   1.961   5.744  12.520 -2.4348 -0.5604  1.0453
  122CHL1  H21B15268   2.118   5.759  12.598 -0.2059 -0.0505 -0.3137
  122CHL1  H21C15269   1.972   5.738  12.694  1.0786 -0.5739 -0.1386
  122CHL1   C2215270   2.123   5.490  12.702  0.1726 -0.5713  0.8347
  122CHL1  H22A15271   2.130   5.381  12.684 -1.0651 -0.4730 -0.4048
  122CHL1  H22B15272   2.225   5.535  12.701  0.3907 -0.8153 -3.2949
  122CHL1   C2315273   2.055   5.512  12.838  0.5372  0.3839 -0.9397
  122CHL1  H23A15274   2.046   5.623  12.850  0.1736  0.3193 -0.6059
  122CHL1  H23B15275   1.955   5.466  12.832  0.6626  0.0771 -0.7014
  122CHL1   C2415276   2.131   5.455  12.959 -0.3580 -0.5609 -0.6776
  122CHL1  H24A15277   2.149   5.349  12.934 -0.3258 -0.3849 -1.3998
  122CHL1  H24B15278   2.231   5.503  12.958 -0.8634  0.6409  1.1209
  122CHL1   C2515279   2.062   5.465  13.097  0.9076 -0.3372 -0.4710
  122CHL1   H2515280   2.078   5.568  13.136 -2.0114  0.1928 -0.4582
  122CHL1   C2615281   1.907   5.456  13.091 -0.8349 -0.5905  0.2513
  122CHL1  H26A15282   1.856   5.455  13.190 -1.5230 -0.4928 -0.1006
  122CHL1  H26B15283   1.870   5.546  13.037  0.1480  0.0375  0.5727
  122CHL1  H26C15284   1.876   5.368  13.032 -2.5745  0.6228 -0.6999
  122CHL1   C2715285   2.123   5.360  13.197  0.3352 -0.6840 -0.0170
  122CHL1  H27A15286   2.134   5.412  13.295 -2.1927 -1.3434  0.6937
  122CHL1  H27B15287   2.071   5.263  13.208  0.7180 -0.9211 -0.2783
  122CHL1  H27C15288   2.227   5.347  13.160  0.6817  0.6387  0.4382
  123CHL1    C315289   4.419   5.556  11.613  0.7467 -0.0490  0.5100
  123CHL1    H315290   4.493   5.473  11.614 -0.5735 -1.2835  0.6501
  123CHL1    O315291   4.378   5.583  11.477  0.8854 -0.1787 -0.2395
  123CHL1   H3'15292   4.434   5.649  11.436 -1.1299  0.6741 -1.7606
  123CHL1    C415293   4.300   5.499  11.688  1.2634  0.3644 -0.7107
  123CHL1   H4A15294   4.218   5.574  11.691 -0.2251 -1.1838  2.0684
  123CHL1   H4B15295   4.256   5.408  11.642  1.1210  0.7264 -1.3048
  123CHL1    C515296   4.343   5.481  11.830 -0.4991  0.2803  0.2933
  123CHL1    C615297   4.335   5.357  11.889  0.7629 -0.1901 -0.0303
  123CHL1    H615298   4.317   5.262  11.838 -2.1427 -0.5930  1.5484
  123CHL1    C715299   4.360   5.334  12.042  0.6921  0.7621  0.2320
  123CHL1   H7A15300   4.278   5.273  12.083  2.3246 -1.1044  0.8850
  123CHL1   H7B15301   4.451   5.270  12.049 -0.6045 -1.1544  0.3622
  123CHL1    C815302   4.363   5.470  12.119  0.2442 -0.3108  0.2521
  123CHL1    H815303   4.258   5.507  12.121  0.9036  1.7249 -0.8396
  123CHL1   C1415304   4.414   5.440  12.266 -0.3262  0.6027 -0.6384
  123CHL1   H1415305   4.519   5.403  12.256 -0.0329  1.1471  0.3509
  123CHL1   C1515306   4.347   5.327  12.359 -0.4405 -0.3288  0.4979
  123CHL1  H15A15307   4.241   5.312  12.330  0.4079 -1.4191 -2.3575
  123CHL1  H15B15308   4.397   5.231  12.333  0.2446  0.5323 -1.6430
  123CHL1   C1615309   4.378   5.370  12.504 -0.5442 -0.3746 -0.1796
  123CHL1  H16A15310   4.283   5.397  12.554 -0.8930 -0.1746 -0.9445
  123CHL1  H16B15311   4.432   5.289  12.559 -3.3137 -1.6173  0.8822
  123CHL1   C1715312   4.473   5.499  12.481  0.4826 -0.5009  0.4488
  123CHL1   H1715313   4.576   5.459  12.470  0.1381 -1.3043  0.0444
  123CHL1   C1315314   4.428   5.560  12.352  0.2320 -0.2903  0.0389
  123CHL1   C1815315   4.287   5.623  12.373 -0.2192 -0.3190  0.2620
  123CHL1  H18A15316   4.249   5.654  12.273  2.7213 -1.8568 -1.4539
  123CHL1  H18B15317   4.215   5.545  12.405  1.6526 -1.7015  1.2861
  123CHL1  H18C15318   4.292   5.711  12.441 -0.1083  1.5786 -2.0221
  123CHL1   C1215319   4.527   5.660  12.280 -0.3884 -0.3128  0.4589
  123CHL1  H12A15320   4.524   5.761  12.326  0.2161  0.6892 -1.5921
  123CHL1  H12B15321   4.632   5.627  12.261 -0.7745 -0.3977 -1.6866
  123CHL1   C1115322   4.476   5.703  12.137  0.2827  0.0013  0.2952
  123CHL1  H11A15323   4.388   5.770  12.153 -0.4912 -0.4129 -1.8009
  123CHL1  H11B15324   4.552   5.764  12.084 -0.7785  1.2063  0.1100
  123CHL1    C915325   4.442   5.578  12.049 -0.4259  0.2184  0.2270
  123CHL1    H915326   4.544   5.536  12.032 -0.0918  1.3114 -0.6386
  123CHL1   C1015327   4.389   5.606  11.903 -0.2521  0.6988 -0.4376
  123CHL1   C1915328   4.274   5.713  11.912  0.2713  0.2356 -0.0149
  123CHL1  H19A15329   4.320   5.806  11.951 -0.7966  1.0391 -0.6173
  123CHL1  H19B15330   4.221   5.745  11.820 -1.9173  2.4235  1.8626
  123CHL1  H19C15331   4.203   5.668  11.985 -1.5954  1.2789 -1.1021
  123CHL1    C115332   4.501   5.675  11.822  0.1438  0.7012 -0.1395
  123CHL1   H1A15333   4.544   5.771  11.860 -1.1033  0.9390  0.7470
  123CHL1   H1B15334   4.584   5.603  11.840 -0.9893 -0.8388 -0.8133
  123CHL1    C215335   4.472   5.687  11.673 -0.2244 -0.3845 -0.0276
  123CHL1   H2A15336   4.562   5.712  11.612 -0.7598 -2.2708 -1.7206
  123CHL1   H2B15337   4.407   5.776  11.663  0.9523  0.7687  1.8702
  123CHL1   C2015338   4.489   5.593  12.598  0.3660 -0.4839  0.2532
  123CHL1   H2015339   4.411   5.672  12.594  0.3445 -0.4383  1.2604
  123CHL1   C2115340   4.622   5.669  12.582 -0.8645 -0.0286  0.2740
  123CHL1  H21A15341   4.612   5.751  12.508 -0.3721 -0.8393 -0.7031
  123CHL1  H21B15342   4.702   5.598  12.551 -0.1217  1.2106 -0.7277
  123CHL1  H21C15343   4.655   5.722  12.674 -0.5464 -1.7103  1.1697
  123CHL1   C2215344   4.463   5.526  12.729  0.0371  0.1048 -0.0387
  123CHL1  H22A15345   4.353   5.512  12.740  0.2437  0.4264  4.0507
  123CHL1  H22B15346   4.511   5.427  12.744  0.4471  0.5585  1.9305
  123CHL1   C2315347   4.497   5.609  12.853 -0.2365 -0.9446 -0.2557
  123CHL1  H23A15348   4.607   5.624  12.858 -0.3371 -0.3401  0.3345
  123CHL1  H23B15349   4.451   5.711  12.847  1.7141  0.0976  1.2444
  123CHL1   C2415350   4.453   5.545  12.985  0.2594 -0.4632  0.0298
  123CHL1  H24A15351   4.343   5.533  12.980  0.3436 -1.0091 -0.6636
  123CHL1  H24B15352   4.502   5.447  13.003  2.7964  1.0431  2.0163
  123CHL1   C2515353   4.487   5.628  13.109  0.1406  0.4173 -0.4687
  123CHL1   H2515354   4.418   5.715  13.110 -0.1270  0.2051 -0.6221
  123CHL1   C2615355   4.446   5.551  13.235 -0.4402  0.1803 -0.6151
  123CHL1  H26A15356   4.516   5.466  13.250  1.0189  0.5004 -4.3347
  123CHL1  H26B15357   4.454   5.617  13.324  0.0904 -0.4071 -0.2201
  123CHL1  H26C15358   4.342   5.515  13.222 -0.3841 -0.9976  1.7872
  123CHL1   C2715359   4.633   5.666  13.119 -1.0437 -0.5251 -0.5538
  123CHL1  H27A15360   4.662   5.726  13.208 -1.4004 -0.8332 -0.2281
  123CHL1  H27B15361   4.693   5.573  13.103  0.0529  0.0511  0.0580
  123CHL1  H27C15362   4.665   5.727  13.032 -1.1528 -0.6955 -0.7156
  124CHL1    C315363   2.635   6.341  12.004 -0.6085  0.2521  0.1250
  124CHL1    H315364   2.565   6.255  12.002  0.1208 -0.3390 -1.5293
  124CHL1    O315365   2.644   6.387  11.867 -0.4753 -0.7043  0.2175
  124CHL1   H3'15366   2.692   6.470  11.866 -1.6332 -0.0062 -0.2498
  124CHL1    C415367   2.580   6.454  12.088 -0.2397 -0.8166  0.0229
  124CHL1   H4A15368   2.640   6.548  12.088  0.3333 -1.1476 -1.4332
  124CHL1   H4B15369   2.484   6.483  12.041  0.8425  0.9790 -1.2386
  124CHL1    C515370   2.569   6.412  12.231 -0.8041  0.2043 -0.2297
  124CHL1    C615371   2.455   6.408  12.299 -0.1119 -0.5566 -0.4956
  124CHL1    H615372   2.360   6.441  12.255  1.1308  2.6066 -1.0456
  124CHL1    C715373   2.443   6.380  12.444 -0.2241  0.2380 -0.1813
  124CHL1   H7A15374   2.379   6.457  12.492 -1.0346 -1.3674  1.4498
  124CHL1   H7B15375   2.397   6.280  12.457  0.3779  0.2822  3.0474
  124CHL1    C815376   2.580   6.362  12.511  0.1703 -0.1303  0.1838
  124CHL1    H815377   2.621   6.462  12.536 -1.5311  1.0139 -1.3899
  124CHL1   C1415378   2.563   6.288  12.644 -0.0109 -0.0232  0.5713
  124CHL1   H1415379   2.547   6.181  12.622 -1.3867  0.2635  0.0320
  124CHL1   C1515380   2.447   6.326  12.740  0.5883 -0.8773 -0.3376
  124CHL1  H15A15381   2.432   6.436  12.736 -0.2378 -0.9191  0.9410
  124CHL1  H15B15382   2.348   6.283  12.715 -0.9204  1.9369  0.3974
  124CHL1   C1615383   2.491   6.290  12.879 -0.4856 -1.1682 -0.4033
  124CHL1  H16A15384   2.501   6.377  12.947 -2.3860 -1.9754  0.9973
  124CHL1  H16B15385   2.417   6.220  12.923  1.0388 -2.1186  0.7453
  124CHL1   C1715386   2.624   6.214  12.856 -0.4752  0.2587  0.4469
  124CHL1   H1715387   2.592   6.112  12.826 -4.1434  1.3044  0.3571
  124CHL1   C1315388   2.689   6.274  12.724 -0.3231  0.1693  0.0803
  124CHL1   C1815389   2.741   6.416  12.764 -0.2241 -0.0631  0.3798
  124CHL1  H18A15390   2.665   6.489  12.801 -0.6611  0.1436 -0.8697
  124CHL1  H18B15391   2.830   6.418  12.830  0.5187  0.8506 -0.6082
  124CHL1  H18C15392   2.779   6.466  12.673 -1.3350  1.7205  0.8301
  124CHL1   C1215393   2.794   6.198  12.646 -0.0754  0.1473 -0.3575
  124CHL1  H12A15394   2.885   6.185  12.709  0.2987  1.5565 -0.5653
  124CHL1  H12B15395   2.748   6.098  12.631 -0.1766  0.0907  0.3269
  124CHL1   C1115396   2.815   6.253  12.511  0.1174  0.2894  0.6414
  124CHL1  H11A15397   2.874   6.346  12.525  0.5944  0.1225 -0.1728
  124CHL1  H11B15398   2.885   6.193  12.448  1.9717  4.0603 -1.2700
  124CHL1    C915399   2.682   6.284  12.433  0.1279 -0.3367  0.2816
  124CHL1    H915400   2.627   6.189  12.416 -0.1114 -0.2435  0.5326
  124CHL1   C1015401   2.696   6.350  12.297 -1.2719 -0.6222  0.0413
  124CHL1   C1915402   2.813   6.462  12.315  0.2589  0.3853  0.1699
  124CHL1  H19A15403   2.794   6.513  12.411  2.1711  0.2969  0.6421
  124CHL1  H19B15404   2.913   6.414  12.312  0.1258  0.1336 -1.4848
  124CHL1  H19C15405   2.815   6.536  12.233  1.0189  0.3817  0.1775
  124CHL1    C115406   2.749   6.241  12.205 -0.5272  0.5072  0.9895
  124CHL1   H1A15407   2.851   6.205  12.231 -0.6711 -0.3166  0.4689
  124CHL1   H1B15408   2.689   6.147  12.210  1.6835 -1.0483  0.1900
  124CHL1    C215409   2.771   6.295  12.062 -0.0922  0.6604 -0.6938
  124CHL1   H2A15410   2.826   6.217  12.005 -1.2262  0.2450 -1.2459
  124CHL1   H2B15411   2.835   6.386  12.063  1.1080 -0.0641  2.6437
  124CHL1   C2015412   2.711   6.184  12.980 -0.2125  0.1855  0.8407
  124CHL1   H2015413   2.815   6.171  12.942  0.2699  2.1657  1.3505
  124CHL1   C2115414   2.669   6.050  13.051 -0.6922  0.8166 -0.1363
  124CHL1  H21A15415   2.742   6.021  13.129 -0.3513 -1.1326 -1.1215
  124CHL1  H21B15416   2.691   5.981  12.967 -1.3234  0.8341 -0.3197
  124CHL1  H21C15417   2.558   6.054  13.062 -0.8547  0.3252 -1.4369
  124CHL1   C2215418   2.719   6.299  13.087 -0.3971  0.2558  0.1147
  124CHL1  H22A15419   2.705   6.390  13.025 -0.2374 -0.8484 -1.5890
  124CHL1  H22B15420   2.636   6.291  13.161  0.7414 -1.4962  1.2873
  124CHL1   C2315421   2.848   6.304  13.168 -0.1513  0.4149  1.2432
  124CHL1  H23A15422   2.848   6.219  13.240 -0.0137 -0.7607 -0.0980
  124CHL1  H23B15423   2.930   6.292  13.095  1.4166  1.2301  2.7908
  124CHL1   C2415424   2.865   6.439  13.233  0.2843  0.8544 -0.3628
  124CHL1  H24A15425   2.882   6.517  13.157 -0.2394  2.0093  0.6717
  124CHL1  H24B15426   2.765   6.454  13.280  0.6097 -0.0839  0.6851
  124CHL1   C2515427   2.983   6.433  13.333 -0.1747 -0.6323 -0.0805
  124CHL1   H2515428   2.966   6.361  13.416  1.8344 -1.1677 -0.0866
  124CHL1   C2615429   3.121   6.405  13.270  0.2577 -0.4530 -0.2462
  124CHL1  H26A15430   3.196   6.379  13.348 -0.1834  0.5922  0.5489
  124CHL1  H26B15431   3.127   6.322  13.196  0.4564 -1.1029  0.4757
  124CHL1  H26C15432   3.152   6.498  13.218  1.1798 -0.0022  1.0488
  124CHL1   C2715433   2.995   6.570  13.392  0.7282 -0.0989 -0.8980
  124CHL1  H27A15434   2.909   6.595  13.459  0.4234  0.6674 -1.5502
  124CHL1  H27B15435   3.095   6.574  13.440  1.1208 -3.1142 -1.2704
  124CHL1  H27C15436   2.972   6.650  13.318 -1.7602  2.2757  2.0930
  125CHL1    C315437   2.128   0.028  11.741  0.7133 -0.2860 -0.3954
  125CHL1    H315438   2.087  -0.052  11.806 -0.6022 -1.1059 -2.1235
  125CHL1    O315439   2.070   0.015  11.610 -0.0095  0.3995  0.0008
  125CHL1   H3'15440   2.051  -0.079  11.605  0.1157  0.4389 -3.0704
  125CHL1    C415441   2.109   0.168  11.795  0.4431 -0.2766 -0.3395
  125CHL1   H4A15442   2.173   0.237  11.737  0.2159 -0.8882 -1.3302
  125CHL1   H4B15443   2.002   0.195  11.785  0.2837 -0.5701  0.4704
  125CHL1    C515444   2.149   0.174  11.946  0.5285 -0.1640  0.8600
  125CHL1    C615445   2.063   0.206  12.038  0.4398 -0.0826 -0.1481
  125CHL1    H615446   1.962   0.237  12.009 -0.7920 -2.3815  1.3550
  125CHL1    C715447   2.093   0.200  12.184  0.2131  0.0707  0.6577
  125CHL1   H7A15448   2.047   0.288  12.233 -1.1825  0.4504 -1.2202
  125CHL1   H7B15449   2.024   0.124  12.226  1.5853 -1.1763  0.7512
  125CHL1    C815450   2.242   0.184  12.215  0.0894  0.4284 -0.8392
  125CHL1    H815451   2.284   0.285  12.195  0.6998  0.4598  0.4392
  125CHL1   C1415452   2.272   0.151  12.365 -0.3660  0.4412  1.7714
  125CHL1   H1415453   2.246   0.045  12.383  0.0237 -0.1646 -0.9131
  125CHL1   C1515454   2.199   0.235  12.468  0.5954  0.0310  0.4722
  125CHL1  H15A15455   2.190   0.341  12.438  0.2857 -0.6005 -1.9265
  125CHL1  H15B15456   2.096   0.198  12.487 -0.0815 -0.0900 -2.7554
  125CHL1   C1615457   2.280   0.213  12.597 -0.2288  0.1159  0.5758
  125CHL1  H16A15458   2.320   0.309  12.635  1.3890  0.0462 -0.8576
  125CHL1  H16B15459   2.222   0.166  12.680  2.2604 -1.6660  1.4445
  125CHL1   C1715460   2.401   0.130  12.562  0.3795  0.4789 -0.1320
  125CHL1   H1715461   2.371   0.026  12.588  0.6062  0.8565  1.7519
  125CHL1   C1315462   2.422   0.154  12.408 -0.1719 -0.3729  0.4215
  125CHL1   C1815463   2.482   0.297  12.386 -0.6766  0.1769  0.0270
  125CHL1  H18A15464   2.424   0.373  12.442 -0.9301  1.0869 -1.4250
  125CHL1  H18B15465   2.592   0.301  12.405 -0.8461  1.9312  0.8075
  125CHL1  H18C15466   2.475   0.332  12.281 -0.8462  0.0246 -0.0126
  125CHL1   C1215467   2.494   0.054  12.319  0.0140  0.2988 -0.0361
  125CHL1  H12A15468   2.603   0.051  12.337  0.0555  2.2868  0.2773
  125CHL1  H12B15469   2.452  -0.040  12.362 -1.0064  0.1624 -1.2679
  125CHL1   C1115470   2.464   0.072  12.169  0.1041  0.2225  0.3047
  125CHL1  H11A15471   2.509   0.168  12.139  0.0963  0.3171  0.5949
  125CHL1  H11B15472   2.520  -0.005  12.111 -2.2091  0.7749 -2.9227
  125CHL1    C915473   2.315   0.089  12.119  0.7529  0.7232 -0.7429
  125CHL1    H915474   2.258  -0.004  12.139  2.2302 -0.4401 -1.7691
  125CHL1   C1015475   2.293   0.124  11.974  0.0128  0.4935 -0.4146
  125CHL1   C1915476   2.380   0.247  11.932 -0.5003 -0.5176 -0.0707
  125CHL1  H19A15477   2.486   0.216  11.946  0.3183  2.0274 -0.1459
  125CHL1  H19B15478   2.391   0.273  11.825 -1.6406  0.0059 -0.0809
  125CHL1  H19C15479   2.352   0.333  11.997 -1.7639 -0.1924 -1.0091
  125CHL1    C115480   2.321  -0.007  11.892  0.0326  0.0234  0.2702
  125CHL1   H1A15481   2.432  -0.001  11.889  0.0081  1.6738  1.0640
  125CHL1   H1B15482   2.285  -0.103  11.934  1.6038 -1.4888 -1.6186
  125CHL1    C215483   2.277   0.002  11.744 -0.9332  0.3225  0.4289
  125CHL1   H2A15484   2.303  -0.087  11.683  0.4171  0.3624  0.9140
  125CHL1   H2B15485   2.330   0.087  11.696 -0.5325  0.2642  0.7622
  125CHL1   C2015486   2.523   0.157  12.654  1.1565  0.2439  0.5023
  125CHL1   H2015487   2.566   0.255  12.627 -0.5118  1.1725  1.0666
  125CHL1   C2115488   2.628   0.048  12.627 -0.6204  0.4352  0.2982
  125CHL1  H21A15489   2.664   0.070  12.525  0.3028  2.4860  1.0060
  125CHL1  H21B15490   2.575  -0.049  12.621 -0.5075  0.3751  0.2777
  125CHL1  H21C15491   2.717   0.043  12.693 -0.1217 -0.2253 -0.4244
  125CHL1   C2215492   2.491   0.156  12.804 -0.5486  0.7054  0.3013
  125CHL1  H22A15493   2.586   0.186  12.853  0.0867 -0.9530  0.1357
  125CHL1  H22B15494   2.402   0.220  12.819 -2.3873 -1.6174 -0.1322
  125CHL1   C2315495   2.454   0.015  12.858 -0.0772 -0.2490  0.2952
  125CHL1  H23A15496   2.365  -0.023  12.803  0.2406  1.7369 -1.7549
  125CHL1  H23B15497   2.538  -0.058  12.849  0.8005  0.8398 -0.7150
  125CHL1   C2415498   2.412   0.026  12.998 -0.1401  0.1681 -0.6402
  125CHL1  H24A15499   2.323   0.093  13.002 -1.4858 -1.5392 -0.7109
  125CHL1  H24B15500   2.361  -0.067  13.032  0.7706  0.0277  0.4314
  125CHL1   C2515501   2.514   0.056  13.114  0.2413  0.3528  0.1637
  125CHL1   H2515502   2.536   0.164  13.104 -0.0494  0.3433 -0.6517
  125CHL1   C2615503   2.449   0.047  13.252 -0.1263 -0.3122 -0.3461
  125CHL1  H26A15504   2.386  -0.044  13.246 -3.2950  1.4892  2.3081
  125CHL1  H26B15505   2.522   0.023  13.332 -0.9002  1.0376  0.8075
  125CHL1  H26C15506   2.386   0.135  13.277  3.0134  2.2735 -0.7900
  125CHL1   C2715507   2.638  -0.037  13.098  0.4394 -0.3719  0.1571
  125CHL1  H27A15508   2.699  -0.001  13.012 -0.8977  0.2220 -0.5831
  125CHL1  H27B15509   2.695  -0.041  13.193  1.5240 -1.5109 -0.5104
  125CHL1  H27C15510   2.597  -0.140  13.090 -1.0941  0.1189  1.3054
  126CHL1    C315511   0.885   6.330  11.684 -0.0562  0.8116  0.3902
  126CHL1    H315512   0.955   6.405  11.727  1.4976 -0.8072  0.8457
  126CHL1    O315513   0.927   6.299  11.549  0.0290  0.5474  0.1454
  126CHL1   H3'15514   0.893   6.369  11.492  0.9900  0.1301 -0.9911
  126CHL1    C415515   0.894   6.190  11.761  0.6361  0.5592 -0.3935
  126CHL1   H4A15516   0.847   6.106  11.705  0.1412  0.1449  0.6033
  126CHL1   H4B15517   1.001   6.162  11.772  0.0880 -0.8779  2.3517
  126CHL1    C515518   0.826   6.207  11.897 -0.1273  0.7680  0.0495
  126CHL1    C615519   0.893   6.195  12.013 -0.7099 -0.3619 -0.3038
  126CHL1    H615520   0.997   6.162  12.002 -1.2551 -1.8460 -1.3065
  126CHL1    C715521   0.822   6.206  12.146 -0.4250  0.2493  0.4214
  126CHL1   H7A15522   0.874   6.140  12.218  1.8718 -0.3129 -1.6096
  126CHL1   H7B15523   0.851   6.308  12.182  0.8097  0.4213 -0.9421
  126CHL1    C815524   0.669   6.195  12.141  0.3461 -0.2624 -0.1845
  126CHL1    H815525   0.637   6.089  12.131  0.9624 -0.7625  2.4442
  126CHL1   C1415526   0.604   6.237  12.274 -0.2309 -0.7494  0.3908
  126CHL1   H1415527   0.639   6.340  12.299  1.1565 -0.9878 -0.4604
  126CHL1   C1515528   0.640   6.162  12.403  0.4153 -0.0112 -0.4320
  126CHL1  H15A15529   0.634   6.054  12.378  2.7830 -0.3873  0.4019
  126CHL1  H15B15530   0.747   6.174  12.427 -0.0067 -0.2973  1.8582
  126CHL1   C1615531   0.537   6.203  12.508  0.2900 -0.2062  0.3812
  126CHL1  H16A15532   0.505   6.112  12.563 -0.3814  0.8434  1.7539
  126CHL1  H16B15533   0.585   6.276  12.576 -0.5756  0.3389  0.4165
  126CHL1   C1715534   0.423   6.267  12.426 -0.1624 -0.4718  0.2627
  126CHL1   H1715535   0.437   6.377  12.425  2.7148 -0.7265 -1.7144
  126CHL1   C1315536   0.455   6.229  12.276  0.2985  0.7124  0.0005
  126CHL1   C1815537   0.391   6.083  12.256  0.1232  0.2521 -0.4304
  126CHL1  H18A15538   0.386   6.061  12.147 -0.4669 -0.7905 -0.1992
  126CHL1  H18B15539   0.442   6.008  12.319 -0.3277  0.3588  0.0656
  126CHL1  H18C15540   0.288   6.080  12.298  0.7755 -0.6624  1.1643
  126CHL1   C1215541   0.400   6.318  12.163 -0.0597 -0.0450 -0.2350
  126CHL1  H12A15542   0.289   6.315  12.158 -0.0815  0.2674 -0.0050
  126CHL1  H12B15543   0.425   6.421  12.196 -1.6036  0.0426  0.7764
  126CHL1   C1115544   0.460   6.282  12.027 -0.5650  0.1905 -0.0073
  126CHL1  H11A15545   0.428   6.180  11.996 -1.5385  0.1408  1.0961
  126CHL1  H11B15546   0.422   6.357  11.954  3.8602  0.7817 -2.0165
  126CHL1    C915547   0.612   6.278  12.029  0.2582  0.3615  0.4122
  126CHL1    H915548   0.649   6.380  12.054  3.3528 -1.0949  2.4730
  126CHL1   C1015549   0.677   6.253  11.892 -0.1467 -0.3297 -0.3445
  126CHL1   C1915550   0.594   6.141  11.819  0.0096  0.0943 -0.2680
  126CHL1  H19A15551   0.580   6.046  11.874  0.3043  0.1835 -0.0384
  126CHL1  H19B15552   0.492   6.172  11.788 -0.9536 -1.9406  0.6635
  126CHL1  H19C15553   0.649   6.114  11.725 -0.7312 -1.8010 -0.2057
  126CHL1    C115554   0.664   6.385  11.813  0.2371 -0.0751  0.5188
  126CHL1   H1A15555   0.556   6.408  11.801  0.5124  1.2503  0.3875
  126CHL1   H1B15556   0.719   6.463  11.871  1.7795 -1.4398  0.9572
  126CHL1    C215557   0.735   6.379  11.673 -0.5860  0.1522  0.3908
  126CHL1   H2A15558   0.744   6.480  11.629  0.5235  0.8121  2.0466
  126CHL1   H2B15559   0.667   6.325  11.604 -1.3269  1.4658  0.0662
  126CHL1   C2015560   0.282   6.240  12.477  0.3650  0.5500  0.5512
  126CHL1   H2015561   0.253   6.133  12.465  0.2647  0.7151 -0.7651
  126CHL1   C2115562   0.169   6.319  12.406  0.0827 -0.8118  0.1878
  126CHL1  H21A15563   0.155   6.277  12.304 -0.5766  1.8195 -0.9193
  126CHL1  H21B15564   0.184   6.429  12.391 -2.1775 -0.5849 -0.8147
  126CHL1  H21C15565   0.070   6.306  12.455 -0.3855 -1.1553 -0.8221
  126CHL1   C2215566   0.271   6.272  12.627 -0.6035  0.6513  0.3589
  126CHL1  H22A15567   0.165   6.244  12.648 -0.5129  0.5622  0.7035
  126CHL1  H22B15568   0.341   6.199  12.672  0.9257 -0.1172 -2.9764
  126CHL1   C2315569   0.304   6.418  12.672  0.2879 -0.4009  0.2393
  126CHL1  H23A15570   0.406   6.435  12.630 -0.0057  1.6282  0.2290
  126CHL1  H23B15571   0.231   6.489  12.627  1.7443 -0.1100 -1.7980
  126CHL1   C2415572   0.303   6.437  12.822 -0.1333  0.2823  0.5517
  126CHL1  H24A15573   0.391   6.395  12.875 -1.3559 -0.6391  1.9321
  126CHL1  H24B15574   0.296   6.547  12.839 -3.7604  0.9747 -3.6699
  126CHL1   C2515575   0.192   6.369  12.896 -0.1609  0.0168 -0.1568
  126CHL1   H2515576   0.201   6.261  12.872 -0.4447 -0.6064  2.2681
  126CHL1   C2615577   0.195   6.366  13.050 -1.0369  0.1655  0.2090
  126CHL1  H26A15578   0.208   6.472  13.080 -0.7273 -0.5334  2.8261
  126CHL1  H26B15579   0.098   6.341  13.099 -0.4481  1.6058  2.2663
  126CHL1  H26C15580   0.280   6.315  13.101 -1.7225 -0.9233  0.2899
  126CHL1   C2715581   0.060   6.412  12.836  0.0085  0.0193 -0.0908
  126CHL1  H27A15582  -0.021   6.341  12.865 -2.8792  2.8038 -0.6729
  126CHL1  H27B15583   0.023   6.507  12.881 -3.2850 -1.2979  0.3202
  126CHL1  H27C15584   0.068   6.426  12.726 -0.0740  1.9004  0.1128
  127CHL1    C315585   1.251   0.989  11.743 -0.3339  0.0833 -0.2061
  127CHL1    H315586   1.143   0.965  11.740 -0.0513 -1.1274 -1.2391
  127CHL1    O315587   1.281   1.065  11.627  0.1921 -0.1879 -0.5364
  127CHL1   H3'15588   1.375   1.056  11.612  0.1781 -2.3339  0.3356
  127CHL1    C415589   1.283   1.083  11.862  0.2073  0.5374 -0.5898
  127CHL1   H4A15590   1.390   1.105  11.842  0.5432 -0.2027  0.3219
  127CHL1   H4B15591   1.218   1.173  11.854 -3.0282 -1.5402  0.3849
  127CHL1    C515592   1.271   1.012  11.994 -0.0031  0.0652  0.6480
  127CHL1    C615593   1.199   1.063  12.099  0.3801  0.3862 -0.4655
  127CHL1    H615594   1.150   1.159  12.080 -0.5059  0.0294 -0.0461
  127CHL1    C715595   1.189   1.005  12.236  0.2623  0.1827 -0.2866
  127CHL1   H7A15596   1.199   1.083  12.315  0.4107 -2.7501  2.7940
  127CHL1   H7B15597   1.090   0.955  12.249 -0.1483  0.8573 -0.7374
  127CHL1    C815598   1.299   0.897  12.259  0.2119 -0.2243 -0.7951
  127CHL1    H815599   1.397   0.950  12.262  1.9075 -3.1652  0.1504
  127CHL1   C1415600   1.249   0.823  12.378 -0.0786  0.0430 -1.0637
  127CHL1   H1415601   1.148   0.781  12.357 -1.1659  2.5140 -1.1933
  127CHL1   C1515602   1.228   0.913  12.507 -0.3772  0.5947  0.5025
  127CHL1  H15A15603   1.321   0.973  12.509  0.7512 -0.8385 -2.5616
  127CHL1  H15B15604   1.130   0.965  12.518 -1.4944 -1.7225  2.2924
  127CHL1   C1615605   1.243   0.814  12.625 -0.1812 -0.3879  0.3146
  127CHL1  H16A15606   1.314   0.864  12.695  0.4894  0.8605 -1.2026
  127CHL1  H16B15607   1.143   0.798  12.671  0.0087 -2.9673 -0.0435
  127CHL1   C1715608   1.286   0.679  12.561 -0.0168 -0.4397  0.7602
  127CHL1   H1715609   1.193   0.624  12.535  0.6586 -1.1354 -0.2540
  127CHL1   C1315610   1.337   0.711  12.417 -0.1370 -0.2094  0.6074
  127CHL1   C1815611   1.489   0.756  12.436  0.1813  0.4756  0.5419
  127CHL1  H18A15612   1.513   0.829  12.515  0.5901  0.6540  0.2548
  127CHL1  H18B15613   1.551   0.664  12.447 -0.9035 -0.3105  0.2839
  127CHL1  H18C15614   1.526   0.804  12.343  2.3656  0.4221  1.3369
  127CHL1   C1215615   1.337   0.606  12.306 -0.4087 -0.1367  1.2362
  127CHL1  H12A15616   1.411   0.526  12.328  0.4168  0.2237 -0.1484
  127CHL1  H12B15617   1.236   0.562  12.292 -1.3196  1.9611  0.8153
  127CHL1   C1115618   1.383   0.661  12.164  0.1721  0.0623 -0.3287
  127CHL1  H11A15619   1.493   0.675  12.160  0.0896  1.6366  1.3718
  127CHL1  H11B15620   1.344   0.585  12.093  2.0673  0.2137 -1.5841
  127CHL1    C915621   1.310   0.800  12.138  0.1753 -0.2377 -0.0862
  127CHL1    H915622   1.205   0.767  12.142  0.4844 -1.2072  0.2702
  127CHL1   C1015623   1.349   0.875  12.008  0.2101  0.5344  0.5788
  127CHL1   C1915624   1.501   0.902  11.990  1.0909  0.2202  0.3208
  127CHL1  H19A15625   1.549   0.803  11.979 -0.3434 -0.2664 -2.2743
  127CHL1  H19B15626   1.531   0.958  11.899  4.9404  1.3600  2.0678
  127CHL1  H19C15627   1.544   0.952  12.079  2.0464  0.8792 -0.4895
  127CHL1    C115628   1.308   0.787  11.877 -0.3720 -0.8154 -0.0782
  127CHL1   H1A15629   1.367   0.694  11.891  0.9378  0.2210  1.7239
  127CHL1   H1B15630   1.198   0.772  11.887 -0.6135  1.4729  1.4822
  127CHL1    C215631   1.336   0.858  11.746  0.3863 -0.0606  1.3700
  127CHL1   H2A15632   1.305   0.796  11.660  0.1406  0.7400  0.8684
  127CHL1   H2B15633   1.443   0.880  11.728  0.4519 -1.4947 -0.1904
  127CHL1   C2015634   1.376   0.588  12.647  0.8748  0.7406 -0.7355
  127CHL1   H2015635   1.484   0.612  12.647  1.2155 -0.5994  0.6943
  127CHL1   C2115636   1.373   0.441  12.596  0.5994  0.1654 -0.2428
  127CHL1  H21A15637   1.431   0.374  12.664  2.3024  0.7147 -1.1060
  127CHL1  H21B15638   1.412   0.424  12.493  1.1897 -2.9717  0.3901
  127CHL1  H21C15639   1.271   0.397  12.595  0.8588 -0.5115  0.7560
  127CHL1   C2215640   1.314   0.577  12.790 -0.3559  0.1416 -0.8707
  127CHL1  H22A15641   1.328   0.675  12.840  1.1787 -1.1898  1.5602
  127CHL1  H22B15642   1.208   0.552  12.774  0.1694 -1.1077 -2.6164
  127CHL1   C2315643   1.378   0.484  12.900  0.4382  0.6423  0.3892
  127CHL1  H23A15644   1.325   0.508  12.994 -1.4851  0.5867 -0.6269
  127CHL1  H23B15645   1.351   0.378  12.881  0.1738  1.0573 -1.9057
  127CHL1   C2415646   1.531   0.492  12.922 -0.0676  0.9802  0.3015
  127CHL1  H24A15647   1.568   0.406  12.982 -1.4991 -0.3260 -0.6270
  127CHL1  H24B15648   1.591   0.476  12.830 -0.1773 -0.7132  0.5002
  127CHL1   C2515649   1.559   0.625  12.996  0.1231 -0.3429 -0.8599
  127CHL1   H2515650   1.490   0.708  12.967  1.0318  0.8733  0.3645
  127CHL1   C2615651   1.534   0.619  13.145 -0.3698  0.2816 -0.3658
  127CHL1  H26A15652   1.435   0.575  13.168  0.2418 -0.6703  0.5603
  127CHL1  H26B15653   1.606   0.552  13.197  0.1145  0.4157 -0.8523
  127CHL1  H26C15654   1.544   0.716  13.198 -0.1188 -0.8510  1.7739
  127CHL1   C2715655   1.701   0.670  12.973 -0.0991  0.3150 -0.1359
  127CHL1  H27A15656   1.735   0.672  12.867  1.2945  1.2793  0.2900
  127CHL1  H27B15657   1.714   0.774  13.009 -0.3312  0.2612  0.1066
  127CHL1  H27C15658   1.768   0.598  13.026  0.0839  0.4946 -0.1223
  128CHL1    C315659   2.694   2.988  11.899 -0.3849 -0.1233  0.3383
  128CHL1    H315660   2.708   3.095  11.924  1.1206 -0.9441  3.6729
  128CHL1    O315661   2.701   2.974  11.756  0.1363  0.0305  0.1119
  128CHL1   H3'15662   2.634   3.031  11.718  0.1481 -0.9169 -1.4128
  128CHL1    C415663   2.812   2.906  11.972 -0.7498 -0.8967  0.0233
  128CHL1   H4A15664   2.795   2.801  11.937 -2.6084  0.7510 -5.0331
  128CHL1   H4B15665   2.914   2.936  11.940 -1.5455  2.7767  0.5112
  128CHL1    C515666   2.800   2.928  12.121 -0.0652 -0.2590  0.0025
  128CHL1    C615667   2.900   2.985  12.189  0.1506  0.1616 -0.1124
  128CHL1    H615668   2.989   3.025  12.138 -0.0367  0.5279 -0.1578
  128CHL1    C715669   2.909   2.994  12.336 -0.3917 -0.3195  0.4902
  128CHL1   H7A15670   3.003   2.964  12.386 -0.9358 -0.8179  1.2370
  128CHL1   H7B15671   2.882   3.098  12.364 -0.5071 -0.1663 -0.1701
  128CHL1    C815672   2.797   2.908  12.409 -0.6731  0.0112  0.2194
  128CHL1    H815673   2.831   2.803  12.416 -1.4483 -0.2056  0.8483
  128CHL1   C1415674   2.785   2.954  12.553 -0.3655  0.5488 -0.2838
  128CHL1   H1415675   2.744   3.058  12.553 -4.3375 -0.8404  0.1254
  128CHL1   C1515676   2.917   2.950  12.641 -0.0556 -0.3397  0.0770
  128CHL1  H15A15677   2.987   2.876  12.598 -0.5432 -0.3300 -0.7477
  128CHL1  H15B15678   2.965   3.050  12.637  1.6819 -1.1287  0.2887
  128CHL1   C1615679   2.865   2.933  12.784  0.7070 -0.0095  0.1137
  128CHL1  H16A15680   2.926   2.858  12.839 -0.7034 -0.8586  0.5811
  128CHL1  H16B15681   2.868   3.030  12.838  1.9646  0.5783 -0.9595
  128CHL1   C1715682   2.713   2.898  12.781  0.1529 -0.8077 -0.0891
  128CHL1   H1715683   2.671   3.000  12.792  3.6987  1.1690 -2.8264
  128CHL1   C1315684   2.678   2.869  12.636 -0.3465  0.0605  0.0382
  128CHL1   C1815685   2.708   2.717  12.626  0.0214 -0.3392  0.1456
  128CHL1  H18A15686   2.707   2.691  12.518  1.3572  0.1217 -0.0021
  128CHL1  H18B15687   2.815   2.703  12.654 -0.0558  1.6898  1.7197
  128CHL1  H18C15688   2.638   2.651  12.681 -1.3627  1.2524  0.3590
  128CHL1   C1215689   2.547   2.915  12.577  0.1385 -0.3489 -0.2960
  128CHL1  H12A15690   2.475   2.863  12.644  1.4074 -1.4647  0.2521
  128CHL1  H12B15691   2.535   3.024  12.595  0.2687 -0.3765 -0.0251
  128CHL1   C1115692   2.537   2.885  12.423  0.6188 -0.1658  0.1968
  128CHL1  H11A15693   2.526   2.775  12.417  0.1626 -0.2279  1.7651
  128CHL1  H11B15694   2.441   2.922  12.381  0.8488  0.0333 -0.1640
  128CHL1    C915695   2.659   2.922  12.335 -0.2331  0.3142  0.2593
  128CHL1    H915696   2.641   3.031  12.326 -1.8786  0.1552  1.2209
  128CHL1   C1015697   2.663   2.877  12.186 -0.1403  0.4378 -0.0033
  128CHL1   C1915698   2.649   2.723  12.181 -0.4495  0.0533  0.2611
  128CHL1  H19A15699   2.723   2.673  12.247  1.1659  1.2356 -0.5865
  128CHL1  H19B15700   2.545   2.696  12.208 -1.4408  3.0991 -0.0978
  128CHL1  H19C15701   2.655   2.678  12.079  1.3323 -1.9878  1.1900
  128CHL1    C115702   2.555   2.943  12.109  0.5711  0.2428  0.8594
  128CHL1   H1A15703   2.457   2.897  12.137  1.5224 -3.0008 -0.6445
  128CHL1   H1B15704   2.555   3.051  12.136  0.1817  0.2838  0.6986
  128CHL1    C215705   2.559   2.944  11.953 -0.6136  0.2384 -0.3436
  128CHL1   H2A15706   2.478   3.013  11.920 -1.6562 -0.7483  0.0700
  128CHL1   H2B15707   2.534   2.843  11.914 -3.0837  0.8863 -0.6440
  128CHL1   C2015708   2.662   2.802  12.894 -0.0991 -0.1361 -0.9004
  128CHL1   H2015709   2.710   2.702  12.886  0.6080 -0.0056  1.1588
  128CHL1   C2115710   2.506   2.797  12.891 -0.9114 -0.5935  0.4518
  128CHL1  H21A15711   2.467   2.752  12.798 -1.3735  0.5440  0.0878
  128CHL1  H21B15712   2.481   2.905  12.889 -0.3076 -0.4401  0.7451
  128CHL1  H21C15713   2.462   2.755  12.984 -1.4297  0.6969  0.8069
  128CHL1   C2215714   2.712   2.848  13.034 -0.2094 -0.2759 -0.8860
  128CHL1  H22A15715   2.818   2.878  13.031 -0.3880  0.2411 -3.2711
  128CHL1  H22B15716   2.643   2.928  13.070  0.4637  0.3483 -0.9719
  128CHL1   C2315717   2.712   2.723  13.132  0.7986 -0.6879 -0.0782
  128CHL1  H23A15718   2.605   2.692  13.143  0.3927  0.4699 -0.6134
  128CHL1  H23B15719   2.777   2.650  13.079 -0.3618 -1.7274 -0.1443
  128CHL1   C2415720   2.773   2.759  13.271  0.3758  0.2257  0.2167
  128CHL1  H24A15721   2.858   2.830  13.264 -0.6449  1.6321  1.4708
  128CHL1  H24B15722   2.689   2.815  13.319  0.6879  1.9681 -1.1732
  128CHL1   C2515723   2.799   2.636  13.360 -0.2652  0.7615  0.3930
  128CHL1   H2515724   2.886   2.579  13.323 -0.9864  0.7136 -1.3223
  128CHL1   C2615725   2.834   2.665  13.507  0.0677 -0.2842 -0.2018
  128CHL1  H26A15726   2.926   2.728  13.511  1.2887 -1.8986 -1.1781
  128CHL1  H26B15727   2.748   2.713  13.558  0.3333 -1.5105  1.5177
  128CHL1  H26C15728   2.848   2.568  13.561  1.0664  0.0586  0.1891
  128CHL1   C2715729   2.672   2.547  13.350  0.4760  0.1615  0.1532
  128CHL1  H27A15730   2.667   2.452  13.408 -1.2278  1.2198  1.8178
  128CHL1  H27B15731   2.588   2.608  13.388  0.1006  0.1620 -0.6586
  128CHL1  H27C15732   2.659   2.516  13.243 -0.4069  1.0393 -0.0011
  129CHL1    C315733   2.736   0.824  11.672 -0.1027 -0.1501  0.4019
  129CHL1    H315734   2.634   0.866  11.680  0.3303  0.5215  4.0130
  129CHL1    O315735   2.751   0.766  11.544 -0.0848 -0.3127  0.7740
  129CHL1   H3'15736   2.821   0.703  11.564  0.0327  0.0599  1.5944
  129CHL1    C415737   2.845   0.929  11.696  0.1325  0.3972  0.2480
  129CHL1   H4A15738   2.938   0.873  11.671 -0.6074 -0.3165 -0.9951
  129CHL1   H4B15739   2.841   1.021  11.634 -0.9659 -0.1754 -0.5677
  129CHL1    C515740   2.851   0.983  11.836  0.3863  0.1551 -0.2837
  129CHL1    C615741   2.834   1.113  11.862 -0.6226  0.3345 -0.7900
  129CHL1    H615742   2.814   1.185  11.781 -0.0809  1.1550 -0.2169
  129CHL1    C715743   2.836   1.182  11.998 -0.4638 -0.1172  0.3941
  129CHL1   H7A15744   2.890   1.278  12.010 -0.0557 -0.6414  3.7761
  129CHL1   H7B15745   2.731   1.213  12.018 -0.1953  2.0471 -1.2363
  129CHL1    C815746   2.881   1.082  12.118  0.5476  0.7583  0.5165
  129CHL1    H815747   2.992   1.077  12.111  0.7249  2.8277  1.1324
  129CHL1   C1415748   2.839   1.130  12.247 -0.4189 -0.3894 -0.0950
  129CHL1   H1415749   2.728   1.129  12.252 -0.4517  2.2596  2.1379
  129CHL1   C1515750   2.880   1.271  12.293  0.1784  0.4612 -0.3414
  129CHL1  H15A15751   2.988   1.288  12.271  0.4991  1.3495  1.7394
  129CHL1  H15B15752   2.833   1.354  12.237  0.8219 -0.3226 -2.1427
  129CHL1   C1615753   2.864   1.275  12.447  0.2297 -0.3428 -0.0476
  129CHL1  H16A15754   2.946   1.329  12.498  0.3862 -1.3698  0.8381
  129CHL1  H16B15755   2.771   1.329  12.474  0.7769  1.6319 -1.8559
  129CHL1   C1715756   2.849   1.132  12.490 -0.6722 -0.1041  0.2506
  129CHL1   H1715757   2.739   1.113  12.492 -0.9041  1.0093 -0.6946
  129CHL1   C1315758   2.891   1.046  12.368 -0.3221  0.3103 -0.0097
  129CHL1   C1815759   3.043   1.033  12.371  0.3479  0.2827 -0.0921
  129CHL1  H18A15760   3.067   0.956  12.447 -0.5520  0.6234  0.5485
  129CHL1  H18B15761   3.075   0.991  12.273  0.1679  2.8905 -1.3573
  129CHL1  H18C15762   3.104   1.123  12.393 -0.5268  0.7603  0.4593
  129CHL1   C1215763   2.813   0.912  12.346  0.0168  0.1679  0.3890
  129CHL1  H12A15764   2.839   0.830  12.417  1.6297  1.1472  0.9847
  129CHL1  H12B15765   2.705   0.939  12.357  0.1870  1.3623 -0.6341
  129CHL1   C1115766   2.850   0.852  12.209 -0.0210 -0.4151 -0.9667
  129CHL1  H11A15767   2.954   0.814  12.207  0.8940  1.7211  1.1650
  129CHL1  H11B15768   2.778   0.767  12.207 -1.3361  0.6603 -2.4570
  129CHL1    C915769   2.819   0.939  12.084  0.0684 -0.9829  0.2050
  129CHL1    H915770   2.709   0.957  12.088 -0.1869 -2.3647 -0.2219
  129CHL1   C1015771   2.842   0.880  11.946 -0.1393 -0.2561  0.3598
  129CHL1   C1915772   2.976   0.806  11.949 -0.3433  0.0783  0.4661
  129CHL1  H19A15773   3.005   0.781  11.845 -0.0506 -1.8828  0.9795
  129CHL1  H19B15774   3.050   0.866  12.005 -0.3975  1.1326 -0.5427
  129CHL1  H19C15775   2.969   0.703  11.990 -0.9666  0.0555  0.3220
  129CHL1    C115776   2.733   0.772  11.915 -0.3200  0.0202  0.4320
  129CHL1   H1A15777   2.735   0.695  11.995  0.0849  1.5177  1.9109
  129CHL1   H1B15778   2.633   0.820  11.918 -0.5453 -0.3174 -1.0091
  129CHL1    C215779   2.755   0.715  11.775 -0.1042  0.3596 -0.1530
  129CHL1   H2A15780   2.677   0.638  11.753  1.1296 -0.4452 -2.0223
  129CHL1   H2B15781   2.856   0.670  11.767  0.5359  1.5599  0.9532
  129CHL1   C2015782   2.911   1.107  12.633 -0.0692 -0.0416  0.2376
  129CHL1   H2015783   3.020   1.121  12.647 -0.1474  1.1420 -0.2378
  129CHL1   C2115784   2.874   0.957  12.661 -0.5313 -0.5418  0.2121
  129CHL1  H21A15785   2.765   0.938  12.659 -0.5256 -0.6044  0.4939
  129CHL1  H21B15786   2.906   0.932  12.764 -0.1889  1.4722  0.6524
  129CHL1  H21C15787   2.913   0.880  12.591 -0.1970 -0.3982  0.2393
  129CHL1   C2215788   2.853   1.213  12.739 -0.2636  0.5178  0.0530
  129CHL1  H22A15789   2.872   1.314  12.697  0.1058  0.1353 -0.7168
  129CHL1  H22B15790   2.745   1.192  12.748  0.0185 -1.4701 -0.7624
  129CHL1   C2315791   2.920   1.196  12.873 -0.4815  0.2761  0.8465
  129CHL1  H23A15792   2.891   1.099  12.918  0.4783 -0.0659  0.7678
  129CHL1  H23B15793   3.030   1.188  12.858 -0.7188 -1.2594 -0.2817
  129CHL1   C2415794   2.898   1.311  12.971  0.1963 -0.4567  0.2923
  129CHL1  H24A15795   2.943   1.397  12.919  0.9599  0.6247  2.5859
  129CHL1  H24B15796   2.788   1.324  12.981  0.3185  0.6108  0.3417
  129CHL1   C2515797   2.968   1.311  13.107  0.1834  0.1958  0.3825
  129CHL1   H2515798   2.932   1.403  13.159  0.6216  0.2599  0.5797
  129CHL1   C2615799   2.909   1.201  13.196 -0.3251  0.2665 -0.0887
  129CHL1  H26A15800   2.799   1.212  13.207 -0.3239  3.2306 -1.9302
  129CHL1  H26B15801   2.921   1.107  13.138  1.1622  0.2734  0.1755
  129CHL1  H26C15802   2.958   1.192  13.296 -4.1514  2.3111  2.2132
  129CHL1   C2715803   3.120   1.308  13.101  0.3755  0.3876 -0.1554
  129CHL1  H27A15804   3.157   1.313  13.205 -2.4828 -0.9326  1.0475
  129CHL1  H27B15805   3.151   1.213  13.052 -1.4437 -0.1179 -0.4260
  129CHL1  H27C15806   3.161   1.401  13.055  1.6723  0.8959  1.9172
  130CHL1    C315807   1.429   1.617  11.746 -0.0857  0.1557 -0.0134
  130CHL1    H315808   1.532   1.655  11.730 -0.3735  0.7028 -0.6418
  130CHL1    O315809   1.357   1.647  11.627  0.1590  0.5644  0.0894
  130CHL1   H3'15810   1.270   1.622  11.658  1.1783 -1.7758  1.2931
  130CHL1    C415811   1.421   1.468  11.774  0.9441  0.1914  0.1699
  130CHL1   H4A15812   1.312   1.448  11.769  0.8444  0.9830 -1.1301
  130CHL1   H4B15813   1.477   1.408  11.700 -0.5106 -1.1877  0.1426
  130CHL1    C515814   1.472   1.430  11.913 -0.3093  0.0277 -0.1013
  130CHL1    C615815   1.567   1.339  11.934 -0.9005 -0.4356  1.0647
  130CHL1    H615816   1.613   1.293  11.846 -0.3155 -0.0291  1.1499
  130CHL1    C715817   1.616   1.293  12.068 -0.1256  0.2861  0.5566
  130CHL1   H7A15818   1.608   1.182  12.072  0.6155  0.2140  0.2633
  130CHL1   H7B15819   1.718   1.334  12.085 -0.4955  1.8718 -0.7805
  130CHL1    C815820   1.523   1.330  12.188 -0.0482  0.8006  0.1979
  130CHL1    H815821   1.436   1.261  12.178  1.0344 -0.3602 -2.1266
  130CHL1   C1415822   1.599   1.310  12.323  0.1503  0.2370 -0.2095
  130CHL1   H1415823   1.692   1.370  12.313  0.3572  0.1718  1.2013
  130CHL1   C1515824   1.635   1.163  12.363 -0.5860  0.2565 -0.3989
  130CHL1  H15A15825   1.554   1.094  12.331 -1.1181  1.4100 -1.6202
  130CHL1  H15B15826   1.730   1.130  12.316 -0.4105 -1.1862  0.8956
  130CHL1   C1615827   1.657   1.176  12.515 -0.6299  0.2148  0.2328
  130CHL1  H16A15828   1.594   1.106  12.574  0.5470  0.3999  1.7899
  130CHL1  H16B15829   1.762   1.153  12.545 -0.3968 -0.2194 -0.8575
  130CHL1   C1715830   1.610   1.317  12.550 -0.0312  0.0478 -0.9916
  130CHL1   H1715831   1.692   1.391  12.534 -0.1233  0.1891 -0.8155
  130CHL1   C1315832   1.522   1.358  12.438 -0.1973 -1.0883  0.3503
  130CHL1   C1815833   1.381   1.289  12.461 -0.0608  0.1707 -0.1137
  130CHL1  H18A15834   1.324   1.283  12.366 -1.3858 -0.3602  0.6950
  130CHL1  H18B15835   1.391   1.181  12.483  2.0111  0.3195 -0.1088
  130CHL1  H18C15836   1.319   1.340  12.537  0.8210 -0.5532  1.1340
  130CHL1   C1215837   1.508   1.514  12.418  0.4660  0.3877 -0.6483
  130CHL1  H12A15838   1.457   1.553  12.508  1.5321  1.1093 -0.3451
  130CHL1  H12B15839   1.606   1.563  12.404 -0.5611  1.7734 -4.0956
  130CHL1   C1115840   1.418   1.540  12.296 -0.2117 -0.4786  0.9034
  130CHL1  H11A15841   1.318   1.495  12.312  0.4462 -1.8008  1.4416
  130CHL1  H11B15842   1.395   1.649  12.287 -3.5210 -1.0257  1.5730
  130CHL1    C915843   1.487   1.475  12.173  0.3130 -0.1944 -0.0912
  130CHL1    H915844   1.586   1.524  12.166  1.3743 -2.3629 -1.4266
  130CHL1   C1015845   1.412   1.509  12.040  0.4892  0.0179  0.6036
  130CHL1   C1915846   1.265   1.489  12.051 -0.1980  0.1347  0.1679
  130CHL1  H19A15847   1.203   1.501  11.960 -0.0136  0.1612  0.0438
  130CHL1  H19B15848   1.239   1.397  12.108 -0.4601 -0.0191 -0.1944
  130CHL1  H19C15849   1.217   1.567  12.114 -1.1447 -0.6644  0.4491
  130CHL1    C115850   1.426   1.661  12.005 -0.6314 -0.5338 -0.3908
  130CHL1   H1A15851   1.371   1.718  12.083  0.0880 -1.7831  1.0611
  130CHL1   H1B15852   1.533   1.691  12.015 -0.7650  0.7994 -2.3163
  130CHL1    C215853   1.373   1.700  11.864 -0.8856 -0.0503  0.0572
  130CHL1   H2A15854   1.408   1.803  11.842 -0.7478 -0.1062  0.0123
  130CHL1   H2B15855   1.263   1.707  11.856 -1.0202 -0.9479  0.9546
  130CHL1   C2015856   1.566   1.330  12.696  0.4406  0.3542 -0.1444
  130CHL1   H2015857   1.455   1.329  12.698  0.4319  0.0838 -0.4967
  130CHL1   C2115858   1.613   1.469  12.749 -0.0382  0.2675  0.1415
  130CHL1  H21A15859   1.542   1.493  12.831 -0.9756  1.9365 -1.0848
  130CHL1  H21B15860   1.612   1.550  12.672  0.0429  0.9998  0.8950
  130CHL1  H21C15861   1.714   1.458  12.792  0.0134 -0.9670 -0.2583
  130CHL1   C2215862   1.594   1.218  12.796 -0.6851  1.0349  0.1032
  130CHL1  H22A15863   1.552   1.118  12.772 -0.9279  0.4193  2.7679
  130CHL1  H22B15864   1.702   1.197  12.780 -0.6116  2.3259 -1.3085
  130CHL1   C2315865   1.569   1.248  12.940 -0.1676  0.7302 -0.2771
  130CHL1  H23A15866   1.627   1.340  12.964  0.0856  1.3846 -3.0300
  130CHL1  H23B15867   1.459   1.255  12.948 -0.7169 -3.6026 -1.5717
  130CHL1   C2415868   1.605   1.127  13.030  0.1724  1.2021  0.5277
  130CHL1  H24A15869   1.529   1.051  13.002  1.8114  1.0367 -4.5318
  130CHL1  H24B15870   1.699   1.080  12.994 -1.1764 -1.5325  0.3524
  130CHL1   C2515871   1.610   1.155  13.182 -0.5055  0.3510 -0.5691
  130CHL1   H2515872   1.514   1.203  13.213  0.9194  2.1615  1.3570
  130CHL1   C2615873   1.613   1.024  13.262 -0.1999  0.2243 -0.3325
  130CHL1  H26A15874   1.525   0.968  13.224  1.0933  0.0489 -3.3636
  130CHL1  H26B15875   1.703   0.963  13.243  0.0932  0.0630  1.3674
  130CHL1  H26C15876   1.628   1.052  13.369 -1.1483  1.2995 -0.4634
  130CHL1   C2715877   1.724   1.249  13.226  0.8982 -0.3721 -0.8264
  130CHL1  H27A15878   1.735   1.260  13.336  0.4348  1.8370 -0.9498
  130CHL1  H27B15879   1.824   1.217  13.189  3.1112  1.3037  3.0974
  130CHL1  H27C15880   1.718   1.349  13.177 -0.1861  0.2282  0.4719
  131CHL1    C315881   6.193   6.686  11.574  0.4339 -0.3796  0.4536
  131CHL1    H315882   6.290   6.732  11.546  0.0181 -0.3259 -1.0197
  131CHL1    O315883   6.135   6.635  11.455  1.0947  0.6304  0.1354
  131CHL1   H3'15884   6.041   6.622  11.472  0.0490  4.4331 -1.5865
  131CHL1    C415885   6.209   6.573  11.681 -0.2675 -0.3004  0.5197
  131CHL1   H4A15886   6.106   6.532  11.682 -1.0114  1.4598  0.0280
  131CHL1   H4B15887   6.277   6.506  11.624 -1.3816 -0.7179 -0.3535
  131CHL1    C515888   6.262   6.631  11.810  0.3654  0.6599 -0.5610
  131CHL1    C615889   6.371   6.581  11.866  0.3503  0.2420 -0.1563
  131CHL1    H615890   6.405   6.498  11.803  0.3594 -0.0746  0.2602
  131CHL1    C715891   6.438   6.606  11.997 -0.3941 -0.0568  0.9823
  131CHL1   H7A15892   6.456   6.510  12.050  0.3104  0.0400  0.9281
  131CHL1   H7B15893   6.540   6.650  11.991 -0.2710 -0.5426 -1.1172
  131CHL1    C815894   6.337   6.694  12.074 -0.6083 -0.2622 -0.9693
  131CHL1    H815895   6.258   6.626  12.112  0.3053 -1.8742 -1.8268
  131CHL1   C1415896   6.403   6.752  12.196 -0.3710  0.2545  0.3754
  131CHL1   H1415897   6.481   6.825  12.164  0.2686 -0.2762  0.6989
  131CHL1   C1515898   6.485   6.652  12.285  0.6847 -0.4282 -0.0881
  131CHL1  H15A15899   6.434   6.554  12.287 -0.0562 -0.0740  2.5191
  131CHL1  H15B15900   6.587   6.642  12.242  0.9132 -0.7300  0.5083
  131CHL1   C1615901   6.484   6.715  12.425 -0.5951 -0.5116  0.0979
  131CHL1  H16A15902   6.440   6.639  12.493 -0.2855 -1.1858 -0.4441
  131CHL1  H16B15903   6.590   6.731  12.453 -0.2910 -2.2351  0.0388
  131CHL1   C1715904   6.404   6.845  12.418 -0.3581  0.0070  0.5053
  131CHL1   H1715905   6.471   6.919  12.369 -0.3682 -0.8744 -0.8853
  131CHL1   C1315906   6.306   6.827  12.296 -0.4647  1.2880  1.2199
  131CHL1   C1815907   6.184   6.741  12.343 -0.1815 -0.5371  0.1953
  131CHL1  H18A15908   6.208   6.643  12.390  0.6126 -0.7528 -0.6415
  131CHL1  H18B15909   6.120   6.810  12.403 -0.2975  0.9799 -1.5936
  131CHL1  H18C15910   6.124   6.714  12.254 -0.1366 -0.6988  0.2155
  131CHL1   C1215911   6.264   6.946  12.216  0.5875  0.2650  0.4648
  131CHL1  H12A15912   6.188   7.002  12.274 -0.2499 -0.7374  0.3795
  131CHL1  H12B15913   6.345   7.017  12.191  0.4703  0.1389 -0.2869
  131CHL1   C1115914   6.190   6.901  12.085  0.0010  0.5677 -0.5524
  131CHL1  H11A15915   6.097   6.856  12.126 -0.5257  2.7653  0.8560
  131CHL1  H11B15916   6.152   6.983  12.020 -0.3263  0.5539 -0.3803
  131CHL1    C915917   6.272   6.804  11.993 -0.3154 -0.0228 -0.1381
  131CHL1    H915918   6.352   6.869  11.951 -1.6720  0.9041 -1.4325
  131CHL1   C1015919   6.180   6.750  11.872 -0.3596 -0.1257 -0.2573
  131CHL1   C1915920   6.042   6.691  11.924 -1.5054 -0.0460 -0.8752
  131CHL1  H19A15921   5.986   6.781  11.958  0.0144 -0.0059  1.8114
  131CHL1  H19B15922   5.985   6.635  11.847 -1.9293 -0.9648  0.0858
  131CHL1  H19C15923   6.058   6.627  12.013 -0.6960  1.6543  0.2625
  131CHL1    C115924   6.153   6.854  11.759 -0.2029 -0.9301 -0.2274
  131CHL1   H1A15925   6.091   6.935  11.803  1.4700 -0.1682  0.8171
  131CHL1   H1B15926   6.249   6.907  11.742 -1.9278  2.3412 -0.5562
  131CHL1    C215927   6.099   6.800  11.622 -0.3197  0.6862 -0.0760
  131CHL1   H2A15928   6.091   6.891  11.559  0.7391  2.1863  1.8132
  131CHL1   H2B15929   5.999   6.757  11.640  0.0518 -0.5892 -0.9379
  131CHL1   C2015930   6.343   6.887  12.547  0.6478 -1.0514  0.1168
  131CHL1   H2015931   6.252   6.824  12.563 -0.7710  0.8051 -0.2527
  131CHL1   C2115932   6.297   7.030  12.540  0.2275 -0.4148  0.4708
  131CHL1  H21A15933   6.377   7.106  12.522  0.1945 -0.7048 -1.0761
  131CHL1  H21B15934   6.248   7.060  12.635  0.2926  2.3655 -0.2724
  131CHL1  H21C15935   6.208   7.059  12.479  1.8370  0.4470 -1.5988
  131CHL1   C2215936   6.438   6.861  12.667  1.1380 -0.1027  0.5371
  131CHL1  H22A15937   6.476   6.757  12.669 -0.5469 -0.7548  1.3494
  131CHL1  H22B15938   6.527   6.927  12.665  0.1965  1.2341  0.8196
  131CHL1   C2315939   6.369   6.858  12.804  0.1595 -0.7181 -0.5824
  131CHL1  H23A15940   6.325   6.953  12.842 -2.1587 -1.1204 -2.1022
  131CHL1  H23B15941   6.284   6.788  12.797 -0.8066  0.2442  0.9114
  131CHL1   C2415942   6.478   6.807  12.901 -0.2765 -0.1720 -0.2560
  131CHL1  H24A15943   6.519   6.710  12.865  1.6704  0.1138  1.0327
  131CHL1  H24B15944   6.562   6.880  12.901 -0.8546  0.5395 -2.1587
  131CHL1   C2515945   6.428   6.789  13.049 -0.5989 -0.1204 -0.4915
  131CHL1   H2515946   6.320   6.764  13.050 -0.7409  0.5024  0.1606
  131CHL1   C2615947   6.508   6.669  13.102  0.0385  0.0329 -0.2307
  131CHL1  H26A15948   6.496   6.650  13.211  2.7279  0.0131  0.1326
  131CHL1  H26B15949   6.458   6.584  13.052  1.3771 -0.6117 -0.5042
  131CHL1  H26C15950   6.617   6.675  13.084  0.1905  1.7487  0.9175
  131CHL1   C2715951   6.442   6.914  13.141  0.0829 -0.1445 -0.5791
  131CHL1  H27A15952   6.440   6.900  13.251  1.6570  1.2243 -0.3293
  131CHL1  H27B15953   6.544   6.949  13.114 -0.7694  0.4643 -3.4229
  131CHL1  H27C15954   6.365   6.987  13.106 -0.9458 -0.2677  1.3169
  132CHL1    C315955   3.823   2.184  11.991  0.0351  0.3150 -0.4304
  132CHL1    H315956   3.801   2.293  11.991 -0.6639  0.2242  2.0280
  132CHL1    O315957   3.813   2.136  11.860 -0.1306 -0.0545 -0.7870
  132CHL1   H3'15958   3.719   2.123  11.844 -0.2991  0.0298  0.0800
  132CHL1    C415959   3.974   2.170  12.039 -0.0267 -0.1164 -0.1818
  132CHL1   H4A15960   4.005   2.064  12.026  1.8487  0.3419  0.2106
  132CHL1   H4B15961   4.030   2.240  11.973  0.8694  1.4006  2.0987
  132CHL1    C515962   3.993   2.201  12.182 -0.4107  0.4385 -0.3638
  132CHL1    C615963   4.083   2.301  12.213 -0.4436 -0.1327  0.1217
  132CHL1    H615964   4.153   2.347  12.142 -0.8256  1.9625  1.0102
  132CHL1    C715965   4.118   2.329  12.352 -0.4772 -0.2118 -0.4567
  132CHL1   H7A15966   4.228   2.332  12.361 -0.3375  1.1982 -2.1184
  132CHL1   H7B15967   4.089   2.434  12.372 -1.6702 -0.7388  0.7460
  132CHL1    C815968   4.060   2.234  12.451 -0.2563  0.4509 -0.4218
  132CHL1    H815969   4.123   2.142  12.452  0.1860  0.7550  0.1440
  132CHL1   C1415970   4.061   2.307  12.584 -0.3930  0.3312  0.0939
  132CHL1   H1415971   3.988   2.389  12.569  0.7291  1.2212 -0.7936
  132CHL1   C1515972   4.193   2.374  12.632 -0.1984  0.1083  0.0710
  132CHL1  H15A15973   4.278   2.308  12.605 -0.0218 -0.6923  2.3971
  132CHL1  H15B15974   4.224   2.464  12.575  0.3332 -0.8444 -1.2212
  132CHL1   C1615975   4.167   2.403  12.779  0.0582 -0.1949  0.3535
  132CHL1  H16A15976   4.253   2.370  12.841 -1.0479 -2.1191  0.9449
  132CHL1  H16B15977   4.155   2.513  12.794  1.5397  0.2480 -1.3344
  132CHL1   C1715978   4.027   2.338  12.816 -0.6854 -0.0206  0.5221
  132CHL1   H1715979   3.954   2.419  12.797  1.4381  2.2008  1.3453
  132CHL1   C1315980   4.008   2.230  12.702 -0.5377  0.0127  0.1329
  132CHL1   C1815981   4.104   2.112  12.725 -0.1520  0.3339  0.8568
  132CHL1  H18A15982   4.205   2.146  12.755 -0.2071  1.2158  0.0682
  132CHL1  H18B15983   4.062   2.040  12.800  0.7055 -0.1562  0.8764
  132CHL1  H18C15984   4.123   2.041  12.642 -0.0841 -0.8414  1.8446
  132CHL1   C1215985   3.868   2.183  12.671 -0.0027  0.1813 -0.4910
  132CHL1  H12A15986   3.854   2.101  12.745  0.5722 -0.1619 -0.7580
  132CHL1  H12B15987   3.808   2.277  12.670 -0.7479 -0.1591 -4.0372
  132CHL1   C1115988   3.858   2.106  12.536  0.5473 -0.0174 -0.4799
  132CHL1  H11A15989   3.889   2.001  12.556 -1.6830 -0.4164  1.2743
  132CHL1  H11B15990   3.748   2.104  12.524  0.5057  1.8860 -0.7947
  132CHL1    C915991   3.919   2.189  12.422 -0.4903 -0.3170 -0.7513
  132CHL1    H915992   3.862   2.285  12.423 -2.6593 -1.5234 -1.4330
  132CHL1   C1015993   3.898   2.132  12.279  0.7764 -0.0468  0.4392
  132CHL1   C1915994   3.919   1.984  12.273  0.1828  0.4180 -0.3561
  132CHL1  H19A15995   3.909   1.940  12.171  0.2936 -0.4571  0.0097
  132CHL1  H19B15996   4.018   1.949  12.307 -0.4839 -0.7586  0.4178
  132CHL1  H19C15997   3.842   1.930  12.333  0.3327  2.0260  1.3720
  132CHL1    C115998   3.747   2.157  12.224 -0.1860  0.3272 -0.2053
  132CHL1   H1A15999   3.675   2.099  12.286  0.1131 -0.5331 -0.6574
  132CHL1   H1B16000   3.731   2.266  12.242  2.5665  1.0703 -1.6705
  132CHL1    C216001   3.727   2.115  12.079  0.0287  0.2613 -0.2844
  132CHL1   H2A16002   3.624   2.143  12.048 -0.1137 -1.1436 -1.1722
  132CHL1   H2B16003   3.739   2.007  12.056 -0.2196  0.0051  0.7410
  132CHL1   C2016004   4.009   2.288  12.959  1.5374  0.6198  0.6709
  132CHL1   H2016005   4.067   2.194  12.960  0.6403 -0.0001 -1.0621
  132CHL1   C2116006   3.851   2.273  12.980 -0.3151 -0.5912  0.2296
  132CHL1  H21A16007   3.843   2.351  13.058  2.4156  0.4138 -0.3874
  132CHL1  H21B16008   3.818   2.174  13.019  0.4989  0.1603  3.0409
  132CHL1  H21C16009   3.795   2.300  12.888  2.5997  0.3287 -1.4033
  132CHL1   C2216010   4.060   2.389  13.074  0.4031 -0.5339  0.4282
  132CHL1  H22A16011   4.169   2.408  13.062  0.4323  1.0467  2.5510
  132CHL1  H22B16012   3.997   2.479  13.056 -0.9480 -1.1095  1.9968
  132CHL1   C2316013   4.042   2.344  13.220  0.3682  0.3697  0.0174
  132CHL1  H23A16014   3.940   2.321  13.257  0.9693 -0.5824  1.1614
  132CHL1  H23B16015   4.086   2.243  13.233 -1.2874 -0.3193  0.5612
  132CHL1   C2416016   4.116   2.436  13.320  0.7105 -0.2591  0.1279
  132CHL1  H24A16017   4.222   2.459  13.299  1.0093  0.2275  2.0145
  132CHL1  H24B16018   4.071   2.538  13.324  1.0154 -0.1524  2.8243
  132CHL1   C2516019   4.100   2.396  13.463  0.6931  0.0663  0.2800
  132CHL1   H2516020   3.995   2.361  13.470  0.4354  1.1085  2.5762
  132CHL1   C2616021   4.191   2.284  13.495  0.4191  0.0871  0.2742
  132CHL1  H26A16022   4.291   2.290  13.448  2.9124 -2.5286  4.5487
  132CHL1  H26B16023   4.207   2.259  13.602 -0.8145 -1.2803  0.1721
  132CHL1  H26C16024   4.137   2.190  13.469 -1.1997  1.1544 -0.3899
  132CHL1   C2716025   4.128   2.513  13.561  1.2105  0.0859  0.1349
  132CHL1  H27A16026   4.231   2.554  13.558  1.4832 -0.6588 -1.6217
  132CHL1  H27B16027   4.053   2.594  13.548 -0.1572 -1.1161  0.1800
  132CHL1  H27C16028   4.097   2.458  13.653 -1.4182 -3.1619 -2.4184
  133CHL1    C316029   0.735   4.344  12.239 -0.0481 -0.2251  0.2564
  133CHL1    H316030   0.682   4.441  12.249  1.8241  1.1070 -1.7304
  133CHL1    O316031   0.746   4.327  12.101  0.2562 -0.4420 -0.0089
  133CHL1   H3'16032   0.797   4.246  12.093  1.6190  0.3317  0.5292
  133CHL1    C416033   0.871   4.364  12.305 -0.1832 -0.0712 -0.0890
  133CHL1   H4A16034   0.920   4.265  12.298  0.3829  0.2480 -0.8979
  133CHL1   H4B16035   0.920   4.442  12.243  1.5363 -1.1726 -0.1792
  133CHL1    C516036   0.854   4.402  12.453 -0.2850 -0.2456  0.2283
  133CHL1    C616037   0.907   4.519  12.498 -0.2606  0.4207 -0.2343
  133CHL1    H616038   0.974   4.571  12.428  0.7229 -0.4880  0.0024
  133CHL1    C716039   0.894   4.559  12.642  0.1756 -0.1378  0.3985
  133CHL1   H7A16040   0.987   4.603  12.685 -0.0020 -0.7566  1.4581
  133CHL1   H7B16041   0.809   4.631  12.644  0.5823  0.5281 -2.1765
  133CHL1    C816042   0.864   4.445  12.742  0.5839  0.2426 -0.4040
  133CHL1    H816043   0.956   4.382  12.744  0.9347  0.6573 -1.9355
  133CHL1   C1416044   0.822   4.495  12.883 -1.3096 -0.0695  0.2324
  133CHL1   H1416045   0.731   4.557  12.870 -1.0241  0.2423 -0.2927
  133CHL1   C1516046   0.931   4.578  12.958  0.0529  0.2629  0.0403
  133CHL1  H15A16047   1.031   4.539  12.929 -0.1828 -1.3396  1.2621
  133CHL1  H15B16048   0.923   4.683  12.922  1.0101  0.2879 -0.1099
  133CHL1   C1616049   0.910   4.552  13.103 -0.9248 -0.2692 -0.0718
  133CHL1  H16A16050   1.003   4.505  13.141 -0.8146  0.4173  0.5351
  133CHL1  H16B16051   0.895   4.643  13.164 -2.7516 -0.0212 -0.8292
  133CHL1   C1716052   0.789   4.458  13.109 -0.2733  0.6347  0.2718
  133CHL1   H1716053   0.711   4.537  13.104  0.7185  1.5747 -1.3187
  133CHL1   C1316054   0.793   4.373  12.977  0.0219  0.0013 -0.9874
  133CHL1   C1816055   0.915   4.272  12.980  0.5458 -0.2053 -0.7406
  133CHL1  H18A16056   1.002   4.317  13.032  0.8180 -0.2126 -1.1803
  133CHL1  H18B16057   0.881   4.182  13.035  0.8268  0.3639  0.4012
  133CHL1  H18C16058   0.947   4.232  12.882  1.3005  0.6350 -0.8535
  133CHL1   C1216059   0.665   4.305  12.926 -0.4477 -0.5030 -0.5070
  133CHL1  H12A16060   0.629   4.224  12.991 -1.8630  2.4836  2.7620
  133CHL1  H12B16061   0.588   4.385  12.934  1.0048  0.8964 -0.0061
  133CHL1   C1116062   0.685   4.257  12.781  0.5862  0.2083 -0.8518
  133CHL1  H11A16063   0.747   4.166  12.796 -1.4696 -1.0642  0.3925
  133CHL1  H11B16064   0.589   4.218  12.743  0.8920 -2.4231  0.8421
  133CHL1    C916065   0.742   4.363  12.683 -0.1284 -0.1952  0.0726
  133CHL1    H916066   0.662   4.439  12.667  0.6576  0.2563 -2.0412
  133CHL1   C1016067   0.767   4.307  12.536 -0.4428  0.0359 -0.2883
  133CHL1   C1916068   0.844   4.172  12.558  0.2073 -0.7237  0.0761
  133CHL1  H19A16069   0.895   4.143  12.463 -0.2785  0.3790 -0.5447
  133CHL1  H19B16070   0.921   4.179  12.637  1.3673  0.2015 -1.0805
  133CHL1  H19C16071   0.768   4.091  12.564 -0.9512  0.2527 -0.6445
  133CHL1    C116072   0.630   4.281  12.460 -0.7350 -0.6388 -0.0077
  133CHL1   H1A16073   0.582   4.202  12.521  0.9750 -1.7418 -0.0254
  133CHL1   H1B16074   0.572   4.376  12.464  0.3555  0.2612 -2.8364
  133CHL1    C216075   0.635   4.240  12.310  0.0563 -0.0908  0.4422
  133CHL1   H2A16076   0.538   4.259  12.260 -0.1646 -1.3823  0.3534
  133CHL1   H2B16077   0.683   4.140  12.300  1.8881  0.9224 -1.6432
  133CHL1   C2016078   0.772   4.369  13.234 -0.4030  0.2951 -0.3865
  133CHL1   H2016079   0.802   4.267  13.205  0.5778  0.8050 -1.2379
  133CHL1   C2116080   0.622   4.373  13.268 -0.2419  0.2610  0.8142
  133CHL1  H21A16081   0.602   4.332  13.370 -1.5160 -1.7068 -0.1627
  133CHL1  H21B16082   0.569   4.311  13.194  0.9757  0.7814 -0.5518
  133CHL1  H21C16083   0.584   4.477  13.268 -0.9849  0.0213 -0.9638
  133CHL1   C2216084   0.854   4.403  13.361 -0.4964 -0.7294  0.3864
  133CHL1  H22A16085   0.956   4.439  13.337 -2.3719  4.0215 -1.5951
  133CHL1  H22B16086   0.797   4.476  13.423 -1.7438 -1.3974  0.0487
  133CHL1   C2316087   0.871   4.285  13.465  0.0788  0.2095 -0.0613
  133CHL1  H23A16088   0.769   4.241  13.475 -0.1810  0.4089 -1.5814
  133CHL1  H23B16089   0.943   4.214  13.417  0.1939  0.3308 -0.0672
  133CHL1   C2416090   0.915   4.329  13.602 -0.7967  0.0641  0.4657
  133CHL1  H24A16091   1.021   4.363  13.599 -0.9145  0.4643  0.7791
  133CHL1  H24B16092   0.851   4.419  13.615  0.2699  1.3102 -2.2102
  133CHL1   C2516093   0.897   4.220  13.711 -0.1066 -0.9626 -0.0728
  133CHL1   H2516094   0.788   4.205  13.726 -0.1277 -0.5695  0.1650
  133CHL1   C2616095   0.965   4.085  13.674 -0.6877 -0.1474  0.4463
  133CHL1  H26A16096   0.927   4.057  13.574 -2.2151 -0.7847  1.1673
  133CHL1  H26B16097   1.075   4.095  13.674 -0.7432  0.5211 -0.1464
  133CHL1  H26C16098   0.924   4.018  13.753 -1.8829 -0.9277 -0.7771
  133CHL1   C2716099   0.940   4.268  13.844 -0.0902 -0.2949 -0.5928
  133CHL1  H27A16100   1.048   4.290  13.853 -0.0294 -1.3283  4.2116
  133CHL1  H27B16101   0.889   4.365  13.864 -0.8565 -0.5698 -1.1726
  133CHL1  H27C16102   0.921   4.188  13.919 -0.5548  1.2776  1.0492
  134CHL1    C316103   4.608   4.441  12.229  0.7170  0.1003 -0.2906
  134CHL1    H316104   4.687   4.370  12.198 -1.0591 -2.6232  1.0084
  134CHL1    O316105   4.577   4.530  12.125  0.2668  0.0855 -0.2423
  134CHL1   H3'16106   4.531   4.474  12.062 -1.8890  1.2035  0.2421
  134CHL1    C416107   4.474   4.362  12.260 -0.4561 -0.1125  0.5710
  134CHL1   H4A16108   4.405   4.447  12.278  2.2365  2.0577  1.2815
  134CHL1   H4B16109   4.440   4.305  12.171  0.4172  0.6032 -0.2395
  134CHL1    C516110   4.488   4.282  12.388  0.1290  0.5391 -0.1978
  134CHL1    C616111   4.478   4.147  12.391  0.7919  0.0497 -0.6829
  134CHL1    H616112   4.440   4.095  12.302 -0.6211 -1.3578  0.6569
  134CHL1    C716113   4.485   4.064  12.517 -0.0777 -0.3704 -0.2026
  134CHL1   H7A16114   4.401   3.992  12.531 -0.0744  0.0093  2.2391
  134CHL1   H7B16115   4.581   4.010  12.531  1.0244  1.5241 -0.0887
  134CHL1    C816116   4.478   4.151  12.647  0.1802  0.0116 -0.0754
  134CHL1    H816117   4.377   4.195  12.655 -0.0996 -0.6653  0.1470
  134CHL1   C1416118   4.501   4.074  12.773 -0.3521 -0.0823  0.0692
  134CHL1   H1416119   4.588   4.007  12.761 -0.0981 -0.2418  2.3442
  134CHL1   C1516120   4.400   3.964  12.820  0.9063 -0.4039  0.2617
  134CHL1  H15A16121   4.299   4.010  12.832  0.4515 -1.2586 -0.2526
  134CHL1  H15B16122   4.404   3.885  12.743  1.2944 -0.1473  0.0102
  134CHL1   C1616123   4.449   3.922  12.960 -0.2396 -0.0936 -0.4393
  134CHL1  H16A16124   4.360   3.902  13.025 -0.5456  1.0710 -0.4823
  134CHL1  H16B16125   4.508   3.829  12.945 -0.0826 -0.4997  2.0941
  134CHL1   C1716126   4.558   4.031  13.007  0.0219 -0.3620 -0.1142
  134CHL1   H1716127   4.662   3.998  12.989  0.3404  0.4774  0.1556
  134CHL1   C1316128   4.535   4.146  12.903 -0.9319  0.1012  0.6971
  134CHL1   C1816129   4.412   4.230  12.956 -0.3207 -0.0226  0.0864
  134CHL1  H18A16130   4.341   4.174  13.020 -0.0562  2.5968  2.8865
  134CHL1  H18B16131   4.454   4.302  13.029  0.8238 -2.6256  2.1600
  134CHL1  H18C16132   4.350   4.275  12.875 -3.0700 -0.3839  1.8650
  134CHL1   C1216133   4.659   4.227  12.868  0.1595  0.0049  0.2151
  134CHL1  H12A16134   4.696   4.289  12.952 -0.9179 -0.2829  0.9228
  134CHL1  H12B16135   4.742   4.165  12.828 -1.7757 -1.4347 -1.7819
  134CHL1   C1116136   4.616   4.334  12.767 -0.0506 -0.0503  0.5542
  134CHL1  H11A16137   4.538   4.406  12.801 -0.5140  0.7098 -1.9343
  134CHL1  H11B16138   4.711   4.390  12.748 -0.3553  0.3207  0.0934
  134CHL1    C916139   4.577   4.271  12.633  0.1426 -0.3785 -0.0772
  134CHL1    H916140   4.676   4.229  12.604  0.5682  1.2567 -1.1482
  134CHL1   C1016141   4.541   4.367  12.510  0.2018 -0.0781 -0.8238
  134CHL1   C1916142   4.421   4.454  12.550  0.7083  0.2070  0.3925
  134CHL1  H19A16143   4.388   4.526  12.472  0.2532 -0.5121 -0.0785
  134CHL1  H19B16144   4.333   4.394  12.582  0.1151 -1.6166 -3.9932
  134CHL1  H19C16145   4.441   4.520  12.637 -0.9384 -2.1370  2.6984
  134CHL1    C116146   4.672   4.444  12.474  0.4890  0.1942 -0.9161
  134CHL1   H1A16147   4.700   4.505  12.562 -0.6491 -1.3193  0.5591
  134CHL1   H1B16148   4.753   4.369  12.460 -0.7171 -1.0224 -1.6543
  134CHL1    C216149   4.653   4.531  12.354 -0.3266 -0.0809 -0.4328
  134CHL1   H2A16150   4.751   4.575  12.326 -0.3154 -0.4167 -0.9507
  134CHL1   H2B16151   4.577   4.608  12.376 -0.8280 -0.1330 -1.8857
  134CHL1   C2016152   4.558   4.059  13.160 -0.6431  0.1903 -0.4395
  134CHL1   H2016153   4.467   4.118  13.186  0.2523  1.1840  0.5434
  134CHL1   C2116154   4.673   4.150  13.202 -0.5848  0.6141  0.2765
  134CHL1  H21A16155   4.687   4.160  13.312  2.6951  0.9449 -0.0646
  134CHL1  H21B16156   4.661   4.247  13.151  2.0519  0.4314 -0.8576
  134CHL1  H21C16157   4.768   4.108  13.162  0.5467  1.3268  2.0465
  134CHL1   C2216158   4.555   3.929  13.239  0.2303 -0.0519 -0.2406
  134CHL1  H22A16159   4.468   3.868  13.208  0.3020  0.0002 -0.5545
  134CHL1  H22B16160   4.646   3.867  13.223 -0.3430 -0.8642 -0.4134
  134CHL1   C2316161   4.557   3.952  13.390 -0.6261  0.8574 -0.1320
  134CHL1  H23A16162   4.661   3.981  13.414 -0.9033  0.1754  2.1225
  134CHL1  H23B16163   4.493   4.038  13.418 -0.0781  1.0719  0.4991
  134CHL1   C2416164   4.510   3.818  13.455  0.4059  0.3498 -0.5546
  134CHL1  H24A16165   4.400   3.815  13.439  0.4939 -1.4624 -1.1095
  134CHL1  H24B16166   4.554   3.734  13.396  0.7876  0.5639 -0.5777
  134CHL1   C2516167   4.555   3.823  13.602  0.1141 -0.0752 -0.2352
  134CHL1   H2516168   4.663   3.847  13.609  0.4375 -1.3128 -0.7097
  134CHL1   C2616169   4.478   3.925  13.687 -0.4373 -1.0816  0.2828
  134CHL1  H26A16170   4.491   4.026  13.643  1.3914 -2.0761 -1.6161
  134CHL1  H26B16171   4.368   3.906  13.688 -1.0246  1.7922  1.7789
  134CHL1  H26C16172   4.518   3.928  13.790 -0.7198 -1.5039  0.4091
  134CHL1   C2716173   4.537   3.686  13.665  0.5484  0.1527  0.1130
  134CHL1  H27A16174   4.586   3.669  13.764 -3.2962  1.3084  2.4642
  134CHL1  H27B16175   4.430   3.661  13.679  0.9224 -0.9813  1.2196
  134CHL1  H27C16176   4.571   3.605  13.598 -1.0400 -0.4709  0.0153
  135CHL1    C316177   5.270   4.005  12.025  0.3674  0.3710  0.7452
  135CHL1    H316178   5.181   4.048  12.076  0.3660 -0.6427  1.6374
  135CHL1    O316179   5.253   4.024  11.886 -0.1253 -0.0139 -0.0456
  135CHL1   H3'16180   5.269   3.936  11.851  0.9631  0.4887 -0.9009
  135CHL1    C416181   5.401   4.078  12.070  0.7479  0.0596 -0.8947
  135CHL1   H4A16182   5.486   4.037  12.011  2.4035 -0.0219  1.4055
  135CHL1   H4B16183   5.396   4.188  12.055  3.6421  0.5370  0.8224
  135CHL1    C516184   5.422   4.055  12.216 -0.0846 -0.2261  0.0414
  135CHL1    C616185   5.439   4.159  12.296 -0.0194 -0.0694  0.0397
  135CHL1    H616186   5.445   4.262  12.258  0.2149  0.9633  2.6784
  135CHL1    C716187   5.449   4.146  12.446  0.0846  0.5110 -0.1561
  135CHL1   H7A16188   5.519   4.220  12.490 -0.3544  0.8066  0.0494
  135CHL1   H7B16189   5.355   4.166  12.501  0.3840 -1.5334  1.1869
  135CHL1    C816190   5.498   4.002  12.489 -0.3860 -0.1422  0.9298
  135CHL1    H816191   5.605   3.995  12.460 -0.2912 -1.1813  1.4739
  135CHL1   C1416192   5.492   3.988  12.644 -0.2712  0.2904 -0.7054
  135CHL1   H1416193   5.383   3.996  12.659 -0.1876  0.7746 -0.3258
  135CHL1   C1516194   5.559   4.091  12.735 -0.4586  0.6158 -0.4512
  135CHL1  H15A16195   5.666   4.104  12.707  0.5759 -1.4774  2.1162
  135CHL1  H15B16196   5.512   4.191  12.722 -1.2645  0.2965 -0.0744
  135CHL1   C1616197   5.531   4.029  12.869  0.0147 -0.0694 -0.6314
  135CHL1  H16A16198   5.617   4.060  12.932 -2.8127 -0.3931  3.7946
  135CHL1  H16B16199   5.439   4.072  12.914  1.3204  0.4394  1.7489
  135CHL1   C1716200   5.515   3.881  12.857 -0.2788 -0.5789 -0.3659
  135CHL1   H1716201   5.406   3.867  12.874  0.1632 -0.7425  2.9899
  135CHL1   C1316202   5.533   3.850  12.700  0.1410  0.0767 -0.3217
  135CHL1   C1816203   5.682   3.830  12.675  1.1870 -0.3585  0.3210
  135CHL1  H18A16204   5.706   3.844  12.568 -0.8762  1.7240  0.0704
  135CHL1  H18B16205   5.754   3.895  12.730  1.7390 -1.9059  1.5198
  135CHL1  H18C16206   5.704   3.728  12.714 -0.7234 -0.6722  0.6833
  135CHL1   C1216207   5.442   3.745  12.637 -1.1030  0.1273 -0.0971
  135CHL1  H12A16208   5.481   3.645  12.665 -1.6638 -0.2682 -0.6921
  135CHL1  H12B16209   5.335   3.746  12.667 -0.8275  0.9740  0.9662
  135CHL1   C1116210   5.449   3.752  12.482 -0.0684  0.2012  0.2696
  135CHL1  H11A16211   5.547   3.717  12.444 -0.2535  1.5718 -1.6536
  135CHL1  H11B16212   5.380   3.679  12.436  1.5711 -1.0809 -0.2251
  135CHL1    C916213   5.416   3.895  12.420 -0.2813 -0.1504 -0.2629
  135CHL1    H916214   5.317   3.925  12.461  0.3141  1.2761  0.2236
  135CHL1   C1016215   5.415   3.909  12.267 -0.2004  0.2559  0.2981
  135CHL1   C1916216   5.543   3.851  12.200 -0.7388  0.6005 -0.6621
  135CHL1  H19A16217   5.555   3.746  12.233 -1.9707  0.3069 -1.0928
  135CHL1  H19B16218   5.538   3.830  12.091  2.2933 -1.5585 -0.4958
  135CHL1  H19C16219   5.637   3.901  12.231 -0.7722 -0.6133  1.6633
  135CHL1    C116220   5.297   3.829  12.205  0.4026 -0.2755  0.4340
  135CHL1   H1A16221   5.306   3.719  12.216 -1.0362 -0.5145 -0.5277
  135CHL1   H1B16222   5.201   3.863  12.249  0.3190  1.4120 -0.9467
  135CHL1    C216223   5.272   3.851  12.056  0.6573 -0.3330 -0.0198
  135CHL1   H2A16224   5.181   3.807  12.009 -0.1100  0.4281  0.7201
  135CHL1   H2B16225   5.350   3.792  12.002 -0.3596 -0.7439 -1.1027
  135CHL1   C2016226   5.601   3.806  12.959  0.4668  0.1995 -0.3910
  135CHL1   H2016227   5.706   3.796  12.924  0.4404  2.1470 -1.1388
  135CHL1   C2116228   5.534   3.670  12.972  0.2577 -0.4767 -0.2412
  135CHL1  H21A16229   5.426   3.666  12.998  0.5852  0.6526  1.4371
  135CHL1  H21B16230   5.590   3.619  13.053  0.2100 -1.0026 -0.5398
  135CHL1  H21C16231   5.544   3.614  12.876  1.3761  0.1832 -0.5295
  135CHL1   C2216232   5.598   3.863  13.104  0.5202 -0.2473 -0.1195
  135CHL1  H22A16233   5.650   3.797  13.177 -0.0027 -2.2471 -1.4709
  135CHL1  H22B16234   5.657   3.957  13.105 -0.1568  0.1856  1.6934
  135CHL1   C2316235   5.464   3.879  13.176 -0.0957 -0.0917  0.3267
  135CHL1  H23A16236   5.404   3.961  13.130 -0.7977  0.2557  1.7885
  135CHL1  H23B16237   5.404   3.787  13.193 -0.1052 -0.4890 -1.6141
  135CHL1   C2416238   5.497   3.925  13.328  0.5142  0.1756  0.3605
  135CHL1  H24A16239   5.567   3.848  13.367  0.8787 -1.0312 -2.4417
  135CHL1  H24B16240   5.547   4.023  13.314  1.4594 -0.0939  1.6490
  135CHL1   C2516241   5.377   3.935  13.421  0.0510  0.1228  0.4583
  135CHL1   H2516242   5.311   3.848  13.401  0.7729 -0.7157  1.5997
  135CHL1   C2616243   5.409   3.934  13.569  0.1919 -0.0975  0.2291
  135CHL1  H26A16244   5.464   3.846  13.608 -0.1285 -0.4351 -0.0749
  135CHL1  H26B16245   5.457   4.033  13.582 -0.4886  0.3260 -0.3790
  135CHL1  H26C16246   5.313   3.948  13.623 -1.2244 -0.3480 -2.0841
  135CHL1   C2716247   5.300   4.070  13.382 -0.4549 -0.1071  0.2487
  135CHL1  H27A16248   5.272   4.090  13.276  0.1334 -0.3497  0.0377
  135CHL1  H27B16249   5.202   4.070  13.434 -0.5753 -1.1153  0.0521
  135CHL1  H27C16250   5.360   4.158  13.412  0.5825 -0.7895  0.2321
  136CHL1    C316251   3.903   2.785  12.286  0.0839  0.1134 -0.1213
  136CHL1    H316252   3.824   2.707  12.281 -0.1642  0.4136 -1.0785
  136CHL1    O316253   3.944   2.805  12.153  0.2679  0.3572  0.1695
  136CHL1   H3'16254   4.015   2.868  12.161  0.4066  0.3208 -0.6727
  136CHL1    C416255   3.848   2.915  12.349 -0.1732  0.5891  0.7792
  136CHL1   H4A16256   3.927   2.993  12.345 -0.8362  1.3495  1.8763
  136CHL1   H4B16257   3.768   2.947  12.280  0.8064 -1.8621 -1.6889
  136CHL1    C516258   3.810   2.887  12.494  0.2829 -0.6916 -0.2596
  136CHL1    C616259   3.687   2.926  12.540 -0.6094  0.6641 -0.2500
  136CHL1    H616260   3.621   2.983  12.474 -2.1701  0.0153  0.6780
  136CHL1    C716261   3.652   2.910  12.690 -0.3296  0.0108  0.5736
  136CHL1   H7A16262   3.586   2.991  12.728  0.0673  0.6876 -0.1483
  136CHL1   H7B16263   3.590   2.819  12.701  0.3879 -0.4899  0.5523
  136CHL1    C816264   3.768   2.887  12.789  0.4444  0.3542  0.3283
  136CHL1    H816265   3.824   2.983  12.793  2.9286 -0.8663 -1.6433
  136CHL1   C1416266   3.718   2.839  12.925 -0.1890  0.2917  0.1149
  136CHL1   H1416267   3.677   2.737  12.913  2.4380 -0.8021 -0.1752
  136CHL1   C1516268   3.610   2.925  12.997  0.2887  0.0821  0.5411
  136CHL1  H15A16269   3.631   3.034  13.000 -1.0210  0.3372  1.7383
  136CHL1  H15B16270   3.513   2.914  12.944  0.8106 -2.9099  0.0062
  136CHL1   C1616271   3.611   2.861  13.144 -0.4607 -1.1979  0.7285
  136CHL1  H16A16272   3.601   2.941  13.220 -0.2814 -0.6921  0.2284
  136CHL1  H16B16273   3.521   2.796  13.148 -1.8935  0.6297  0.0201
  136CHL1   C1716274   3.742   2.780  13.145  0.2286  0.4357 -0.1116
  136CHL1   H1716275   3.705   2.678  13.123 -2.1829  0.4149  3.1879
  136CHL1   C1316276   3.829   2.829  13.029 -0.3352  0.4057  0.3436
  136CHL1   C1816277   3.902   2.956  13.074  0.6698  0.7526  0.2241
  136CHL1  H18A16278   3.944   3.015  12.989  2.3186 -2.7085 -1.5516
  136CHL1  H18B16279   3.831   3.027  13.122  1.1801  2.0307 -0.8374
  136CHL1  H18C16280   3.987   2.925  13.138  2.5068  0.7647 -2.0530
  136CHL1   C1216281   3.932   2.729  12.976  0.4283  0.2286  1.1955
  136CHL1  H12A16282   4.019   2.724  13.044  1.5939 -0.7451 -0.2928
  136CHL1  H12B16283   3.896   2.625  12.964  2.0845 -0.1415 -1.4699
  136CHL1   C1116284   3.986   2.773  12.833  0.5380 -0.1548  0.1842
  136CHL1  H11A16285   4.037   2.870  12.849 -0.5228  0.5224 -0.3778
  136CHL1  H11B16286   4.056   2.696  12.796 -0.1836 -0.7633  0.0523
  136CHL1    C916287   3.873   2.789  12.729 -0.1674  0.4130 -0.5347
  136CHL1    H916288   3.832   2.686  12.732 -1.8007  0.9807 -1.8816
  136CHL1   C1016289   3.914   2.815  12.593  0.1479 -0.3785 -0.5221
  136CHL1   C1916290   4.030   2.922  12.598 -0.4799 -0.3861 -0.2901
  136CHL1  H19A16291   3.983   3.013  12.640  2.5399  1.0172  0.3179
  136CHL1  H19B16292   4.115   2.885  12.659 -0.7221 -1.1648 -0.4096
  136CHL1  H19C16293   4.064   2.951  12.496  0.3442 -0.0728  0.0694
  136CHL1    C116294   3.967   2.689  12.514  0.5628 -0.5327 -0.3243
  136CHL1   H1A16295   4.046   2.634  12.569 -0.0103  0.3127  1.3914
  136CHL1   H1B16296   3.881   2.622  12.492 -1.1188  1.4100  0.0521
  136CHL1    C216297   4.015   2.724  12.370  0.6667 -0.2157 -0.1099
  136CHL1   H2A16298   4.052   2.637  12.311 -0.7269 -0.8202 -0.1276
  136CHL1   H2B16299   4.090   2.806  12.371  0.9866 -0.5045 -0.3464
  136CHL1   C2016300   3.799   2.756  13.287 -0.4967 -0.0182 -0.0780
  136CHL1   H2016301   3.903   2.723  13.267 -0.7357 -0.8757  0.0560
  136CHL1   C2116302   3.724   2.637  13.345  0.2294 -0.5038 -0.5011
  136CHL1  H21A16303   3.630   2.674  13.390  1.4857 -0.7180  2.6208
  136CHL1  H21B16304   3.788   2.593  13.425 -2.1491 -0.1673  1.6952
  136CHL1  H21C16305   3.721   2.551  13.274  0.2274 -1.9956  1.2161
  136CHL1   C2216306   3.806   2.873  13.385 -0.4821  0.0406 -0.1906
  136CHL1  H22A16307   3.846   2.963  13.334 -1.2574  0.2736 -0.3959
  136CHL1  H22B16308   3.704   2.899  13.418 -0.5387 -0.6771  0.2233
  136CHL1   C2316309   3.885   2.841  13.514 -0.4123 -0.0215  0.5443
  136CHL1  H23A16310   3.844   2.750  13.561  0.6323 -1.2822 -0.8837
  136CHL1  H23B16311   3.983   2.802  13.481 -0.5997 -0.9489  1.0710
  136CHL1   C2416312   3.902   2.952  13.614 -0.6510  0.1507 -0.1496
  136CHL1  H24A16313   3.959   2.924  13.705 -0.5573  0.8965  0.0294
  136CHL1  H24B16314   3.957   3.040  13.574 -1.1013  0.5990  0.1936
  136CHL1   C2516315   3.770   3.002  13.671 -0.4633  0.2230 -0.1224
  136CHL1   H2516316   3.688   3.004  13.596 -1.1668 -3.2711  0.3833
  136CHL1   C2616317   3.709   2.894  13.763  0.7036 -0.2934  0.3193
  136CHL1  H26A16318   3.679   2.815  13.691  1.7372 -0.2275 -0.2035
  136CHL1  H26B16319   3.773   2.869  13.851  0.1247  0.9365  1.1088
  136CHL1  H26C16320   3.616   2.939  13.803  0.8437 -0.2887  0.6466
  136CHL1   C2716321   3.792   3.138  13.740  0.2018 -0.1191 -0.4256
  136CHL1  H27A16322   3.705   3.175  13.798  0.7694 -1.5078  1.4031
  136CHL1  H27B16323   3.878   3.135  13.811  0.8340  0.3291 -1.1679
  136CHL1  H27C16324   3.809   3.221  13.668  1.3922  1.7171  1.8240
  137CHL1    C316325   0.654   3.202  12.289 -0.2891 -0.2870 -0.6618
  137CHL1    H316326   0.618   3.307  12.277 -0.0172 -0.1336 -0.1533
  137CHL1    O316327   0.677   3.145  12.158 -0.2503  0.2991 -0.5826
  137CHL1   H3'16328   0.694   3.052  12.177 -1.4298  0.1063 -0.3885
  137CHL1    C416329   0.774   3.198  12.377 -0.6482  0.1317 -0.7262
  137CHL1   H4A16330   0.799   3.089  12.374  2.1578  0.7031 -1.0572
  137CHL1   H4B16331   0.853   3.254  12.323 -2.7531  1.6617 -2.3821
  137CHL1    C516332   0.743   3.247  12.520 -0.5342 -0.0304  0.0368
  137CHL1    C616333   0.815   3.345  12.575 -0.8466 -0.1481  0.4550
  137CHL1    H616334   0.898   3.385  12.515 -0.8406 -0.6679  0.1077
  137CHL1    C716335   0.815   3.397  12.713  0.1396 -0.0709  0.8899
  137CHL1   H7A16336   0.917   3.377  12.752  1.0511  0.7474 -0.9477
  137CHL1   H7B16337   0.792   3.506  12.717 -2.4055 -0.5616  0.8305
  137CHL1    C816338   0.705   3.322  12.793 -0.3037  0.2900  0.1496
  137CHL1    H816339   0.752   3.223  12.810 -1.9370 -0.2872  1.5854
  137CHL1   C1416340   0.672   3.392  12.923  0.4411 -0.2697  0.2192
  137CHL1   H1416341   0.622   3.484  12.888 -1.7364 -1.3954  0.2064
  137CHL1   C1516342   0.796   3.425  13.004 -0.1625  0.2645 -0.4040
  137CHL1  H15A16343   0.862   3.337  13.019 -0.3604  0.4427  1.8545
  137CHL1  H15B16344   0.845   3.515  12.962 -1.6842  1.9184  1.1502
  137CHL1   C1616345   0.740   3.465  13.136  0.5404  0.2542  0.3377
  137CHL1  H16A16346   0.777   3.404  13.221 -1.4213 -0.2066  0.9181
  137CHL1  H16B16347   0.757   3.572  13.159  0.3379  0.3766 -0.0665
  137CHL1   C1716348   0.588   3.427  13.133 -0.0608  0.9239  0.7536
  137CHL1   H1716349   0.541   3.521  13.097  0.2330  0.5482 -0.6769
  137CHL1   C1316350   0.566   3.326  13.012  0.1914  0.1654 -0.5570
  137CHL1   C1816351   0.622   3.187  13.052 -0.7735 -0.1514 -0.0888
  137CHL1  H18A16352   0.717   3.199  13.107 -0.1939 -4.7362  0.2887
  137CHL1  H18B16353   0.545   3.135  13.113 -1.1917 -0.1216 -0.5866
  137CHL1  H18C16354   0.642   3.117  12.968  2.7289  0.3028  0.2353
  137CHL1   C1216355   0.437   3.326  12.931 -0.1362 -0.2526  0.0063
  137CHL1  H12A16356   0.349   3.283  12.982 -0.3597 -0.8006 -0.8267
  137CHL1  H12B16357   0.404   3.430  12.905  0.4395  0.3573  1.6133
  137CHL1   C1116358   0.459   3.237  12.800  0.8041 -0.2980 -0.7527
  137CHL1  H11A16359   0.474   3.133  12.838 -1.1012  0.5701  2.9505
  137CHL1  H11B16360   0.366   3.242  12.739  0.2213  1.4364  0.1951
  137CHL1    C916361   0.580   3.281  12.713 -1.4146 -0.4952 -0.7162
  137CHL1    H916362   0.536   3.373  12.670  0.4244 -0.4573 -2.7005
  137CHL1   C1016363   0.616   3.190  12.597 -0.4030  0.2325 -0.3016
  137CHL1   C1916364   0.657   3.049  12.642  0.5375 -0.5166  0.5234
  137CHL1  H19A16365   0.678   2.978  12.558  0.9793 -0.7445  0.8230
  137CHL1  H19B16366   0.744   3.048  12.710  0.3915  0.3915  0.7348
  137CHL1  H19C16367   0.564   3.009  12.688 -0.0572  0.4942  0.2370
  137CHL1    C116368   0.502   3.194  12.487 -0.0397  0.2121  0.0445
  137CHL1   H1A16369   0.407   3.148  12.521  0.1673 -0.1343  0.1569
  137CHL1   H1B16370   0.491   3.304  12.477  3.5234  0.8431  1.4963
  137CHL1    C216371   0.536   3.129  12.350  0.3399 -0.0604  0.8897
  137CHL1   H2A16372   0.450   3.141  12.280 -1.2643  2.2389  3.0369
  137CHL1   H2B16373   0.553   3.020  12.358 -0.2121 -0.0463  2.8116
  137CHL1   C2016374   0.527   3.379  13.268 -0.1638  0.6779 -0.2703
  137CHL1   H2016375   0.571   3.283  13.303  0.9905  1.6875  1.1924
  137CHL1   C2116376   0.374   3.358  13.263 -0.4661 -0.1561 -0.1851
  137CHL1  H21A16377   0.366   3.259  13.212  1.9521 -0.0281 -0.9477
  137CHL1  H21B16378   0.334   3.440  13.199  0.2345  0.6705  0.4218
  137CHL1  H21C16379   0.324   3.356  13.362 -0.9455  1.9283 -0.3347
  137CHL1   C2216380   0.562   3.481  13.376  0.1535  0.4227 -1.0486
  137CHL1  H22A16381   0.673   3.486  13.381  0.2129 -1.3137  1.5706
  137CHL1  H22B16382   0.526   3.582  13.346  0.2480 -0.2015 -3.4284
  137CHL1   C2316383   0.509   3.460  13.518  0.1830 -0.0085  0.4154
  137CHL1  H23A16384   0.565   3.526  13.587 -1.4944 -0.5311  2.3913
  137CHL1  H23B16385   0.403   3.494  13.522  0.6026  1.3267  0.6548
  137CHL1   C2416386   0.513   3.319  13.576 -0.4720  0.1900  0.3048
  137CHL1  H24A16387   0.447   3.253  13.515 -1.5121  0.3018  1.2697
  137CHL1  H24B16388   0.615   3.282  13.551 -0.5245  0.1904  0.0888
  137CHL1   C2516389   0.487   3.307  13.729  0.4416 -0.0760  0.1713
  137CHL1   H2516390   0.542   3.389  13.780 -0.2796  0.2486  0.4306
  137CHL1   C2616391   0.335   3.333  13.764  0.2344  0.7406  0.1138
  137CHL1  H26A16392   0.271   3.251  13.724  2.0608 -1.1243  0.8256
  137CHL1  H26B16393   0.307   3.315  13.870 -0.6302  0.0226 -0.2184
  137CHL1  H26C16394   0.297   3.428  13.721 -2.0092 -0.6451 -1.2166
  137CHL1   C2716395   0.528   3.172  13.776  0.2996  0.0792 -0.1283
  137CHL1  H27A16396   0.495   3.105  13.693 -2.0963  0.1239  0.6932
  137CHL1  H27B16397   0.633   3.145  13.797  0.1244 -2.0808 -1.6556
  137CHL1  H27C16398   0.477   3.147  13.871  1.0005  2.6388  0.9963
  138CHL1    C316399   5.390   1.536  11.723  0.1862  0.2703  1.2248
  138CHL1    H316400   5.462   1.467  11.773  0.4482 -0.0956  0.3548
  138CHL1    O316401   5.396   1.549  11.581  0.0711 -0.4126  0.1502
  138CHL1   H3'16402   5.311   1.577  11.546  0.3875 -0.2442 -0.4972
  138CHL1    C416403   5.244   1.495  11.758  0.6551 -0.0294 -0.4331
  138CHL1   H4A16404   5.176   1.578  11.732  0.5470  0.3733  1.0259
  138CHL1   H4B16405   5.225   1.407  11.693 -1.3756 -0.8439  1.1616
  138CHL1    C516406   5.232   1.481  11.906 -0.2710  0.1032  0.4328
  138CHL1    C616407   5.192   1.369  11.963  0.0628 -0.1681 -0.5185
  138CHL1    H616408   5.144   1.288  11.906 -0.5074  0.3743 -0.8235
  138CHL1    C716409   5.194   1.338  12.107  0.3696  0.3183  0.6587
  138CHL1   H7A16410   5.105   1.280  12.138  0.5410  0.5676  1.6686
  138CHL1   H7B16411   5.281   1.274  12.136  0.9539 -0.4934 -2.4825
  138CHL1    C816412   5.201   1.467  12.188 -0.6207 -0.3416  0.7704
  138CHL1    H816413   5.106   1.521  12.169 -0.2175 -0.0801 -0.5881
  138CHL1   C1416414   5.227   1.433  12.328 -0.4791  0.0555 -0.6549
  138CHL1   H1416415   5.334   1.404  12.331 -0.1840  1.0776 -0.6154
  138CHL1   C1516416   5.139   1.320  12.387 -0.5664  0.0178  1.0637
  138CHL1  H15A16417   5.035   1.350  12.363 -0.1481  1.6207  1.1317
  138CHL1  H15B16418   5.177   1.219  12.360  1.6220  0.1441  3.2670
  138CHL1   C1616419   5.169   1.336  12.535  0.5884  0.4908 -0.4992
  138CHL1  H16A16420   5.071   1.353  12.585  0.0272  0.4978 -1.5637
  138CHL1  H16B16421   5.211   1.240  12.571  0.2860 -0.4421 -2.4899
  138CHL1   C1716422   5.260   1.459  12.544  0.1752 -0.0152 -0.8055
  138CHL1   H1716423   5.361   1.414  12.536  0.5124  0.5222  0.1873
  138CHL1   C1316424   5.231   1.549  12.426  0.2361  0.3843 -0.3801
  138CHL1   C1816425   5.092   1.623  12.441  0.2502 -0.8372  0.1090
  138CHL1  H18A16426   5.002   1.559  12.447 -1.0798  0.4534 -3.6143
  138CHL1  H18B16427   5.101   1.702  12.519  2.1607 -1.8670  1.0017
  138CHL1  H18C16428   5.076   1.686  12.352 -0.3126 -1.5195 -0.2853
  138CHL1   C1216429   5.339   1.642  12.378 -0.3529  0.5419 -0.2494
  138CHL1  H12A16430   5.333   1.738  12.434 -0.4945 -0.3132  1.2796
  138CHL1  H12B16431   5.436   1.587  12.387 -0.6548  0.2740  1.9379
  138CHL1   C1116432   5.328   1.686  12.229  0.6678  0.2425 -0.0739
  138CHL1  H11A16433   5.252   1.767  12.224 -1.1274 -1.4057 -1.0949
  138CHL1  H11B16434   5.422   1.738  12.201 -0.8501  1.9220 -2.4430
  138CHL1    C916435   5.309   1.562  12.130  0.6267 -0.4165 -0.0404
  138CHL1    H916436   5.406   1.509  12.140  1.6169  1.6706  3.5361
  138CHL1   C1016437   5.288   1.604  11.987  0.5574  0.8426 -0.5422
  138CHL1   C1916438   5.171   1.711  11.979 -0.4970 -0.7032 -0.4642
  138CHL1  H19A16439   5.137   1.716  11.873 -0.2294 -3.2949 -0.7169
  138CHL1  H19B16440   5.075   1.686  12.029 -0.8062 -3.5560 -2.2621
  138CHL1  H19C16441   5.207   1.810  12.015  0.6009 -1.7125  1.3771
  138CHL1    C116442   5.418   1.666  11.936 -0.6033 -0.0519  0.0756
  138CHL1   H1A16443   5.433   1.765  11.984 -0.0278  0.3564 -0.9116
  138CHL1   H1B16444   5.501   1.600  11.968 -0.4386  0.6441  1.1232
  138CHL1    C216445   5.422   1.676  11.786 -0.9176 -0.1203  0.1935
  138CHL1   H2A16446   5.516   1.717  11.743 -1.6919 -0.4120 -1.9527
  138CHL1   H2B16447   5.341   1.750  11.768 -1.5415 -0.3755  1.7913
  138CHL1   C2016448   5.247   1.524  12.689 -0.5214  0.2950  0.1302
  138CHL1   H2016449   5.159   1.593  12.684  0.0260  1.0585  0.7662
  138CHL1   C2116450   5.369   1.623  12.707 -0.5262 -0.0832 -0.4500
  138CHL1  H21A16451   5.390   1.655  12.812 -1.4357 -1.0254  0.0384
  138CHL1  H21B16452   5.366   1.713  12.643  3.6868  0.4497 -0.1971
  138CHL1  H21C16453   5.469   1.578  12.686  0.5503  0.7834  2.2488
  138CHL1   C2216454   5.240   1.423  12.804  0.5375 -0.1311  0.4259
  138CHL1  H22A16455   5.138   1.382  12.786  0.0387  1.4855 -0.6166
  138CHL1  H22B16456   5.309   1.336  12.793  0.0199 -0.4561 -0.3958
  138CHL1   C2316457   5.235   1.482  12.941 -0.3666 -0.4823 -0.2861
  138CHL1  H23A16458   5.335   1.515  12.978 -0.4053  0.1468 -0.7302
  138CHL1  H23B16459   5.164   1.566  12.956 -0.3569 -0.6619  0.8992
  138CHL1   C2416460   5.183   1.381  13.048 -0.3131 -0.3268 -0.5547
  138CHL1  H24A16461   5.077   1.363  13.017  0.2416 -1.6056 -1.8728
  138CHL1  H24B16462   5.239   1.285  13.045 -0.9013 -0.8388  2.0776
  138CHL1   C2516463   5.177   1.421  13.195 -0.2450  0.3174  0.3938
  138CHL1   H2516464   5.283   1.440  13.224  0.9018  0.2999 -3.2660
  138CHL1   C2616465   5.102   1.552  13.223  0.5379  0.0240 -0.6758
  138CHL1  H26A16466   5.109   1.577  13.332 -0.9131 -0.6411 -0.4037
  138CHL1  H26B16467   5.149   1.633  13.165  1.1282 -1.0125 -1.6804
  138CHL1  H26C16468   4.992   1.560  13.209  0.4394  1.4113  0.5958
  138CHL1   C2716469   5.139   1.299  13.288 -0.3180 -0.7384 -0.0822
  138CHL1  H27A16470   5.208   1.212  13.279  1.3671  0.5842 -0.5033
  138CHL1  H27B16471   5.150   1.336  13.393  1.2907 -2.6518  0.4826
  138CHL1  H27C16472   5.032   1.281  13.266 -1.2069  4.6875 -1.5696
  139CHL1    C316473   6.649   1.021  12.079 -0.2441 -0.2813  0.0171
  139CHL1    H316474   6.626   0.914  12.095 -0.8242 -0.2794 -0.7299
  139CHL1    O316475   6.629   1.040  11.940 -0.2570 -0.2573  0.2027
  139CHL1   H3'16476   6.638   1.135  11.924  3.7520 -0.8460 -2.5995
  139CHL1    C416477   6.546   1.098  12.159 -0.9876  0.6482  0.1106
  139CHL1   H4A16478   6.571   1.205  12.144  1.3763  0.1071 -0.0811
  139CHL1   H4B16479   6.445   1.070  12.122 -0.1158 -1.8787 -0.5634
  139CHL1    C516480   6.566   1.076  12.305  0.1239  0.1731 -0.3672
  139CHL1    C616481   6.465   1.025  12.374  0.3683  0.1910 -1.0233
  139CHL1    H616482   6.366   0.997  12.336 -0.2626  0.3690  0.4396
  139CHL1    C716483   6.476   1.012  12.526 -0.1099 -0.4106  0.2116
  139CHL1   H7A16484   6.388   1.051  12.581 -1.2205 -3.3699  0.6863
  139CHL1   H7B16485   6.486   0.908  12.562 -0.0027 -0.2646  0.6073
  139CHL1    C816486   6.599   1.083  12.593  0.9317 -0.6573 -0.3736
  139CHL1    H816487   6.589   1.192  12.578  1.6222 -0.6639 -0.9861
  139CHL1   C1416488   6.621   1.045  12.742  0.7868 -0.2066 -0.8146
  139CHL1   H1416489   6.666   0.944  12.751  0.2285 -0.4704 -0.9542
  139CHL1   C1516490   6.503   1.046  12.847 -0.2979 -0.4869  0.3893
  139CHL1  H15A16491   6.426   1.125  12.832  1.7566  1.4488 -0.6574
  139CHL1  H15B16492   6.445   0.951  12.851 -0.8261 -0.2310 -0.6577
  139CHL1   C1616493   6.577   1.067  12.980  0.6800 -0.7320  0.1692
  139CHL1  H16A16494   6.540   1.170  13.001  0.6834 -0.0537 -2.7013
  139CHL1  H16B16495   6.544   1.002  13.063 -0.9891  0.6024  0.6179
  139CHL1   C1716496   6.728   1.079  12.954  0.5579  0.0686  0.4024
  139CHL1   H1716497   6.768   0.976  12.957  1.2385  0.3380  1.0153
  139CHL1   C1316498   6.736   1.123  12.805  0.1076 -0.3338  0.0009
  139CHL1   C1816499   6.707   1.281  12.804 -0.1031  0.7725 -0.2201
  139CHL1  H18A16500   6.609   1.304  12.851  0.2435  0.3845  0.7217
  139CHL1  H18B16501   6.787   1.335  12.858 -0.8639  0.9926  0.7175
  139CHL1  H18C16502   6.717   1.322  12.702  0.6188  1.4396  0.1167
  139CHL1   C1216503   6.865   1.083  12.737 -1.1990  0.4624  0.0603
  139CHL1  H12A16504   6.943   1.151  12.778  0.4459 -0.7507 -0.9312
  139CHL1  H12B16505   6.887   0.977  12.758  1.8785  0.8073 -0.8983
  139CHL1   C1116506   6.861   1.101  12.587  0.6145 -0.1142  0.0179
  139CHL1  H11A16507   6.887   1.209  12.580  0.9828 -0.1614  0.5541
  139CHL1  H11B16508   6.945   1.045  12.540  1.0116 -0.2407  0.8656
  139CHL1    C916509   6.727   1.056  12.508 -0.6411  0.1427 -0.4249
  139CHL1    H916510   6.726   0.945  12.502  0.7368 -0.0191  1.3993
  139CHL1   C1016511   6.709   1.111  12.363 -0.4054 -0.0126  0.3213
  139CHL1   C1916512   6.725   1.264  12.377  0.0811 -0.1649  0.2666
  139CHL1  H19A16513   6.705   1.308  12.277  0.8532 -0.4248 -0.0105
  139CHL1  H19B16514   6.653   1.312  12.446  1.5402 -0.0400  1.7453
  139CHL1  H19C16515   6.829   1.294  12.402  0.3156 -2.2548  2.1411
  139CHL1    C116516   6.819   1.046  12.272 -0.0006 -0.2383  0.0477
  139CHL1   H1A16517   6.917   1.092  12.296  0.0916 -0.4830  0.1480
  139CHL1   H1B16518   6.830   0.937  12.292  1.7096 -0.2344 -0.7480
  139CHL1    C216519   6.793   1.063  12.122 -0.2499  0.1304 -0.2165
  139CHL1   H2A16520   6.868   1.000  12.070 -1.3204 -2.2858  0.9818
  139CHL1   H2B16521   6.817   1.165  12.084  1.3173 -0.0355  0.2484
  139CHL1   C2016522   6.801   1.172  13.062  0.2926  1.0980  0.9438
  139CHL1   H2016523   6.750   1.271  13.059  0.0808  0.9694 -1.6630
  139CHL1   C2116524   6.945   1.212  13.033 -0.8478 -0.8421  0.6877
  139CHL1  H21A16525   6.961   1.293  12.958  1.8510 -0.9902  1.0010
  139CHL1  H21B16526   7.005   1.123  13.003  0.9253  0.1404  1.1578
  139CHL1  H21C16527   6.985   1.244  13.131 -0.8266  0.6479  0.2206
  139CHL1   C2216528   6.781   1.118  13.203  0.8414  0.1353 -0.6870
  139CHL1  H22A16529   6.843   1.166  13.282 -0.2273 -0.1101  0.3243
  139CHL1  H22B16530   6.672   1.115  13.220  0.6512 -0.2179 -1.8348
  139CHL1   C2316531   6.825   0.972  13.222 -0.0045  0.1912 -0.2807
  139CHL1  H23A16532   6.750   0.904  13.175  0.5085 -0.9537  0.5299
  139CHL1  H23B16533   6.924   0.961  13.172  0.0393 -0.2667 -0.1004
  139CHL1   C2416534   6.820   0.937  13.366 -0.0882 -0.3849 -0.2045
  139CHL1  H24A16535   6.894   0.991  13.429  0.7193  0.4555 -1.8178
  139CHL1  H24B16536   6.719   0.962  13.405 -0.8725 -1.4736 -1.4494
  139CHL1   C2516537   6.835   0.786  13.401 -0.8574  0.6422  0.3021
  139CHL1   H2516538   6.777   0.720  13.333  1.4984  1.1011 -2.3456
  139CHL1   C2616539   6.983   0.753  13.372  0.5434 -0.2611 -0.4210
  139CHL1  H26A16540   7.007   0.745  13.263  1.3125  0.2213 -0.2991
  139CHL1  H26B16541   7.047   0.832  13.418  0.1493  0.5499 -1.2234
  139CHL1  H26C16542   7.006   0.652  13.411 -1.5337 -0.6941 -0.2316
  139CHL1   C2716543   6.799   0.761  13.539 -0.0436  0.5245 -0.4921
  139CHL1  H27A16544   6.814   0.656  13.572  0.0360  0.8133  0.4437
  139CHL1  H27B16545   6.854   0.834  13.603  1.3935 -0.6836 -0.3005
  139CHL1  H27C16546   6.692   0.789  13.550  0.1128  0.8205  0.3302
  140CHL1    C316547   6.636   2.076  11.657 -0.2521  0.3469 -0.4077
  140CHL1    H316548   6.611   1.967  11.663 -2.2034  0.7081 -1.2181
  140CHL1    O316549   6.653   2.099  11.515 -0.1133 -0.1257 -0.1543
  140CHL1   H3'16550   6.719   2.033  11.492 -1.5746 -1.3064 -1.1991
  140CHL1    C416551   6.524   2.164  11.719 -0.6948 -0.2060 -0.5432
  140CHL1   H4A16552   6.565   2.267  11.717 -1.9622  0.3029 -2.4543
  140CHL1   H4B16553   6.434   2.161  11.654 -1.6469 -1.5887  0.7643
  140CHL1    C516554   6.494   2.128  11.865  0.0410 -0.1517 -0.2676
  140CHL1    C616555   6.372   2.084  11.901  0.2311  0.2168 -0.0937
  140CHL1    H616556   6.298   2.093  11.820  1.4490  0.5604 -1.1994
  140CHL1    C716557   6.336   2.055  12.047 -0.2609 -0.5034  0.6400
  140CHL1   H7A16558   6.239   2.105  12.064  0.6119  1.5488 -0.1312
  140CHL1   H7B16559   6.324   1.947  12.073 -1.5028 -0.1645  1.5249
  140CHL1    C816560   6.449   2.098  12.146  0.4308 -0.0409  0.1550
  140CHL1    H816561   6.433   2.208  12.150  0.0251 -0.0676 -0.5475
  140CHL1   C1416562   6.427   2.033  12.281  0.3345  1.2045 -0.2048
  140CHL1   H1416563   6.433   1.923  12.272  0.4639  1.2361 -0.5102
  140CHL1   C1516564   6.284   2.058  12.349  0.2274 -0.5296  0.2956
  140CHL1  H15A16565   6.274   2.165  12.319 -1.2541 -0.4821  0.8760
  140CHL1  H15B16566   6.203   2.001  12.297 -1.8646  2.7504 -0.3245
  140CHL1   C1616567   6.314   2.037  12.500  0.0329  0.2863 -0.6799
  140CHL1  H16A16568   6.292   2.121  12.568 -0.9283  0.0906 -0.7442
  140CHL1  H16B16569   6.250   1.958  12.544  0.8517  0.6408  1.2288
  140CHL1   C1716570   6.468   2.005  12.517  0.6993  0.3618  0.2663
  140CHL1   H1716571   6.485   1.895  12.508 -0.6543  0.0223  1.5028
  140CHL1   C1316572   6.527   2.072  12.390 -0.1199  0.1333  0.2963
  140CHL1   C1816573   6.525   2.224  12.425  0.0036  0.0828 -0.3293
  140CHL1  H18A16574   6.563   2.282  12.338 -0.8608  1.7041  0.3226
  140CHL1  H18B16575   6.429   2.276  12.444  0.9883  2.1296 -0.6532
  140CHL1  H18C16576   6.597   2.238  12.508 -1.8050  0.5626  1.2206
  140CHL1   C1216577   6.667   2.024  12.334 -0.3987  0.1464 -0.5183
  140CHL1  H12A16578   6.748   2.047  12.407  0.2979 -0.5965 -1.0341
  140CHL1  H12B16579   6.661   1.913  12.333 -0.3768  0.1452 -0.5224
  140CHL1   C1116580   6.703   2.085  12.201  0.2174  0.5526  0.7171
  140CHL1  H11A16581   6.741   2.189  12.205 -3.1817  2.1963 -2.7095
  140CHL1  H11B16582   6.797   2.038  12.164  0.8214  1.5372  0.9744
  140CHL1    C916583   6.594   2.071  12.095  0.3198  0.7192 -0.8497
  140CHL1    H916584   6.585   1.963  12.073  0.3686  0.1687  1.5474
  140CHL1   C1016585   6.625   2.122  11.955  0.1382  0.0302 -0.2693
  140CHL1   C1916586   6.666   2.267  11.973 -0.2299  0.0734 -0.4043
  140CHL1  H19A16587   6.774   2.265  12.001 -0.7816 -2.2842  1.9031
  140CHL1  H19B16588   6.668   2.321  11.876 -2.2610  0.5689 -0.2001
  140CHL1  H19C16589   6.611   2.333  12.042  0.7097 -1.3133  1.7943
  140CHL1    C116590   6.735   2.045  11.883 -0.3375  0.1044 -0.4628
  140CHL1   H1A16591   6.824   2.055  11.948 -0.0291  0.8890 -0.9989
  140CHL1   H1B16592   6.702   1.939  11.875  1.9286 -0.6327 -0.7926
  140CHL1    C216593   6.767   2.089  11.742  0.3786  0.1694 -0.1526
  140CHL1   H2A16594   6.843   2.021  11.697 -1.8396 -1.8806 -1.0567
  140CHL1   H2B16595   6.798   2.194  11.722  2.1209 -0.7806 -3.1957
  140CHL1   C2016596   6.506   2.026  12.663 -0.4449 -0.6248 -0.2981
  140CHL1   H2016597   6.509   2.135  12.683  2.0739 -0.4042 -1.4159
  140CHL1   C2116598   6.657   1.996  12.685 -0.0077  0.0928  0.2805
  140CHL1  H21A16599   6.713   2.058  12.611  1.6805 -0.2653  1.2183
  140CHL1  H21B16600   6.675   1.889  12.662 -1.5953  0.0296 -0.8691
  140CHL1  H21C16601   6.691   2.029  12.785  1.1556 -0.1749 -0.0029
  140CHL1   C2216602   6.425   1.965  12.776 -0.0244  0.4919  0.3159
  140CHL1  H22A16603   6.321   2.004  12.771 -0.7351 -1.3710 -0.7076
  140CHL1  H22B16604   6.419   1.856  12.756  1.5470  0.5166 -0.4337
  140CHL1   C2316605   6.468   2.007  12.917  0.2358  0.0181  0.1723
  140CHL1  H23A16606   6.569   1.968  12.944  0.5723  1.3141  0.8434
  140CHL1  H23B16607   6.484   2.116  12.904 -1.4830  0.4534  1.4688
  140CHL1   C2416608   6.380   1.966  13.031  0.0743  0.3131 -0.3967
  140CHL1  H24A16609   6.279   2.005  13.006  0.6671  3.6429  1.6713
  140CHL1  H24B16610   6.372   1.856  13.042 -0.3414  0.4049  0.2637
  140CHL1   C2516611   6.413   2.039  13.161  0.7675 -0.3041 -0.2894
  140CHL1   H2516612   6.447   2.141  13.136  2.0239 -0.1703  1.7744
  140CHL1   C2616613   6.527   1.968  13.229 -0.3015  0.0227 -0.2153
  140CHL1  H26A16614   6.501   1.884  13.297  3.4052 -1.1212  0.0541
  140CHL1  H26B16615   6.601   1.913  13.168  0.3644 -0.9392  1.3809
  140CHL1  H26C16616   6.581   2.039  13.296  0.0749  1.0621 -1.5820
  140CHL1   C2716617   6.286   2.045  13.255 -0.1430 -0.0142 -0.3266
  140CHL1  H27A16618   6.211   2.112  13.208 -2.1732 -3.2934 -2.0498
  140CHL1  H27B16619   6.240   1.945  13.263 -0.4085  0.0591 -0.8789
  140CHL1  H27C16620   6.313   2.079  13.358 -1.8048 -1.6668  0.6976
  141DOPC     N16621   2.764   3.524  16.999 -0.1167 -0.5028 -0.5393
  141DOPC   C1216622   2.693   3.528  16.867  0.5452 -0.8386 -0.0190
  141DOPC  H12A16623   2.628   3.613  16.878 -0.3539 -1.5940  0.7120
  141DOPC  H12B16624   2.630   3.440  16.865  0.1253 -0.5763  0.9258
  141DOPC   C1316625   2.874   3.620  17.008 -0.5727 -0.7322 -0.2844
  141DOPC  H13A16626   2.931   3.610  17.099  0.5885 -0.8408 -1.0025
  141DOPC  H13B16627   2.945   3.602  16.929 -0.4568  1.5139 -0.7809
  141DOPC  H13C16628   2.841   3.722  17.019  0.2490 -0.5647  0.8425
  141DOPC   C1416629   2.842   3.388  17.013 -0.4223  0.0482  0.0816
  141DOPC  H14A16630   2.866   3.368  17.117  1.3352 -1.3678 -0.5454
  141DOPC  H14B16631   2.788   3.301  16.980 -0.9081  0.6536 -0.7631
  141DOPC  H14C16632   2.930   3.393  16.951 -1.6905 -1.1139 -1.9152
  141DOPC   C1516633   2.671   3.537  17.114  0.2076  0.3990 -0.5686
  141DOPC  H15A16634   2.621   3.632  17.121  0.0063  0.3076 -0.7375
  141DOPC  H15B16635   2.720   3.513  17.207 -0.0000 -1.7462 -0.9550
  141DOPC  H15C16636   2.593   3.463  17.097 -1.2198  0.8880  2.9902
  141DOPC   C1116637   2.775   3.529  16.735 -0.2133  0.0964  0.2489
  141DOPC  H11A16638   2.853   3.450  16.745 -0.0151  0.3054  0.3751
  141DOPC  H11B16639   2.696   3.501  16.663  0.6612  0.9642 -1.0887
  141DOPC     P16640   2.749   3.786  16.680 -0.1521 -0.4289 -0.0630
  141DOPC   O1316641   2.813   3.901  16.748 -0.3595  0.0772  0.2500
  141DOPC   O1416642   2.603   3.771  16.714 -0.2150 -0.7628  0.3892
  141DOPC   O1216643   2.835   3.654  16.707 -0.0925  0.5678  0.2138
  141DOPC   O1116644   2.774   3.802  16.524 -0.1262 -0.4793 -0.3392
  141DOPC    C116645   2.774   3.684  16.441  0.1441  0.0043  0.4297
  141DOPC    HA16646   2.721   3.598  16.487  1.3598 -0.8970  0.2189
  141DOPC    HB16647   2.876   3.640  16.434  0.2872  0.2074  1.1203
  141DOPC    C216648   2.721   3.713  16.302  0.5370  0.8485 -0.3021
  141DOPC    HS16649   2.701   3.619  16.247 -2.7358  0.2981  1.5518
  141DOPC   O2116650   2.811   3.801  16.237 -0.0043  0.4734 -0.0848
  141DOPC   C2116651   2.915   3.754  16.184  0.4532  0.2517  0.5973
  141DOPC   O2216652   2.944   3.638  16.171 -0.0374  0.0507 -0.2185
  141DOPC   C2216653   2.985   3.866  16.111  1.0561  0.3165 -0.0864
  141DOPC   H2R16654   3.001   3.945  16.187  1.2429 -0.6374  0.8855
  141DOPC   H2S16655   2.923   3.913  16.032  1.9993 -0.1621 -1.1445
  141DOPC    C316656   2.577   3.779  16.315 -0.8767  0.6457  0.6793
  141DOPC    HX16657   2.572   3.865  16.385 -2.0308  1.3899 -0.2848
  141DOPC    HY16658   2.508   3.706  16.363 -1.4005  0.7228  0.0599
  141DOPC   O3116659   2.532   3.817  16.185  0.2294  0.0959  0.2907
  141DOPC   C3116660   2.564   3.943  16.139  0.0217  0.3966 -0.8592
  141DOPC   O3216661   2.608   4.033  16.211  0.5185  0.2706  0.5293
  141DOPC   C3216662   2.549   3.975  15.992 -0.2925  0.4867  0.2076
  141DOPC   H2X16663   2.445   3.985  15.955  0.3869 -0.6744 -2.1804
  141DOPC   H2Y16664   2.607   4.067  15.967  2.9697 -2.2573 -3.6350
  141DOPC   C2316665   3.122   3.825  16.045  0.1650 -0.6345 -0.0398
  141DOPC   H3R16666   3.182   3.768  16.119  0.1049  0.0697  0.5645
  141DOPC   H3S16667   3.176   3.920  16.027 -0.8898 -0.0539 -0.2394
  141DOPC   C2416668   3.107   3.745  15.916  0.9314  0.0198  0.6992
  141DOPC   H4R16669   3.006   3.762  15.873  0.6840  2.9164  2.1927
  141DOPC   H4S16670   3.097   3.637  15.939 -1.7751 -0.3759 -1.7494
  141DOPC   C2516671   3.208   3.764  15.806  0.0794  0.0714 -0.5058
  141DOPC   H5R16672   3.310   3.745  15.848 -0.7616  1.1499  2.2772
  141DOPC   H5S16673   3.194   3.872  15.781 -3.5787  0.0165  0.6837
  141DOPC   C2616674   3.190   3.682  15.683 -0.0714 -0.3677  0.1195
  141DOPC   H6R16675   3.090   3.715  15.647 -1.2751 -0.7231  2.8215
  141DOPC   H6S16676   3.175   3.577  15.717 -1.2535 -0.4827 -0.7136
  141DOPC   C2716677   3.304   3.705  15.580  0.3359 -0.1182 -0.3238
  141DOPC   H7R16678   3.398   3.666  15.624 -1.0103 -1.9935  1.0463
  141DOPC   H7S16679   3.315   3.815  15.567 -0.2577  0.2363  1.7904
  141DOPC   C2816680   3.283   3.649  15.431  0.2734  0.4143 -0.6851
  141DOPC   H8R16681   3.250   3.543  15.436  0.5493  0.2803 -1.6055
  141DOPC   H8S16682   3.379   3.648  15.375  0.1023 -2.4409 -1.0566
  141DOPC   C2916683   3.180   3.727  15.355 -0.0199  0.1369  0.1714
  141DOPC   H9R16684   3.099   3.761  15.422  0.2620  2.1235 -0.4380
  141DOPC  C21016685   3.179   3.768  15.227  0.0245 -0.3147 -0.1076
  141DOPC  H10R16686   3.093   3.822  15.186  0.4584  1.1153  0.7755
  141DOPC  C21116687   3.292   3.738  15.136 -0.0060  0.2937  0.4520
  141DOPC  H11R16688   3.320   3.631  15.140 -4.0120 -0.8666  2.6674
  141DOPC  H11S16689   3.386   3.788  15.170 -0.5737  0.8431  1.2372
  141DOPC  C21216690   3.244   3.764  14.995 -0.1453  1.0562  0.1153
  141DOPC  H12R16691   3.202   3.867  14.988 -0.4922  1.0258  1.4783
  141DOPC  H12S16692   3.165   3.691  14.966  2.8158 -1.7472 -1.5960
  141DOPC  C21316693   3.364   3.761  14.893  0.4154 -0.1038 -0.4567
  141DOPC  H13R16694   3.433   3.676  14.910  1.1988  0.4141 -0.9504
  141DOPC  H13S16695   3.416   3.857  14.913  2.4505 -1.6343  2.2592
  141DOPC  C21416696   3.321   3.757  14.743  0.1247  0.6792  0.2957
  141DOPC  H14R16697   3.228   3.817  14.739 -0.3067  0.0523  0.7496
  141DOPC  H14S16698   3.305   3.650  14.715  2.1228  0.4772 -0.2467
  141DOPC  C21516699   3.418   3.821  14.647 -0.7971  0.7386  0.1657
  141DOPC  H15R16700   3.515   3.767  14.650 -0.9379  0.1665 -2.7979
  141DOPC  H15S16701   3.430   3.924  14.686 -0.4867  0.9555 -0.4896
  141DOPC  C21616702   3.362   3.813  14.502 -0.2477 -0.2092 -0.1402
  141DOPC  H16R16703   3.285   3.893  14.497  0.8746  0.9480  0.4855
  141DOPC  H16S16704   3.324   3.710  14.491  0.8970 -0.5293 -1.4018
  141DOPC  C21716705   3.474   3.839  14.394  0.5745 -0.1684  0.9015
  141DOPC  H17R16706   3.535   3.747  14.401  1.0118 -0.0186 -0.5433
  141DOPC  H17S16707   3.541   3.924  14.421 -2.5589  2.6507  0.4391
  141DOPC  C21816708   3.423   3.849  14.254  0.5177  0.0140  0.0776
  141DOPC  H18R16709   3.491   3.831  14.168 -1.3479  1.0511 -1.6924
  141DOPC  H18S16710   3.379   3.951  14.246  0.2435 -0.2758 -4.2373
  141DOPC  H18T16711   3.339   3.777  14.240  0.6007  0.0221 -0.4876
  141DOPC   C3316712   2.604   3.866  15.901 -0.5444  1.3228 -0.0787
  141DOPC   H3X16713   2.553   3.768  15.888  0.1654  0.9001  0.2237
  141DOPC   H3Y16714   2.702   3.837  15.946  0.1793  3.0280 -0.4641
  141DOPC   C3416715   2.625   3.906  15.755 -0.6490 -0.3157 -0.6048
  141DOPC   H4X16716   2.690   3.996  15.750 -1.1194 -0.0417 -2.3688
  141DOPC   H4Y16717   2.530   3.943  15.710 -0.8335  0.2159  0.2012
  141DOPC   C3516718   2.688   3.800  15.659  0.3091 -0.0084 -0.0595
  141DOPC   H5X16719   2.628   3.707  15.670  0.1449  0.2151  1.0524
  141DOPC   H5Y16720   2.792   3.786  15.697  0.8075  3.8284  0.4268
  141DOPC   C3616721   2.687   3.849  15.514 -0.0028 -0.9738  0.2792
  141DOPC   H6X16722   2.585   3.881  15.485  0.6908 -0.4330 -1.8033
  141DOPC   H6Y16723   2.750   3.940  15.503 -1.4192  0.4064  2.7341
  141DOPC   C3716724   2.737   3.746  15.418  0.0548  0.3984 -0.2442
  141DOPC   H7X16725   2.838   3.709  15.447 -0.0249 -0.7327 -1.2965
  141DOPC   H7Y16726   2.675   3.654  15.433  0.3080  0.1219 -0.8515
  141DOPC   C3816727   2.738   3.779  15.263  0.5403 -0.1882  0.5322
  141DOPC   H8X16728   2.789   3.876  15.252 -0.3156  0.3393  1.0612
  141DOPC   H8Y16729   2.632   3.781  15.230  0.2452 -0.8726  1.3676
  141DOPC   C3916730   2.809   3.681  15.184 -0.1798 -0.2221 -0.4639
  141DOPC   H9X16731   2.869   3.613  15.247  0.2032 -0.3579 -0.9718
  141DOPC  C31016732   2.820   3.674  15.054 -0.1852  0.1224  0.4796
  141DOPC  H10X16733   2.895   3.604  15.013 -0.0997  1.3360 -1.5886
  141DOPC  C31116734   2.755   3.765  14.950 -0.4450  0.0376  0.1702
  141DOPC  H11X16735   2.779   3.874  14.953 -2.7695  0.6783 -1.3297
  141DOPC  H11Y16736   2.648   3.754  14.975 -0.0198 -2.5124  1.1472
  141DOPC  C31216737   2.792   3.711  14.807  0.6179 -0.2798 -0.2308
  141DOPC  H12X16738   2.714   3.755  14.741  1.3119  2.3502  0.6243
  141DOPC  H12Y16739   2.771   3.602  14.800 -2.3618  0.2044 -0.0955
  141DOPC  C31316740   2.931   3.746  14.756  0.7163  0.7147  0.6685
  141DOPC  H13X16741   2.932   3.856  14.741  0.7050  0.6042 -0.1947
  141DOPC  H13Y16742   3.005   3.736  14.838  0.8779  3.3174  0.8959
  141DOPC  C31416743   2.976   3.674  14.628 -0.9257 -0.1951 -0.2520
  141DOPC  H14X16744   3.070   3.720  14.592 -1.0192  1.2560  1.2576
  141DOPC  H14Y16745   3.007   3.571  14.655  1.6074  0.4274 -0.5367
  141DOPC  C31516746   2.869   3.676  14.523  0.1507  0.0415 -0.4173
  141DOPC  H15X16747   2.820   3.775  14.509 -1.7762 -0.8282 -0.2007
  141DOPC  H15Y16748   2.791   3.603  14.556  0.8156 -0.8600 -0.7774
  141DOPC  C31616749   2.906   3.614  14.386 -0.7315  0.4090 -0.0158
  141DOPC  H16X16750   3.001   3.559  14.406  0.1939  1.7749 -0.4633
  141DOPC  H16Y16751   2.822   3.546  14.360  0.0710  0.2117 -2.3391
  141DOPC  C31716752   2.920   3.721  14.276 -0.3071  0.0111 -0.3092
  141DOPC  H17X16753   2.820   3.768  14.265 -0.4067 -0.4512 -1.5154
  141DOPC  H17Y16754   3.000   3.791  14.308  2.1617 -2.2584 -1.1473
  141DOPC  C31816755   2.973   3.670  14.135  0.4405  0.0998  0.2078
  141DOPC  H18X16756   3.062   3.604  14.141  1.1621  0.8676 -1.5977
  141DOPC  H18Y16757   2.889   3.609  14.094  0.0099  1.0701 -0.3840
  141DOPC  H18Z16758   2.997   3.755  14.069  0.1972  0.6085  0.7613
  142DOPC     N16759   4.747   3.155  16.511 -0.5859 -0.0398 -0.2798
  142DOPC   C1216760   4.649   3.046  16.491  0.2416  0.5482  0.0373
  142DOPC  H12A16761   4.557   3.073  16.441  0.2094 -0.7531 -0.6276
  142DOPC  H12B16762   4.616   3.021  16.591 -0.1333  2.6149  0.4829
  142DOPC   C1316763   4.875   3.103  16.574 -0.5637  0.2890 -0.4727
  142DOPC  H13A16764   4.928   3.035  16.509 -0.8258 -0.4556  0.0770
  142DOPC  H13B16765   4.933   3.183  16.618  0.5582  0.3502 -1.9751
  142DOPC  H13C16766   4.862   3.032  16.655  1.1780  0.2347 -0.1940
  142DOPC   C1416767   4.694   3.253  16.603 -0.4855 -0.0653 -0.5633
  142DOPC  H14A16768   4.762   3.336  16.612  0.4420 -0.9805  1.7286
  142DOPC  H14B16769   4.601   3.300  16.577  0.8181  2.2108 -1.3607
  142DOPC  H14C16770   4.693   3.217  16.705  1.0455  2.5962  0.5076
  142DOPC   C1516771   4.777   3.237  16.388  0.2190  0.4341  0.1829
  142DOPC  H15A16772   4.689   3.296  16.368 -0.3366 -0.5132 -0.2141
  142DOPC  H15B16773   4.805   3.175  16.304  0.4658  0.8923 -0.0792
  142DOPC  H15C16774   4.857   3.308  16.402 -1.5722  2.8330 -0.8989
  142DOPC   C1116775   4.694   2.909  16.426  0.5286 -0.1507 -0.7894
  142DOPC  H11A16776   4.775   2.861  16.485  0.3609 -1.6666 -1.7609
  142DOPC  H11B16777   4.615   2.833  16.444  2.6395 -2.3867 -0.4715
  142DOPC     P16778   4.635   2.918  16.173  0.1330  0.0629 -0.4672
  142DOPC   O1316779   4.603   2.776  16.151 -0.5427  0.1967 -0.0289
  142DOPC   O1416780   4.686   2.994  16.058 -0.5186 -0.3824  0.0855
  142DOPC   O1216781   4.739   2.927  16.290 -0.1997 -0.0099 -0.5811
  142DOPC   O1116782   4.514   2.994  16.229  0.6429 -0.0322  0.3078
  142DOPC    C116783   4.380   2.947  16.201 -0.6690 -0.0300  1.1638
  142DOPC    HA16784   4.318   3.016  16.263  1.1154  4.2048 -1.3034
  142DOPC    HB16785   4.365   2.841  16.232  0.3598 -0.8306 -0.9353
  142DOPC    C216786   4.336   2.981  16.054 -0.2545  0.1455  0.0063
  142DOPC    HS16787   4.414   2.940  15.987  0.0545  1.1588 -0.2693
  142DOPC   O2116788   4.340   3.121  16.035  0.1869 -0.1472 -0.0128
  142DOPC   C2116789   4.232   3.196  16.071 -0.0900 -0.1041  0.0850
  142DOPC   O2216790   4.138   3.159  16.136 -0.1921  0.1438 -0.0305
  142DOPC   C2216791   4.243   3.344  16.035 -0.4298 -0.1263 -0.4601
  142DOPC   H2R16792   4.319   3.394  16.098 -0.2942  0.9932 -1.4919
  142DOPC   H2S16793   4.145   3.390  16.063 -1.4857 -0.7808 -2.8201
  142DOPC    C316794   4.200   2.905  16.005  0.1421 -0.0101  0.9845
  142DOPC    HX16795   4.122   2.920  16.083  0.6356  2.9023  1.0483
  142DOPC    HY16796   4.235   2.800  15.993 -1.9865 -0.7386  0.6997
  142DOPC   O3116797   4.161   2.966  15.876  0.4698 -0.4753  0.3841
  142DOPC   C3116798   4.042   2.909  15.835 -0.3462 -0.1222 -0.0474
  142DOPC   O3216799   3.992   2.820  15.896 -0.4484  0.0999  0.1479
  142DOPC   C3216800   3.995   2.972  15.703 -0.1299  0.5341 -0.1228
  142DOPC   H2X16801   4.043   3.067  15.673 -2.0648  1.7006  0.3186
  142DOPC   H2Y16802   4.024   2.899  15.624 -2.1325 -0.3183 -0.1391
  142DOPC   C2316803   4.275   3.370  15.883  0.0158 -0.1440  0.3108
  142DOPC   H3R16804   4.370   3.320  15.853 -0.6726 -0.8610 -0.7503
  142DOPC   H3S16805   4.303   3.477  15.878 -0.1242 -0.0804  0.8318
  142DOPC   C2416806   4.159   3.335  15.782 -0.2565 -0.8102 -0.4967
  142DOPC   H4R16807   4.067   3.385  15.819 -0.9910 -1.0363 -1.9632
  142DOPC   H4S16808   4.131   3.228  15.784 -1.1486 -0.6613 -2.7185
  142DOPC   C2516809   4.191   3.357  15.636  0.0334  0.3138 -0.2117
  142DOPC   H5R16810   4.266   3.284  15.599  1.0908  0.7087  1.0643
  142DOPC   H5S16811   4.236   3.457  15.620 -2.9253  1.8374  0.3736
  142DOPC   C2616812   4.053   3.351  15.555  0.1891 -0.0973  0.0159
  142DOPC   H6R16813   3.990   3.436  15.590 -0.1565 -0.9368  1.5377
  142DOPC   H6S16814   3.988   3.264  15.578  1.2540 -0.4628  1.8348
  142DOPC   C2716815   4.069   3.351  15.400 -0.2974 -0.2389 -0.0272
  142DOPC   H7R16816   4.115   3.252  15.380  0.2354 -0.2888  1.3203
  142DOPC   H7S16817   4.148   3.420  15.362  1.0551 -1.6026  0.2152
  142DOPC   C2816818   3.941   3.371  15.310 -0.2595  0.4263  0.4355
  142DOPC   H8R16819   3.891   3.468  15.330 -1.7010  0.6026 -3.2240
  142DOPC   H8S16820   3.867   3.290  15.327 -0.8669  1.1347  1.1954
  142DOPC   C2916821   3.966   3.374  15.162  0.3400 -0.1839 -0.7321
  142DOPC   H9R16822   3.953   3.272  15.124  2.8766 -1.0140  0.3875
  142DOPC  C21016823   3.992   3.468  15.078 -0.4953 -0.1988 -0.2829
  142DOPC  H10R16824   4.000   3.437  14.973 -0.2347 -0.7687 -0.1020
  142DOPC  C21116825   4.011   3.611  15.112  0.3265  0.4085  0.5851
  142DOPC  H11R16826   4.114   3.653  15.104  0.1276  0.6124 -1.5396
  142DOPC  H11S16827   3.979   3.625  15.217 -2.0967 -1.9348  0.2817
  142DOPC  C21216828   3.910   3.695  15.027 -0.2102  0.4105 -0.6589
  142DOPC  H12R16829   3.945   3.692  14.922 -1.5637  1.1373 -1.1416
  142DOPC  H12S16830   3.923   3.798  15.066 -0.1625 -0.6012  2.3080
  142DOPC  C21316831   3.763   3.662  15.038  0.1893 -0.5040 -0.0735
  142DOPC  H13R16832   3.755   3.557  15.004  1.9939 -1.1973  1.4721
  142DOPC  H13S16833   3.706   3.719  14.961 -0.7685 -4.6684 -2.7271
  142DOPC  C21416834   3.694   3.696  15.177  0.5390 -0.1451 -1.0030
  142DOPC  H14R16835   3.737   3.632  15.257  0.7384  1.0541 -0.1252
  142DOPC  H14S16836   3.587   3.667  15.185  0.2608  1.2091  0.9242
  142DOPC  C21516837   3.705   3.837  15.236 -0.0252 -0.0750  0.2793
  142DOPC  H15R16838   3.658   3.906  15.162  0.7838 -0.6816 -0.8451
  142DOPC  H15S16839   3.808   3.877  15.223 -1.2162  2.1214 -4.9492
  142DOPC  C21616840   3.648   3.856  15.375  0.1252 -0.4904  0.2419
  142DOPC  H16R16841   3.560   3.790  15.388 -1.2235  0.7284 -2.0827
  142DOPC  H16S16842   3.620   3.963  15.376  0.8870 -0.2614 -0.8139
  142DOPC  C21716843   3.751   3.827  15.485  0.1240  0.9762  0.2152
  142DOPC  H17R16844   3.846   3.871  15.447 -0.1095 -0.6345 -2.4216
  142DOPC  H17S16845   3.759   3.717  15.484  0.5566  0.9586  1.9503
  142DOPC  C21816846   3.718   3.858  15.632  0.2863  0.2505  0.3493
  142DOPC  H18R16847   3.799   3.807  15.687 -0.4403 -1.2570  0.0925
  142DOPC  H18S16848   3.626   3.803  15.658  0.5946 -0.9213 -0.9109
  142DOPC  H18T16849   3.717   3.968  15.647  1.5033  0.7069 -2.2560
  142DOPC   C3316850   3.848   2.992  15.709  0.2819  0.7045 -0.1101
  142DOPC   H3X16851   3.827   3.071  15.784  1.6475  1.1966 -0.2265
  142DOPC   H3Y16852   3.803   2.904  15.759  0.7640  1.3256  1.4540
  142DOPC   C3416853   3.780   3.015  15.578  0.6235 -0.4702 -0.1494
  142DOPC   H4X16854   3.842   3.084  15.517  1.4831 -2.6736 -1.8970
  142DOPC   H4Y16855   3.677   3.054  15.595 -0.2998 -2.4465 -0.8766
  142DOPC   C3516856   3.756   2.883  15.497 -0.2213  0.2077  0.0437
  142DOPC   H5X16857   3.664   2.846  15.547  0.2505  2.0419  2.4109
  142DOPC   H5Y16858   3.838   2.810  15.514  0.4312  0.0541 -3.0764
  142DOPC   C3616859   3.723   2.906  15.346 -0.2672  0.5186  0.9839
  142DOPC   H6X16860   3.634   2.847  15.316 -0.1150  0.2854  0.9822
  142DOPC   H6Y16861   3.693   3.013  15.342 -2.2928 -0.0428 -0.0332
  142DOPC   C3716862   3.846   2.893  15.252 -0.2470  0.8965  0.2399
  142DOPC   H7X16863   3.922   2.962  15.293 -0.6671  1.2212  0.4814
  142DOPC   H7Y16864   3.891   2.791  15.254  0.0332  1.0178  0.1121
  142DOPC   C3816865   3.807   2.929  15.102  0.0701 -0.0264 -0.9058
  142DOPC   H8X16866   3.902   2.948  15.048  1.7775  0.3006  1.9744
  142DOPC   H8Y16867   3.749   3.023  15.118  1.9520  1.0363 -0.0466
  142DOPC   C3916868   3.721   2.827  15.023 -0.6014  0.1296  0.7795
  142DOPC   H9X16869   3.672   2.750  15.084  1.5703 -1.4168  0.6478
  142DOPC  C31016870   3.711   2.816  14.886 -0.2375  0.5857 -0.6903
  142DOPC  H10X16871   3.660   2.728  14.845  0.3793  0.1137 -0.4767
  142DOPC  C31116872   3.769   2.910  14.787 -0.1450 -0.4530 -0.5162
  142DOPC  H11X16873   3.868   2.873  14.754  0.8809 -0.9975  2.7811
  142DOPC  H11Y16874   3.778   3.012  14.830 -1.4693 -0.5758  0.1145
  142DOPC  C31216875   3.647   2.919  14.692  0.3004  0.4582  0.3754
  142DOPC  H12X16876   3.556   2.968  14.734 -1.7320 -0.1594 -2.8755
  142DOPC  H12Y16877   3.609   2.822  14.653  1.2364  0.8604 -1.6617
  142DOPC  C31316878   3.681   2.975  14.549 -0.1530  0.3527 -0.0762
  142DOPC  H13X16879   3.735   3.070  14.566  2.9424 -1.0148 -1.5436
  142DOPC  H13Y16880   3.745   2.900  14.497 -0.5696  0.5926 -0.9472
  142DOPC  C31416881   3.565   3.000  14.457  0.4120  0.0398 -0.0548
  142DOPC  H14X16882   3.521   2.904  14.422 -0.8563  1.2040 -1.8467
  142DOPC  H14Y16883   3.489   3.070  14.498 -0.1665  0.1339 -1.2549
  142DOPC  C31516884   3.609   3.064  14.322  0.6985 -0.5171  0.2141
  142DOPC  H15X16885   3.700   3.014  14.283  1.2266  0.9177 -0.4779
  142DOPC  H15Y16886   3.641   3.169  14.337  2.4020 -0.5282 -2.6129
  142DOPC  C31616887   3.503   3.065  14.214  0.8179  0.9922 -0.7992
  142DOPC  H16X16888   3.459   2.965  14.192 -3.5055  2.5699 -0.2922
  142DOPC  H16Y16889   3.421   3.133  14.246 -0.2210 -0.7217  0.3411
  142DOPC  C31716890   3.559   3.118  14.085 -0.2931  0.0040  0.6654
  142DOPC  H17X16891   3.621   3.207  14.110  0.6230 -1.2326  3.0912
  142DOPC  H17Y16892   3.615   3.034  14.038 -2.3085 -1.8925  1.4947
  142DOPC  C31816893   3.454   3.155  13.986  0.0642  0.3313 -0.0912
  142DOPC  H18X16894   3.391   3.241  14.019 -0.1513  0.6920 -1.4055
  142DOPC  H18Y16895   3.491   3.183  13.885 -0.9030 -0.0735 -0.5765
  142DOPC  H18Z16896   3.384   3.070  13.969  3.0269 -1.8978 -2.0488
  143DOPC     N16897   2.024   4.233  16.627  0.1823 -1.1146  0.0779
  143DOPC   C1216898   1.990   4.291  16.492 -0.1911  0.4075  0.6531
  143DOPC  H12A16899   2.066   4.362  16.461  1.7493 -1.4557  0.9631
  143DOPC  H12B16900   1.907   4.360  16.492 -0.5438  0.0813 -1.8562
  143DOPC   C1316901   1.905   4.168  16.691 -0.3646 -0.4174 -0.3159
  143DOPC  H13A16902   1.860   4.098  16.621  0.3835  0.6974 -1.9806
  143DOPC  H13B16903   1.932   4.104  16.773 -0.4681  1.0155  0.8722
  143DOPC  H13C16904   1.835   4.242  16.728  1.1128  0.4346  0.8669
  143DOPC   C1416905   2.069   4.347  16.713  0.0352  0.3602 -0.2154
  143DOPC  H14A16906   2.092   4.307  16.811 -0.8675 -0.8030 -0.4589
  143DOPC  H14B16907   2.152   4.397  16.665  1.1575 -0.2106  1.0649
  143DOPC  H14C16908   1.988   4.419  16.713 -0.3314  0.0521 -2.7319
  143DOPC   C1516909   2.129   4.136  16.603 -0.4532  0.0905  0.6997
  143DOPC  H15A16910   2.158   4.093  16.698 -0.0654 -1.6334 -0.1639
  143DOPC  H15B16911   2.209   4.187  16.552 -0.4120  1.6929  2.2439
  143DOPC  H15C16912   2.087   4.060  16.539 -1.1908  0.5651  0.6014
  143DOPC   C1116913   1.961   4.193  16.372  0.6672 -0.8653  0.2006
  143DOPC  H11A16914   1.961   4.262  16.285  3.8431 -1.3073 -0.2953
  143DOPC  H11B16915   2.054   4.136  16.349  1.0523  0.2847 -1.3197
  143DOPC     P16916   1.700   4.183  16.398 -0.0810 -0.1421 -0.0974
  143DOPC   O1316917   1.722   4.323  16.433  0.0236  0.2742 -0.0004
  143DOPC   O1416918   1.607   4.105  16.490 -0.2358  0.4257  0.5452
  143DOPC   O1216919   1.842   4.118  16.376  0.3345  0.2447  0.1634
  143DOPC   O1116920   1.642   4.178  16.253 -0.0845 -0.3599 -0.3379
  143DOPC    C116921   1.690   4.276  16.156 -0.1907  0.6229 -0.2217
  143DOPC    HA16922   1.754   4.357  16.196  0.7169  1.5861 -3.3947
  143DOPC    HB16923   1.595   4.330  16.136 -0.9682  0.8523  3.3343
  143DOPC    C216924   1.759   4.214  16.032  0.8936  0.8216 -0.2988
  143DOPC    HS16925   1.694   4.141  15.979  0.9689 -0.0600  0.7755
  143DOPC   O2116926   1.872   4.139  16.066 -0.0496  0.1653 -0.1052
  143DOPC   C2116927   1.871   4.010  16.072  0.0761  0.3714 -0.2238
  143DOPC   O2216928   1.769   3.942  16.060 -0.0115  0.5319 -0.5539
  143DOPC   C2216929   2.016   3.967  16.081 -0.1830  0.0886  0.0021
  143DOPC   H2R16930   2.033   3.934  16.186  4.2611 -2.4995 -1.2256
  143DOPC   H2S16931   2.076   4.060  16.077  1.5686 -0.9359  0.8486
  143DOPC    C316932   1.803   4.317  15.931 -0.7420 -0.7102  0.2093
  143DOPC    HX16933   1.900   4.363  15.960 -1.5270  1.3214 -0.2420
  143DOPC    HY16934   1.732   4.402  15.933 -0.4618 -0.4362 -0.7353
  143DOPC   O3116935   1.811   4.257  15.795  0.3395 -0.1261 -0.0123
  143DOPC   C3116936   1.904   4.300  15.712 -0.0647  0.4248  0.7622
  143DOPC   O3216937   1.986   4.381  15.741 -0.1033 -0.1921  0.0549
  143DOPC   C3216938   1.895   4.222  15.581 -0.0257  0.0766  0.1818
  143DOPC   H2X16939   1.907   4.114  15.606 -0.9610 -0.5717 -1.9882
  143DOPC   H2Y16940   1.788   4.226  15.551  0.2089 -0.5963 -0.7737
  143DOPC   C2316941   2.072   3.862  15.983  0.5450  0.1964  0.0496
  143DOPC   H3R16942   2.038   3.759  16.005  1.0630  0.2905  1.4601
  143DOPC   H3S16943   2.181   3.847  15.999  1.0698 -0.0393 -3.1408
  143DOPC   C2416944   2.055   3.893  15.837 -0.6328 -0.5983  0.0616
  143DOPC   H4R16945   2.066   4.003  15.821 -0.3854 -0.6810 -0.3355
  143DOPC   H4S16946   1.951   3.870  15.804 -0.0084 -3.2946 -0.2339
  143DOPC   C2516947   2.153   3.825  15.735 -0.1411 -0.3110 -0.5013
  143DOPC   H5R16948   2.150   3.714  15.740  0.7497 -0.4630 -2.3349
  143DOPC   H5S16949   2.259   3.839  15.768 -0.7582  1.0283  1.0600
  143DOPC   C2616950   2.141   3.870  15.591 -0.1725  0.0593  0.0173
  143DOPC   H6R16951   2.118   3.978  15.582 -0.2621  0.0463  0.0969
  143DOPC   H6S16952   2.055   3.818  15.545 -0.3919 -0.9900  1.5432
  143DOPC   C2716953   2.268   3.844  15.508 -0.0971 -0.2197  0.3356
  143DOPC   H7R16954   2.290   3.736  15.518 -1.3542 -0.5914 -0.6183
  143DOPC   H7S16955   2.363   3.891  15.540  0.6841 -2.4912  1.5436
  143DOPC   C2816956   2.251   3.885  15.362  0.0253  0.3501 -1.0389
  143DOPC   H8R16957   2.349   3.856  15.318 -0.1435  0.9703 -1.8403
  143DOPC   H8S16958   2.239   3.994  15.348  0.5096  0.2360 -2.5656
  143DOPC   C2916959   2.142   3.807  15.284 -0.1295 -0.3619  0.5411
  143DOPC   H9R16960   2.038   3.841  15.294 -0.7669 -1.1402 -2.4343
  143DOPC  C21016961   2.155   3.690  15.221 -0.5272  0.1134  0.3129
  143DOPC  H10R16962   2.059   3.650  15.186 -1.8677  1.5702  2.1214
  143DOPC  C21116963   2.283   3.609  15.193  0.3499 -0.7579  0.7403
  143DOPC  H11R16964   2.240   3.507  15.183 -3.0062  0.5142  1.1004
  143DOPC  H11S16965   2.352   3.611  15.280  1.8151  1.9653 -0.3472
  143DOPC  C21216966   2.361   3.659  15.068 -0.1441 -0.7305  0.0881
  143DOPC  H12R16967   2.451   3.596  15.056  0.0741 -0.6681  1.2415
  143DOPC  H12S16968   2.395   3.761  15.097  1.3629 -1.6766  1.9300
  143DOPC  C21316969   2.281   3.655  14.936 -0.1306  0.3617 -0.5006
  143DOPC  H13R16970   2.195   3.726  14.940 -0.1516  0.3122 -0.0296
  143DOPC  H13S16971   2.236   3.554  14.936  0.1297  0.2396 -0.9060
  143DOPC  C21416972   2.367   3.673  14.815  0.5922 -0.2401  0.1864
  143DOPC  H14R16973   2.468   3.638  14.847  0.9084  2.2546  2.2405
  143DOPC  H14S16974   2.373   3.781  14.788  2.2970 -0.7171 -1.6142
  143DOPC  C21516975   2.338   3.592  14.692 -0.1580  0.5935  0.2388
  143DOPC  H15R16976   2.233   3.606  14.658 -0.5167 -1.2587  0.4756
  143DOPC  H15S16977   2.346   3.483  14.711 -0.6695  0.3896 -0.6327
  143DOPC  C21616978   2.424   3.639  14.572  0.2384  0.6699  0.1197
  143DOPC  H16R16979   2.530   3.631  14.606  0.2462 -2.4752 -0.3564
  143DOPC  H16S16980   2.396   3.743  14.545  0.4966  0.3280 -1.6014
  143DOPC  C21716981   2.387   3.551  14.449 -0.0405  0.0057  0.8140
  143DOPC  H17R16982   2.277   3.546  14.433 -0.0981 -0.2785  1.3037
  143DOPC  H17S16983   2.417   3.447  14.472 -3.0776 -1.2464 -0.3898
  143DOPC  C21816984   2.440   3.611  14.317  0.7537 -0.4325 -0.2546
  143DOPC  H18R16985   2.551   3.608  14.326  0.7747 -3.8005 -0.3232
  143DOPC  H18S16986   2.401   3.715  14.321  1.3850 -0.2337  1.0456
  143DOPC  H18T16987   2.406   3.560  14.224 -1.5644 -0.0443  0.3096
  143DOPC   C3316988   1.984   4.278  15.464 -0.0548  0.5229  0.4317
  143DOPC   H3X16989   2.092   4.285  15.487 -0.0165  2.5338 -0.2362
  143DOPC   H3Y16990   1.944   4.375  15.429  1.0024  0.6865 -0.3359
  143DOPC   C3416991   1.973   4.180  15.343 -0.4712  0.4486 -0.2391
  143DOPC   H4X16992   1.870   4.174  15.301 -0.6668 -0.5554  0.3409
  143DOPC   H4Y16993   2.000   4.078  15.378 -0.8231  0.4923  0.1695
  143DOPC   C3516994   2.060   4.224  15.226 -0.5382  0.2831  0.0757
  143DOPC   H5X16995   2.166   4.240  15.256 -0.3958  0.1577 -0.3581
  143DOPC   H5Y16996   2.049   4.332  15.203  2.3021  0.5318 -0.4415
  143DOPC   C3616997   2.037   4.137  15.107 -0.2920 -0.0051 -0.1969
  143DOPC   H6X16998   2.025   4.032  15.141  1.9496 -0.1094  0.4531
  143DOPC   H6Y16999   1.940   4.158  15.059 -0.9055  1.8590  1.6594
  143DOPC   C3717000   2.149   4.149  14.997 -0.5969 -0.2138 -0.3413
  143DOPC   H7X17001   2.131   4.242  14.939 -2.8904 -0.2666  0.1915
  143DOPC   H7Y17002   2.251   4.148  15.042 -0.3881  0.2855 -0.7946
  143DOPC   C3817003   2.120   4.028  14.901  0.5339 -0.4083  0.5264
  143DOPC   H8X17004   2.015   4.028  14.865  1.1042  0.9314 -1.2700
  143DOPC   H8Y17005   2.134   3.933  14.957 -3.9346 -1.6022 -0.0187
  143DOPC   C3917006   2.224   4.036  14.789 -0.7397 -0.2122 -0.5982
  143DOPC   H9X17007   2.325   4.023  14.829 -0.9551 -1.5318 -0.4297
  143DOPC  C31017008   2.193   4.046  14.656  0.3244  0.7270  0.2126
  143DOPC  H10X17009   2.281   4.057  14.590 -0.5963  0.5435 -1.0796
  143DOPC  C31117010   2.061   4.084  14.601  0.4432  0.7634 -0.6118
  143DOPC  H11X17011   2.050   4.194  14.602 -2.0204  0.6060 -2.1594
  143DOPC  H11Y17012   1.976   4.032  14.651  0.2544  3.4698  2.1591
  143DOPC  C31217013   2.047   4.049  14.454 -0.0958  0.8073  0.1922
  143DOPC  H12X17014   2.111   4.115  14.393  2.0849 -0.4838  0.9839
  143DOPC  H12Y17015   1.946   4.088  14.429  0.2230  1.8976  0.5678
  143DOPC  C31317016   2.074   3.906  14.412 -0.7016 -0.0044 -0.0627
  143DOPC  H13X17017   2.178   3.872  14.435 -2.1863 -3.9353  1.7164
  143DOPC  H13Y17018   2.013   3.835  14.472  0.4677 -0.0925  1.0787
  143DOPC  C31417019   2.072   3.882  14.259 -0.3997  0.3114  0.1568
  143DOPC  H14X17020   2.165   3.924  14.216 -0.3025 -0.8684 -0.8543
  143DOPC  H14Y17021   2.091   3.773  14.248  0.8122  0.4783  0.4924
  143DOPC  C31517022   1.954   3.930  14.170 -0.1599 -0.1880  0.9423
  143DOPC  H15X17023   1.925   4.037  14.181 -0.3880 -0.0454 -0.8501
  143DOPC  H15Y17024   1.867   3.865  14.192 -1.5540  1.9401  2.1004
  143DOPC  C31617025   1.995   3.918  14.022  0.2637  1.0913  0.2688
  143DOPC  H16X17026   2.081   3.984  13.997  0.5729 -0.2526 -2.6252
  143DOPC  H16Y17027   2.038   3.816  14.014 -0.2110  1.0156 -2.1528
  143DOPC  C31717028   1.882   3.930  13.921  0.5473  0.2340  0.1905
  143DOPC  H17X17029   1.807   3.849  13.924  0.9056 -0.1156 -0.2246
  143DOPC  H17Y17030   1.834   4.030  13.931  1.0717  1.0449 -3.7948
  143DOPC  C31817031   1.942   3.924  13.777  0.3169  0.2026  0.1198
  143DOPC  H18X17032   2.011   4.010  13.789 -0.3474  0.9544 -1.2651
  143DOPC  H18Y17033   1.990   3.827  13.756  0.4754  0.2505  0.2605
  143DOPC  H18Z17034   1.865   3.941  13.699  1.0045  1.1295 -0.3763
  144DOPC     N17035   1.282   3.258  16.392 -0.4464  0.2550  0.1274
  144DOPC   C1217036   1.230   3.355  16.500  0.4325 -0.4240  0.8483
  144DOPC  H12A17037   1.235   3.303  16.594 -3.8131 -1.7292  0.5754
  144DOPC  H12B17038   1.123   3.363  16.488  0.4904  0.8947  1.1028
  144DOPC   C1317039   1.195   3.136  16.377  0.2652  0.4766 -0.0317
  144DOPC  H13A17040   1.191   3.088  16.474 -1.4481 -1.9575 -1.2057
  144DOPC  H13B17041   1.092   3.160  16.355  0.1957  1.0429  0.8537
  144DOPC  H13C17042   1.236   3.055  16.318  2.1805  1.8151 -0.6571
  144DOPC   C1417043   1.428   3.230  16.413 -0.0177  0.5863  0.7230
  144DOPC  H14A17044   1.463   3.157  16.341 -1.3752  2.6525 -2.2455
  144DOPC  H14B17045   1.490   3.318  16.411  1.2966 -0.3073  0.6591
  144DOPC  H14C17046   1.435   3.186  16.511 -0.7896  3.3923  2.1401
  144DOPC   C1517047   1.278   3.328  16.257  0.3257  0.1421 -0.4675
  144DOPC  H15A17048   1.353   3.281  16.195 -0.6243  0.2410 -1.7389
  144DOPC  H15B17049   1.298   3.434  16.264 -1.5198  0.4844  0.0800
  144DOPC  H15C17050   1.180   3.321  16.213 -0.2888  1.9238  0.5234
  144DOPC   C1117051   1.288   3.502  16.496 -0.0871  0.2609  0.1474
  144DOPC  H11A17052   1.251   3.562  16.410 -0.1051 -0.3420 -0.2681
  144DOPC  H11B17053   1.242   3.542  16.589 -0.2198 -1.0185  0.6492
  144DOPC     P17054   1.499   3.573  16.626 -0.0312 -0.0291  0.2993
  144DOPC   O1317055   1.435   3.532  16.753 -0.4924  0.2500 -0.3791
  144DOPC   O1417056   1.503   3.715  16.581 -0.2844 -0.7545 -0.0846
  144DOPC   O1217057   1.432   3.499  16.504  0.5517 -0.2650  0.0031
  144DOPC   O1117058   1.645   3.527  16.636 -0.6284 -0.2575 -0.4738
  144DOPC    C117059   1.682   3.392  16.619  0.6944  0.0776  0.0056
  144DOPC    HA17060   1.595   3.323  16.620  1.1237 -0.5317 -1.4194
  144DOPC    HB17061   1.751   3.366  16.702 -1.3524 -1.9197  1.1880
  144DOPC    C217062   1.771   3.365  16.486  0.5034 -0.1403  0.3299
  144DOPC    HS17063   1.869   3.412  16.506  0.2816  0.0246  1.0452
  144DOPC   O2117064   1.689   3.417  16.379 -0.0622 -0.1620  0.1792
  144DOPC   C2117065   1.730   3.533  16.327 -0.0152  0.0101  0.7126
  144DOPC   O2217066   1.826   3.598  16.353 -0.1582 -0.3535 -0.4238
  144DOPC   C2217067   1.622   3.578  16.220 -0.5754  0.4844 -0.3787
  144DOPC   H2R17068   1.575   3.669  16.263 -1.9728  0.3872 -1.6251
  144DOPC   H2S17069   1.538   3.506  16.210 -0.0643 -0.4684  1.6505
  144DOPC    C317070   1.796   3.216  16.459 -0.2383  0.6597 -0.1998
  144DOPC    HX17071   1.706   3.151  16.451 -0.2493  0.7085 -0.4545
  144DOPC    HY17072   1.845   3.177  16.551  2.9105 -0.7829 -2.3324
  144DOPC   O3117073   1.883   3.194  16.352  0.0766 -0.2656  0.7544
  144DOPC   C3117074   1.821   3.162  16.234 -0.3917  1.2700 -0.0520
  144DOPC   O3217075   1.700   3.139  16.220  0.0634  0.3107 -0.2400
  144DOPC   C3217076   1.926   3.139  16.130  0.3628 -0.6098  0.5380
  144DOPC   H2X17077   1.992   3.227  16.113 -0.9737 -0.0128 -2.0496
  144DOPC   H2Y17078   2.003   3.065  16.162  1.1697  0.7583  1.9174
  144DOPC   C2317079   1.700   3.609  16.093 -0.2273 -0.0252 -0.2047
  144DOPC   H3R17080   1.800   3.655  16.113 -0.4566  0.4395 -0.1097
  144DOPC   H3S17081   1.657   3.677  16.017 -0.7077  0.3509  0.3973
  144DOPC   C2417082   1.745   3.487  16.011 -0.3786 -0.3060 -0.1823
  144DOPC   H4R17083   1.657   3.429  15.975  0.9940 -2.0768 -0.8069
  144DOPC   H4S17084   1.812   3.422  16.072  1.1330 -0.1987 -1.6665
  144DOPC   C2517085   1.840   3.537  15.896  0.3382  0.2797  0.2468
  144DOPC   H5R17086   1.939   3.577  15.928 -0.0444  1.0822  0.4600
  144DOPC   H5S17087   1.787   3.628  15.859 -0.1281  0.3247  0.9959
  144DOPC   C2617088   1.848   3.441  15.780 -0.2589  0.1679 -0.3437
  144DOPC   H6R17089   1.751   3.388  15.771  0.0313 -0.7792  1.5927
  144DOPC   H6S17090   1.925   3.365  15.804  1.6798  2.1045 -0.0950
  144DOPC   C2717091   1.887   3.516  15.652 -0.1490  0.3273 -0.2524
  144DOPC   H7R17092   1.975   3.580  15.674  0.0110  0.1556 -0.3856
  144DOPC   H7S17093   1.814   3.589  15.612 -0.0788 -0.5819 -2.1469
  144DOPC   C2817094   1.925   3.420  15.540  0.2839 -0.3133  0.9850
  144DOPC   H8R17095   1.980   3.329  15.573 -0.0832 -0.9723 -0.1906
  144DOPC   H8S17096   1.998   3.465  15.469  0.0243 -0.4863  0.6041
  144DOPC   C2917097   1.806   3.354  15.472 -0.1469  0.0081  0.4822
  144DOPC   H9R17098   1.749   3.286  15.537  0.2692 -1.5085 -0.6894
  144DOPC  C21017099   1.762   3.370  15.346  0.3594  0.3382  0.3763
  144DOPC  H10R17100   1.679   3.306  15.311  2.0693 -1.2469 -1.0300
  144DOPC  C21117101   1.817   3.460  15.237  0.6390  0.8478  0.4622
  144DOPC  H11R17102   1.921   3.495  15.256  1.3933 -1.3932  0.7711
  144DOPC  H11S17103   1.753   3.548  15.215 -1.7824 -1.1914 -1.2357
  144DOPC  C21217104   1.826   3.381  15.102 -0.3099 -0.2544 -0.3662
  144DOPC  H12R17105   1.740   3.319  15.067 -0.5684  0.8912 -1.8889
  144DOPC  H12S17106   1.919   3.322  15.087  0.7164  0.9685  0.9981
  144DOPC  C21317107   1.838   3.481  14.987  0.6693 -0.8396  0.3272
  144DOPC  H13R17108   1.941   3.524  14.986 -0.9250  3.5644  0.6840
  144DOPC  H13S17109   1.772   3.569  15.002 -2.3781 -2.8757 -0.2118
  144DOPC  C21417110   1.804   3.425  14.848  0.0079  0.1282  0.0236
  144DOPC  H14R17111   1.697   3.400  14.834 -0.2466  0.4854  1.2164
  144DOPC  H14S17112   1.851   3.325  14.840  0.4695  0.3273  0.1968
  144DOPC  C21517113   1.857   3.517  14.734 -0.3857  0.2251 -0.6309
  144DOPC  H15R17114   1.968   3.516  14.739 -0.4172 -1.1170  3.0911
  144DOPC  H15S17115   1.819   3.619  14.753  1.6442  1.3133 -2.0721
  144DOPC  C21617116   1.812   3.466  14.599  0.2899  0.4664  0.9654
  144DOPC  H16R17117   1.701   3.461  14.600  0.2364  0.2711 -0.9654
  144DOPC  H16S17118   1.849   3.363  14.580  3.8282  1.3443  2.2955
  144DOPC  C21717119   1.867   3.543  14.473 -0.0980 -0.4149  0.7411
  144DOPC  H17R17120   1.977   3.533  14.480 -0.0770  0.4871  2.0565
  144DOPC  H17S17121   1.843   3.651  14.479  0.9117  0.0257 -1.7956
  144DOPC  C21817122   1.823   3.483  14.341  0.2578  0.2911  0.4470
  144DOPC  H18R17123   1.720   3.513  14.312  0.7850  1.0672 -0.6984
  144DOPC  H18S17124   1.832   3.373  14.338 -1.8885  0.0779 -0.3533
  144DOPC  H18T17125   1.884   3.531  14.262  1.1179 -0.1571  0.8369
  144DOPC   C3317126   1.869   3.105  15.985  0.6560  0.0731 -0.2317
  144DOPC   H3X17127   1.946   3.107  15.905  0.8295  1.5269 -0.0505
  144DOPC   H3Y17128   1.793   3.174  15.943 -0.4132 -0.4408  0.7870
  144DOPC   C3417129   1.816   2.961  15.979 -0.0747 -0.0803  0.3098
  144DOPC   H4X17130   1.776   2.938  16.080  0.6871 -0.5509  0.5184
  144DOPC   H4Y17131   1.902   2.890  15.978 -0.7989 -1.1513  3.3176
  144DOPC   C3517132   1.714   2.938  15.875 -0.1566 -0.4778  0.1761
  144DOPC   H5X17133   1.633   3.014  15.873 -2.4313 -2.7542 -1.4746
  144DOPC   H5Y17134   1.654   2.846  15.894  0.6576 -1.1176 -0.2981
  144DOPC   C3617135   1.767   2.934  15.732  0.0893  0.9507  0.5394
  144DOPC   H6X17136   1.790   3.037  15.697  0.4208  0.1084 -1.9343
  144DOPC   H6Y17137   1.856   2.869  15.728  1.3371  2.5466  1.3964
  144DOPC   C3717138   1.656   2.886  15.635 -0.3141  0.2265  0.6388
  144DOPC   H7X17139   1.638   2.780  15.663  0.7204 -0.2906 -0.5809
  144DOPC   H7Y17140   1.559   2.938  15.652 -1.4476 -0.2622 -3.4011
  144DOPC   C3817141   1.685   2.902  15.482  0.1106  0.0312  0.0839
  144DOPC   H8X17142   1.788   2.866  15.462 -0.1991 -0.8186  0.0116
  144DOPC   H8Y17143   1.671   3.008  15.450 -1.3990 -0.3830 -0.7431
  144DOPC   C3917144   1.589   2.819  15.399  0.3465  0.0839  0.4395
  144DOPC   H9X17145   1.548   2.726  15.441  0.9179 -1.0676 -1.4015
  144DOPC  C31017146   1.549   2.831  15.271  0.2571 -0.4015 -0.0031
  144DOPC  H10X17147   1.484   2.755  15.226 -0.3294  1.5463 -2.7256
  144DOPC  C31117148   1.605   2.936  15.175  0.8155  0.2084 -0.0173
  144DOPC  H11X17149   1.679   3.010  15.213  1.7992  0.2528 -1.9315
  144DOPC  H11Y17150   1.515   2.990  15.138  2.2406  2.0599 -0.9422
  144DOPC  C31217151   1.672   2.877  15.052 -0.2830  0.9289  0.4056
  144DOPC  H12X17152   1.614   2.797  15.002  0.5259 -0.2821  1.3366
  144DOPC  H12Y17153   1.769   2.843  15.093  1.7960  2.6118 -2.7700
  144DOPC  C31317154   1.699   2.983  14.948 -0.4927  0.0373  0.1588
  144DOPC  H13X17155   1.601   3.006  14.900  0.5084  2.3605 -0.9274
  144DOPC  H13Y17156   1.743   3.077  14.987  1.6101  0.4825 -2.9380
  144DOPC  C31417157   1.798   2.936  14.842 -0.1378  0.0607 -0.1841
  144DOPC  H14X17158   1.902   2.929  14.881 -1.0757 -1.7321  2.2947
  144DOPC  H14Y17159   1.767   2.834  14.809 -2.0087  1.0182 -1.5624
  144DOPC  C31517160   1.804   3.027  14.722 -0.1333 -0.6214 -0.7370
  144DOPC  H15X17161   1.891   3.001  14.658  0.2758  1.3820 -1.0404
  144DOPC  H15Y17162   1.810   3.133  14.753 -1.2065 -1.1039  1.2675
  144DOPC  C31617163   1.673   3.015  14.637  0.6846  0.4283 -0.2467
  144DOPC  H16X17164   1.656   2.912  14.600  0.5016  0.9129 -1.5859
  144DOPC  H16Y17165   1.580   3.050  14.687  0.4308  1.9331 -1.6874
  144DOPC  C31717166   1.676   3.109  14.517 -0.3298  0.1779  0.4640
  144DOPC  H17X17167   1.675   3.216  14.543  0.3201  0.5440 -0.9056
  144DOPC  H17Y17168   1.770   3.097  14.459 -0.2992  0.7439  0.3896
  144DOPC  C31817169   1.559   3.081  14.420 -0.0011 -0.0107 -0.4053
  144DOPC  H18X17170   1.583   3.124  14.321 -1.3681  3.3343  0.5704
  144DOPC  H18Y17171   1.552   2.971  14.411 -0.3155  0.2027 -5.2665
  144DOPC  H18Z17172   1.461   3.125  14.449  0.3786  0.7554 -0.2625
  145DOPC     N17173   2.013   5.624  15.918  0.6043 -0.1397  0.5759
  145DOPC   C1217174   2.101   5.668  15.797  0.0802 -0.4718 -0.3570
  145DOPC  H12A17175   2.119   5.774  15.808  3.0146 -0.9816  0.7995
  145DOPC  H12B17176   2.038   5.659  15.710 -0.6230  1.5456 -0.1144
  145DOPC   C1317177   1.898   5.718  15.943 -0.3507  0.0208 -0.4102
  145DOPC  H13A17178   1.835   5.681  16.023  0.8395 -1.6494 -0.1919
  145DOPC  H13B17179   1.932   5.813  15.980 -1.1798  0.2602 -0.2274
  145DOPC  H13C17180   1.835   5.732  15.856 -1.0697 -1.4473 -0.1708
  145DOPC   C1417181   2.086   5.613  16.047 -0.2009 -0.2473 -1.2462
  145DOPC  H14A17182   2.031   5.613  16.139  0.1830  0.9377 -1.0032
  145DOPC  H14B17183   2.151   5.526  16.047 -1.0036 -0.8562 -0.5416
  145DOPC  H14C17184   2.159   5.692  16.036 -1.8023  1.1856 -1.9832
  145DOPC   C1517185   1.963   5.486  15.890  0.1925 -0.2776 -0.7744
  145DOPC  H15A17186   1.887   5.496  15.814 -1.7590 -1.7869  0.8512
  145DOPC  H15B17187   1.912   5.449  15.978 -0.9017 -3.0201 -2.4324
  145DOPC  H15C17188   2.035   5.416  15.852  1.1773 -1.0834  2.2501
  145DOPC   C1117189   2.238   5.607  15.778  0.2195 -0.3845 -0.0698
  145DOPC  H11A17190   2.277   5.655  15.686  1.2941 -0.7743  0.1609
  145DOPC  H11B17191   2.297   5.642  15.866  0.4538 -0.7761 -0.0690
  145DOPC     P17192   2.332   5.364  15.835  0.0062 -0.5072  0.2131
  145DOPC   O1317193   2.310   5.382  15.982  0.0716 -0.3858  0.4443
  145DOPC   O1417194   2.475   5.370  15.788  0.4864 -0.6317 -0.0060
  145DOPC   O1217195   2.234   5.462  15.760 -0.1473  0.4613 -0.2263
  145DOPC   O1117196   2.288   5.222  15.801 -0.4905 -0.1729  0.3405
  145DOPC    C117197   2.211   5.175  15.690 -0.4249  0.2771 -0.2768
  145DOPC    HA17198   2.119   5.235  15.676 -2.0258 -2.0332 -0.1919
  145DOPC    HB17199   2.176   5.071  15.710 -0.6916  0.3091 -0.5733
  145DOPC    C217200   2.289   5.189  15.554 -0.3558 -0.2064 -1.4411
  145DOPC    HS17201   2.390   5.150  15.581 -0.5167 -0.2259 -0.8494
  145DOPC   O2117202   2.284   5.330  15.508  0.2206  0.0041 -0.2685
  145DOPC   C2117203   2.398   5.357  15.449 -0.4580 -0.4507 -0.0061
  145DOPC   O2217204   2.497   5.284  15.452  0.3365 -0.4172  0.1580
  145DOPC   C2217205   2.388   5.504  15.401 -0.0969 -0.1540  0.4243
  145DOPC   H2R17206   2.409   5.567  15.491  3.2499 -0.5615  0.0741
  145DOPC   H2S17207   2.281   5.523  15.379  0.1284 -0.5135 -1.0508
  145DOPC    C317208   2.226   5.096  15.442 -1.0908  0.0916  0.3454
  145DOPC    HX17209   2.124   5.137  15.429 -1.7288 -0.6863  2.4072
  145DOPC    HY17210   2.226   5.000  15.498  3.2615  1.1036  2.5353
  145DOPC   O3117211   2.309   5.096  15.325  0.1079 -0.1969 -0.4509
  145DOPC   C3117212   2.421   5.018  15.322 -0.3748  0.7004  0.0898
  145DOPC   O3217213   2.456   4.942  15.406 -0.4650 -0.5802  0.3155
  145DOPC   C3217214   2.486   5.026  15.184 -0.2050  0.3164 -0.0490
  145DOPC   H2X17215   2.460   4.935  15.126 -0.9276  1.0441 -0.9099
  145DOPC   H2Y17216   2.434   5.110  15.132 -2.6359  0.4245  2.3389
  145DOPC   C2317217   2.493   5.526  15.287  0.4718 -0.0072  0.0976
  145DOPC   H3R17218   2.585   5.475  15.323 -0.1180 -2.7297 -1.9723
  145DOPC   H3S17219   2.513   5.635  15.278 -0.5692  0.1129 -1.1291
  145DOPC   C2417220   2.454   5.493  15.147  0.2958  0.6250  0.7973
  145DOPC   H4R17221   2.354   5.535  15.120 -0.5250  0.1839  2.9188
  145DOPC   H4S17222   2.442   5.383  15.134  1.1547  0.4289  1.6292
  145DOPC   C2517223   2.548   5.555  15.044  1.0075  0.1725  0.8133
  145DOPC   H5R17224   2.646   5.560  15.097  0.8932 -1.2694  1.1762
  145DOPC   H5S17225   2.515   5.658  15.019 -1.2048 -0.3921  1.2438
  145DOPC   C2617226   2.575   5.476  14.915  0.0068  0.0653 -0.7281
  145DOPC   H6R17227   2.485   5.425  14.876  1.5183 -1.3976 -2.5185
  145DOPC   H6S17228   2.640   5.390  14.943 -0.1052  0.5055  1.0117
  145DOPC   C2717229   2.625   5.572  14.802 -0.4625 -0.3101  0.0391
  145DOPC   H7R17230   2.716   5.620  14.843 -1.3524 -0.8399  2.8938
  145DOPC   H7S17231   2.556   5.657  14.785  0.6686  0.8544  0.9941
  145DOPC   C2817232   2.675   5.505  14.678 -0.2170 -0.2651 -0.1050
  145DOPC   H8R17233   2.733   5.418  14.714  0.4692  0.6945  1.1653
  145DOPC   H8S17234   2.748   5.573  14.630 -0.4641  1.1821  1.4749
  145DOPC   C2917235   2.568   5.446  14.592  0.0517 -0.1122  0.5915
  145DOPC   H9R17236   2.486   5.393  14.643 -1.0150 -2.8457 -3.4738
  145DOPC  C21017237   2.549   5.442  14.462  0.5195  0.1037  0.4054
  145DOPC  H10R17238   2.465   5.383  14.423  0.5886 -0.0601  0.5025
  145DOPC  C21117239   2.637   5.501  14.360 -0.2924 -0.3496  0.0823
  145DOPC  H11R17240   2.702   5.422  14.318 -0.6468  1.2105 -3.7757
  145DOPC  H11S17241   2.703   5.584  14.395 -2.0219  0.7841  0.7940
  145DOPC  C21217242   2.562   5.557  14.240 -0.1894 -0.0016 -0.2048
  145DOPC  H12R17243   2.516   5.653  14.270 -0.9273 -0.4670  0.1851
  145DOPC  H12S17244   2.482   5.491  14.198  0.2212 -0.3287 -0.4863
  145DOPC  C21317245   2.655   5.574  14.120 -0.5121 -0.6220 -0.1475
  145DOPC  H13R17246   2.687   5.472  14.092  1.7539  0.3164 -1.3158
  145DOPC  H13S17247   2.751   5.618  14.154 -1.0732  1.4217 -1.0514
  145DOPC  C21417248   2.591   5.675  14.016 -0.0877 -0.8844 -0.5673
  145DOPC  H14R17249   2.556   5.771  14.060  1.6744 -0.1077 -0.7592
  145DOPC  H14S17250   2.495   5.638  13.973  0.3032  0.3266 -2.6374
  145DOPC  C21517251   2.692   5.696  13.899  0.0591  0.0558  0.6008
  145DOPC  H15R17252   2.707   5.604  13.840 -0.5471  0.7036 -0.6082
  145DOPC  H15S17253   2.794   5.730  13.928  2.1624 -2.9221 -2.4853
  145DOPC  C21617254   2.636   5.792  13.800  0.2298 -0.3108  0.4623
  145DOPC  H16R17255   2.631   5.897  13.836  0.7454  0.2039 -0.8959
  145DOPC  H16S17256   2.532   5.759  13.778  0.0785 -0.8786  1.8903
  145DOPC  C21717257   2.719   5.809  13.667  0.7970  0.8381 -0.2139
  145DOPC  H17R17258   2.700   5.718  13.607  1.2433 -0.3075  1.3367
  145DOPC  H17S17259   2.829   5.814  13.680  1.3239 -2.1950 -2.5849
  145DOPC  C21817260   2.671   5.934  13.586  0.3388  0.1779 -0.3488
  145DOPC  H18R17261   2.691   6.032  13.633 -0.3882  0.8862 -1.4589
  145DOPC  H18S17262   2.560   5.929  13.579 -0.0317 -0.8114  3.6935
  145DOPC  H18T17263   2.714   5.932  13.484  0.8588  0.5600 -0.1381
  145DOPC   C3317264   2.631   5.068  15.198 -0.9579 -0.1437 -0.4787
  145DOPC   H3X17265   2.686   4.983  15.242  0.7318  0.7337 -0.8147
  145DOPC   H3Y17266   2.639   5.165  15.252 -0.7614  0.5847 -1.7852
  145DOPC   C3417267   2.696   5.086  15.058  0.4574  0.4745  1.0332
  145DOPC   H4X17268   2.647   5.164  14.997 -2.3662 -1.4417  0.6347
  145DOPC   H4Y17269   2.679   4.992  15.002  0.0660  2.1455 -1.8241
  145DOPC   C3517270   2.843   5.109  15.057 -0.5591 -0.3045  0.3635
  145DOPC   H5X17271   2.880   5.018  15.111 -3.5011 -2.2345 -0.6327
  145DOPC   H5Y17272   2.879   5.198  15.114 -0.9405 -1.0495  1.8365
  145DOPC   C3617273   2.901   5.111  14.917  0.4271  0.4856  0.0316
  145DOPC   H6X17274   2.912   5.010  14.872  3.6844  0.1391  1.2918
  145DOPC   H6Y17275   2.830   5.161  14.848 -1.7099 -1.6861  0.5292
  145DOPC   C3717276   3.036   5.181  14.915  0.0419  0.5585  0.5618
  145DOPC   H7X17277   3.015   5.290  14.915 -0.7601  0.4763 -2.0242
  145DOPC   H7Y17278   3.109   5.154  14.994  0.9029  0.5101 -0.2334
  145DOPC   C3817279   3.120   5.172  14.784  0.5244  0.3777 -0.5464
  145DOPC   H8X17280   3.151   5.066  14.795  0.4293  0.5095  1.2546
  145DOPC   H8Y17281   3.212   5.232  14.800  1.2780 -0.9939  0.4418
  145DOPC   C3917282   3.042   5.207  14.661  0.3131  0.0761  0.5135
  145DOPC   H9X17283   3.028   5.316  14.649 -0.4844 -0.0606  0.1591
  145DOPC  C31017284   3.008   5.129  14.553 -1.2550 -0.1705  0.5142
  145DOPC  H10X17285   2.945   5.171  14.473 -1.8868 -1.5173  0.2666
  145DOPC  C31117286   3.021   4.979  14.534 -0.0870 -0.1683  0.2911
  145DOPC  H11X17287   2.923   4.942  14.496  0.0009 -1.5512  1.3263
  145DOPC  H11Y17288   3.039   4.926  14.630 -2.8347 -0.1028  0.9429
  145DOPC  C31217289   3.109   4.938  14.414 -0.1416  0.4951 -0.4780
  145DOPC  H12X17290   3.055   4.957  14.318  0.5640  0.2776 -0.9301
  145DOPC  H12Y17291   3.119   4.828  14.415  1.5587  0.6281  0.5560
  145DOPC  C31317292   3.253   5.006  14.407 -0.8725  0.4332  0.4379
  145DOPC  H13X17293   3.247   5.114  14.382 -0.8030 -0.1436 -2.4832
  145DOPC  H13Y17294   3.303   4.998  14.505  1.3042 -2.3193 -0.7566
  145DOPC  C31417295   3.340   4.949  14.293 -0.0848  0.0808  0.3781
  145DOPC  H14X17296   3.445   4.980  14.310 -0.2861  1.2439 -0.3396
  145DOPC  H14Y17297   3.337   4.838  14.295  1.1937 -0.1090 -2.6397
  145DOPC  C31517298   3.318   4.988  14.139  0.1068 -1.0534 -0.7306
  145DOPC  H15X17299   3.346   5.094  14.120 -1.5029  0.2964  3.1968
  145DOPC  H15Y17300   3.208   4.985  14.121  0.2453  0.4031 -2.0416
  145DOPC  C31617301   3.387   4.896  14.037 -0.3441 -0.2121 -0.4253
  145DOPC  H16X17302   3.471   4.844  14.088  1.5233  3.3886  0.4794
  145DOPC  H16Y17303   3.316   4.818  14.000  1.2999 -1.2276 -1.5500
  145DOPC  C31717304   3.428   4.976  13.910 -0.2942 -0.0656 -0.1924
  145DOPC  H17X17305   3.333   5.020  13.873 -0.4898  0.2168  0.6322
  145DOPC  H17Y17306   3.495   5.059  13.941 -0.1442 -0.8073  1.6378
  145DOPC  C31817307   3.505   4.893  13.804 -0.0394 -0.0244  0.1786
  145DOPC  H18X17308   3.520   4.952  13.710  0.2545 -1.8026 -0.9439
  145DOPC  H18Y17309   3.602   4.862  13.850  0.2498  0.2607 -0.2282
  145DOPC  H18Z17310   3.439   4.807  13.781  1.0533 -0.6195 -0.8419
  146DOPC     N17311   3.297   2.528  16.592 -0.1752 -0.7996  0.3760
  146DOPC   C1217312   3.284   2.582  16.456  0.4110 -0.2114  0.4813
  146DOPC  H12A17313   3.179   2.577  16.433  0.2120 -1.5371  1.5980
  146DOPC  H12B17314   3.337   2.521  16.385  2.9320  2.2176  0.0976
  146DOPC   C1317315   3.195   2.596  16.677 -0.0383 -0.3149 -1.0245
  146DOPC  H13A17316   3.096   2.559  16.658 -1.0559  1.5590  0.3030
  146DOPC  H13B17317   3.220   2.567  16.778 -1.5922  1.2202 -0.1425
  146DOPC  H13C17318   3.192   2.704  16.679 -2.8645 -0.2993  2.2652
  146DOPC   C1417319   3.438   2.542  16.643  0.2030  0.3280  0.2236
  146DOPC  H14A17320   3.472   2.645  16.646 -0.7339  0.6412  0.4875
  146DOPC  H14B17321   3.441   2.505  16.744  2.5691  3.4187  1.4438
  146DOPC  H14C17322   3.504   2.482  16.583  0.8587  1.3899 -0.1540
  146DOPC   C1517323   3.272   2.386  16.592  0.5054  0.6761 -0.8895
  146DOPC  H15A17324   3.301   2.339  16.685 -0.7370 -1.1960 -1.3948
  146DOPC  H15B17325   3.330   2.335  16.517  0.4748  1.5066 -1.4941
  146DOPC  H15C17326   3.171   2.350  16.595  0.9840 -0.8940  2.6966
  146DOPC   C1117327   3.338   2.722  16.418  0.1956  0.0988 -0.3212
  146DOPC  H11A17328   3.305   2.758  16.318  1.7373  1.3170 -0.4284
  146DOPC  H11B17329   3.282   2.794  16.481  0.4915 -1.7818  2.2477
  146DOPC     P17330   3.581   2.676  16.333 -0.0755 -0.1259 -0.0273
  146DOPC   O1317331   3.506   2.638  16.210  0.3879 -0.1307  0.3240
  146DOPC   O1417332   3.664   2.571  16.395  0.6464  0.8323 -0.1690
  146DOPC   O1217333   3.480   2.738  16.440  0.0528 -0.0987 -0.4600
  146DOPC   O1117334   3.675   2.808  16.307 -0.1941 -0.1049  0.0411
  146DOPC    C117335   3.602   2.927  16.272  0.0632  0.0603 -0.0245
  146DOPC    HA17336   3.626   3.010  16.341  0.5161 -1.5939  1.8878
  146DOPC    HB17337   3.492   2.913  16.271  0.2668 -1.8729  0.2903
  146DOPC    C217338   3.635   2.996  16.141  0.0631  0.3151 -0.8003
  146DOPC    HS17339   3.562   3.079  16.133 -0.1104  0.1322 -1.1105
  146DOPC   O2117340   3.628   2.908  16.032  0.0577  0.7899  0.6113
  146DOPC   C2117341   3.508   2.877  15.997  0.1999 -0.1911  0.0775
  146DOPC   O2217342   3.400   2.931  16.025 -0.2760 -0.2124  0.2998
  146DOPC   C2217343   3.510   2.758  15.904  0.4817  0.4698 -0.4982
  146DOPC   H2R17344   3.570   2.686  15.963  0.4161  1.7093  1.1640
  146DOPC   H2S17345   3.553   2.779  15.804 -0.1893  0.0303 -0.8866
  146DOPC    C317346   3.774   3.066  16.142 -0.0842 -0.2721  0.1239
  146DOPC    HX17347   3.862   3.000  16.160 -0.0794  0.0910  1.5315
  146DOPC    HY17348   3.774   3.123  16.237 -1.8617 -0.1499  0.0672
  146DOPC   O3117349   3.796   3.150  16.027  0.5036  0.5115 -0.0322
  146DOPC   C3117350   3.824   3.282  16.057  0.1263  0.6446 -0.4329
  146DOPC   O3217351   3.841   3.326  16.169  0.4714 -0.1125 -0.6007
  146DOPC   C3217352   3.826   3.355  15.926  0.4186 -0.2466  0.4482
  146DOPC   H2X17353   3.896   3.439  15.943 -1.5940  2.1567 -2.0828
  146DOPC   H2Y17354   3.861   3.287  15.846  0.3981  0.5547 -0.2648
  146DOPC   C2317355   3.368   2.706  15.890  0.2682 -0.8284 -0.6511
  146DOPC   H3R17356   3.307   2.791  15.851  0.7439 -0.7088 -1.1373
  146DOPC   H3S17357   3.321   2.683  15.988  0.6507  1.4077  0.1175
  146DOPC   C2417358   3.350   2.586  15.792 -0.1160 -0.6764 -0.5532
  146DOPC   H4R17359   3.384   2.493  15.844  0.9435 -0.0524 -0.0860
  146DOPC   H4S17360   3.412   2.605  15.703  0.4990  2.0112  0.3432
  146DOPC   C2517361   3.207   2.558  15.748  0.3254 -0.0554  0.2176
  146DOPC   H5R17362   3.166   2.639  15.683  1.0571  0.8026  0.8027
  146DOPC   H5S17363   3.157   2.570  15.847 -1.5295  0.6737 -0.7508
  146DOPC   C2617364   3.165   2.415  15.714  0.5276 -0.5121  0.1778
  146DOPC   H6R17365   3.065   2.406  15.666 -0.6403  0.1564  2.3826
  146DOPC   H6S17366   3.168   2.347  15.801  1.5738 -0.4995  0.1653
  146DOPC   C2717367   3.261   2.345  15.623 -0.4019 -0.1350  0.4615
  146DOPC   H7R17368   3.234   2.238  15.613 -2.4507  0.3547  0.1102
  146DOPC   H7S17369   3.364   2.354  15.663 -0.1098  0.8609 -0.4730
  146DOPC   C2817370   3.271   2.413  15.478  0.1354  0.6227  0.1131
  146DOPC   H8R17371   3.370   2.382  15.439  0.5445  1.5503  0.4076
  146DOPC   H8S17372   3.260   2.523  15.485 -0.1132  0.7360 -1.6948
  146DOPC   C2917373   3.157   2.370  15.384 -0.0953  0.0119 -0.0928
  146DOPC   H9R17374   3.057   2.369  15.428  0.0473 -3.0205  0.3277
  146DOPC  C21017375   3.168   2.336  15.255 -0.0311  0.7239 -0.1052
  146DOPC  H10R17376   3.081   2.301  15.197 -0.1343 -0.1672  0.5684
  146DOPC  C21117377   3.296   2.332  15.170  0.3957  0.7397 -0.8983
  146DOPC  H11R17378   3.363   2.249  15.201 -0.7657  0.1291  0.0938
  146DOPC  H11S17379   3.356   2.423  15.194 -0.7300  1.0665  0.8570
  146DOPC  C21217380   3.274   2.316  15.020  0.3762 -0.3493  0.1769
  146DOPC  H12R17381   3.211   2.225  15.006  0.1017 -0.2936  1.0168
  146DOPC  H12S17382   3.375   2.281  14.990  1.5288  1.2732  1.9843
  146DOPC  C21317383   3.216   2.432  14.942 -0.1393  0.3912  0.1275
  146DOPC  H13R17384   3.294   2.510  14.927 -1.2650  1.5070 -0.1451
  146DOPC  H13S17385   3.134   2.484  14.996 -1.5662 -0.7125 -0.9002
  146DOPC  C21417386   3.171   2.392  14.800 -0.0806  0.3793  1.0025
  146DOPC  H14R17387   3.103   2.469  14.756 -0.7670 -0.5762  0.3376
  146DOPC  H14S17388   3.114   2.297  14.811 -1.4977  1.2449  1.4877
  146DOPC  C21517389   3.295   2.362  14.707  0.7211  0.0834 -0.2222
  146DOPC  H15R17390   3.347   2.272  14.745 -0.8530 -1.3364 -1.2320
  146DOPC  H15S17391   3.359   2.453  14.704  0.7575  0.0402 -1.0521
  146DOPC  C21617392   3.245   2.331  14.561 -0.3253 -0.1153 -0.6571
  146DOPC  H16R17393   3.169   2.250  14.572 -0.2079 -0.4608 -2.1736
  146DOPC  H16S17394   3.322   2.292  14.491  2.0062  2.7541  0.1281
  146DOPC  C21717395   3.176   2.447  14.496  0.5079  0.8656  0.6167
  146DOPC  H17R17396   3.079   2.452  14.549  0.9053  0.9740  1.3586
  146DOPC  H17S17397   3.155   2.421  14.390  1.4256  1.4337  0.2822
  146DOPC  C21817398   3.234   2.593  14.504 -0.1109  0.1510 -0.3291
  146DOPC  H18R17399   3.169   2.666  14.451  0.1910 -0.1853 -1.1857
  146DOPC  H18S17400   3.330   2.586  14.449 -1.2545 -0.2486 -2.3755
  146DOPC  H18T17401   3.252   2.618  14.611 -0.5054 -0.3193 -0.1503
  146DOPC   C3317402   3.689   3.434  15.892  0.5455  0.0344  1.0348
  146DOPC   H3X17403   3.700   3.521  15.960  1.3308  0.3715  0.4895
  146DOPC   H3Y17404   3.596   3.378  15.917  1.0154 -1.4998 -0.4734
  146DOPC   C3417405   3.686   3.471  15.745 -0.2138 -0.0087 -0.6091
  146DOPC   H4X17406   3.786   3.494  15.703  0.4302 -0.2562  0.7379
  146DOPC   H4Y17407   3.627   3.565  15.742  2.4191  1.8045  0.7885
  146DOPC   C3517408   3.617   3.363  15.657 -0.1958 -0.3595  0.0974
  146DOPC   H5X17409   3.513   3.339  15.687 -0.1240  0.1882  0.8185
  146DOPC   H5Y17410   3.677   3.270  15.669 -0.4654 -0.3171  2.1407
  146DOPC   C3617411   3.610   3.417  15.513 -0.3336  1.1449  0.4406
  146DOPC   H6X17412   3.537   3.498  15.491  0.5580  2.5258  2.3076
  146DOPC   H6Y17413   3.707   3.466  15.491 -1.1913  2.2840 -1.0005
  146DOPC   C3717414   3.561   3.303  15.423 -0.2069  0.1343  0.0670
  146DOPC   H7X17415   3.630   3.217  15.410 -2.3700 -1.9468  1.4869
  146DOPC   H7Y17416   3.463   3.275  15.467  0.1501  0.4132  1.0771
  146DOPC   C3817417   3.533   3.353  15.283  0.4352  0.1090  0.4074
  146DOPC   H8X17418   3.621   3.405  15.239  1.3462 -1.2309  0.5809
  146DOPC   H8Y17419   3.449   3.425  15.271 -0.5670 -1.2457 -1.0498
  146DOPC   C3917420   3.487   3.238  15.200 -0.2774 -0.4123  0.2439
  146DOPC   H9X17421   3.414   3.172  15.248 -0.3068 -1.8236 -1.6234
  146DOPC  C31017422   3.522   3.201  15.079  0.3291  0.5097 -0.2978
  146DOPC  H10X17423   3.446   3.140  15.029  0.6515  1.2065 -1.6837
  146DOPC  C31117424   3.638   3.258  15.001 -0.0261 -1.5038  0.1210
  146DOPC  H11X17425   3.709   3.186  14.955  2.4273  1.5500 -1.2219
  146DOPC  H11Y17426   3.706   3.328  15.054  0.2642 -0.7881 -1.1333
  146DOPC  C31217427   3.576   3.342  14.885  0.0589  0.1708  0.2483
  146DOPC  H12X17428   3.515   3.428  14.919 -1.2627 -0.4963 -0.3780
  146DOPC  H12Y17429   3.515   3.265  14.833  1.1753 -0.6801  0.1461
  146DOPC  C31317430   3.679   3.398  14.786  0.1889 -0.5068  0.2992
  146DOPC  H13X17431   3.763   3.463  14.816  1.0778 -1.8410  0.7729
  146DOPC  H13Y17432   3.716   3.307  14.735  0.5005 -0.1666 -0.0834
  146DOPC  C31417433   3.602   3.470  14.676  0.4572 -0.8376 -0.6921
  146DOPC  H14X17434   3.542   3.551  14.721  1.7657 -0.7446  0.9842
  146DOPC  H14Y17435   3.684   3.520  14.620 -0.6603  2.5298  0.4587
  146DOPC  C31517436   3.525   3.382  14.574  0.6907 -0.0824 -0.4549
  146DOPC  H15X17437   3.429   3.351  14.621 -0.2946  1.5368 -1.3147
  146DOPC  H15Y17438   3.569   3.280  14.568 -1.4875 -0.9991 -3.4874
  146DOPC  C31617439   3.486   3.433  14.435 -0.1690 -0.2564  0.4755
  146DOPC  H16X17440   3.423   3.353  14.391  1.0429 -0.9137 -0.1159
  146DOPC  H16Y17441   3.423   3.522  14.452 -0.6850 -1.0512  3.1678
  146DOPC  C31717442   3.609   3.472  14.357  0.2933 -0.2291  0.6783
  146DOPC  H17X17443   3.652   3.568  14.394  0.6294  0.1550 -0.6540
  146DOPC  H17Y17444   3.695   3.403  14.365 -0.4354 -1.4277 -1.2507
  146DOPC  C31817445   3.571   3.479  14.207 -0.4990 -0.2493  0.9966
  146DOPC  H18X17446   3.655   3.492  14.136 -2.3953  2.2491 -1.0022
  146DOPC  H18Y17447   3.501   3.398  14.177 -0.6032  0.1860  0.0327
  146DOPC  H18Z17448   3.517   3.574  14.187  0.0651  0.2210  1.6658
  147DOPC     N17449   0.757   3.879  16.899  0.3119  0.1064 -0.0287
  147DOPC   C1217450   0.863   3.850  16.798 -0.0634 -0.0298  0.0696
  147DOPC  H12A17451   0.944   3.914  16.830  0.4076 -0.5370 -0.1065
  147DOPC  H12B17452   0.831   3.888  16.701 -2.1054 -1.7143  0.0020
  147DOPC   C1317453   0.818   3.860  17.033 -0.2381 -0.3680  0.7159
  147DOPC  H13A17454   0.867   3.954  17.053  1.1163 -0.6544 -1.0685
  147DOPC  H13B17455   0.742   3.847  17.109 -0.1866 -1.7197  0.5610
  147DOPC  H13C17456   0.884   3.776  17.044  1.1337  0.4138 -1.1435
  147DOPC   C1417457   0.648   3.781  16.897  0.2382 -0.3548 -0.2586
  147DOPC  H14A17458   0.603   3.773  16.799 -0.2238 -0.6251 -0.0286
  147DOPC  H14B17459   0.683   3.683  16.924  0.4274  0.1443  1.3872
  147DOPC  H14C17460   0.577   3.811  16.973  0.8472  1.1262 -0.2259
  147DOPC   C1517461   0.702   4.008  16.877  0.2166 -1.1283  0.0397
  147DOPC  H15A17462   0.628   4.038  16.949  0.0762  1.7179 -1.1620
  147DOPC  H15B17463   0.647   4.001  16.784 -0.4177 -2.8702  0.5137
  147DOPC  H15C17464   0.780   4.080  16.858  1.5463 -2.6627 -0.5400
  147DOPC   C1117465   0.904   3.706  16.769 -0.6415 -0.0573 -0.7449
  147DOPC  H11A17466   0.997   3.709  16.708 -0.7750  1.8880 -0.9073
  147DOPC  H11B17467   0.928   3.643  16.857  0.0429 -0.6643 -1.3510
  147DOPC     P17468   0.808   3.490  16.662  0.1792 -0.0263 -0.0298
  147DOPC   O1317469   0.683   3.449  16.614  0.0934  0.5747 -0.9867
  147DOPC   O1417470   0.864   3.408  16.777 -0.2555 -0.3192  0.2222
  147DOPC   O1217471   0.795   3.637  16.704  0.5194 -0.1564  0.2294
  147DOPC   O1117472   0.919   3.482  16.544  0.4216  0.2356  0.3918
  147DOPC    C117473   0.926   3.581  16.440  0.1597  0.4814  0.3243
  147DOPC    HA17474   1.033   3.594  16.411  0.3525 -0.9785  0.3085
  147DOPC    HB17475   0.892   3.681  16.475 -0.3467  1.2045 -2.0452
  147DOPC    C217476   0.839   3.540  16.315  0.2781 -0.8488  0.6463
  147DOPC    HS17477   0.736   3.516  16.348  0.4574 -1.9749  0.4252
  147DOPC   O2117478   0.909   3.433  16.248 -0.0840 -0.3552  0.7796
  147DOPC   C2117479   0.837   3.331  16.221  0.3296  0.0367  0.1254
  147DOPC   O2217480   0.724   3.309  16.261  0.0401 -0.2172  0.7818
  147DOPC   C2217481   0.920   3.235  16.144  0.4603 -0.1347  0.1435
  147DOPC   H2R17482   0.960   3.166  16.221  2.3691  0.9451  0.1943
  147DOPC   H2S17483   1.007   3.291  16.102  0.7936 -0.7215  0.0398
  147DOPC    C317484   0.827   3.665  16.217  0.2524  0.1746  1.0729
  147DOPC    HX17485   0.923   3.719  16.202  0.7552 -1.3432 -1.6606
  147DOPC    HY17486   0.750   3.732  16.261 -2.2932  0.3141 -3.1211
  147DOPC   O3117487   0.777   3.632  16.085 -0.7016 -0.1171 -0.1718
  147DOPC   C3117488   0.853   3.639  15.981  0.2076  0.0334  0.0829
  147DOPC   O3217489   0.974   3.666  15.982  0.0603  0.5798 -0.1805
  147DOPC   C3217490   0.768   3.604  15.866  0.3138  0.4734 -0.3159
  147DOPC   H2X17491   0.698   3.518  15.876 -0.5499  1.2373  0.4373
  147DOPC   H2Y17492   0.708   3.696  15.850  0.4945  0.9030  1.2813
  147DOPC   C2317493   0.836   3.142  16.048 -0.4968  0.7489 -0.1607
  147DOPC   H3R17494   0.758   3.088  16.106  0.4290  1.5858  1.9616
  147DOPC   H3S17495   0.907   3.064  16.012  2.0554  2.5790  0.6052
  147DOPC   C2417496   0.779   3.211  15.927 -0.6551  0.2330 -0.2347
  147DOPC   H4R17497   0.861   3.252  15.863 -0.5088 -0.9711 -0.8437
  147DOPC   H4S17498   0.725   3.301  15.965 -1.2644 -0.0745 -0.3624
  147DOPC   C2517499   0.679   3.132  15.842 -0.1121 -0.0105 -0.6698
  147DOPC   H5R17500   0.625   3.198  15.769 -0.5021  2.0497  1.3605
  147DOPC   H5S17501   0.597   3.094  15.906 -0.0634 -1.4221 -1.4145
  147DOPC   C2617502   0.738   3.014  15.768  0.1527 -0.1629  0.2120
  147DOPC   H6R17503   0.663   2.936  15.741  0.6619  0.3242 -2.9861
  147DOPC   H6S17504   0.809   2.961  15.835 -0.9437  0.0968  1.6300
  147DOPC   C2717505   0.813   3.045  15.638 -0.3881 -0.0438 -0.2536
  147DOPC   H7R17506   0.827   2.948  15.586 -1.5140  0.0591 -0.7676
  147DOPC   H7S17507   0.916   3.086  15.652  0.4002 -1.8673 -0.4588
  147DOPC   C2817508   0.730   3.126  15.534  0.4601 -0.1961  0.3084
  147DOPC   H8R17509   0.804   3.147  15.454  1.4728  1.2823  1.5894
  147DOPC   H8S17510   0.710   3.225  15.579 -3.5148 -0.6141 -0.2006
  147DOPC   C2917511   0.596   3.075  15.485 -0.3913  0.1138  0.2800
  147DOPC   H9R17512   0.538   3.034  15.569  0.1222 -1.1276  0.0544
  147DOPC  C21017513   0.536   3.077  15.366 -0.4342  0.7872 -0.1281
  147DOPC  H10R17514   0.440   3.023  15.364 -0.4666  0.7244  1.5072
  147DOPC  C21117515   0.596   3.135  15.242  0.0105 -1.2583  0.3774
  147DOPC  H11R17516   0.643   3.056  15.179  3.4449  0.0158  1.1070
  147DOPC  H11S17517   0.679   3.205  15.266 -0.8372 -0.1011 -0.0112
  147DOPC  C21217518   0.490   3.205  15.164 -0.3293  0.7165  0.2611
  147DOPC  H12R17519   0.485   3.308  15.205  1.1130  0.8531  0.1388
  147DOPC  H12S17520   0.389   3.159  15.172  0.1151 -0.1509  1.1757
  147DOPC  C21317521   0.543   3.205  15.019 -0.8969  0.7200 -0.1738
  147DOPC  H13R17522   0.563   3.100  14.989  1.9339  0.7539  1.2563
  147DOPC  H13S17523   0.643   3.252  15.022 -0.1895 -0.7668  2.0580
  147DOPC  C21417524   0.448   3.284  14.926 -0.0177 -0.3355 -0.1177
  147DOPC  H14R17525   0.411   3.375  14.978  2.5200  0.5801  0.2504
  147DOPC  H14S17526   0.371   3.205  14.917  0.8242 -1.2587  0.5499
  147DOPC  C21517527   0.510   3.310  14.791 -0.7990 -0.8636  0.2575
  147DOPC  H15R17528   0.564   3.215  14.767  0.5130  0.2794 -1.6274
  147DOPC  H15S17529   0.589   3.388  14.794 -2.2665  0.6328  1.7664
  147DOPC  C21617530   0.415   3.343  14.673  0.1747  1.0228 -0.3645
  147DOPC  H16R17531   0.358   3.435  14.700 -1.6980 -0.5009  1.1748
  147DOPC  H16S17532   0.342   3.260  14.661  1.0407  0.2088 -0.1171
  147DOPC  C21717533   0.479   3.358  14.529 -0.3164 -0.8483 -0.1453
  147DOPC  H17R17534   0.500   3.257  14.487  4.9568  0.5534 -1.6746
  147DOPC  H17S17535   0.576   3.406  14.554 -1.2837 -0.2204  2.7896
  147DOPC  C21817536   0.391   3.445  14.443  0.3120  0.2069 -0.5593
  147DOPC  H18R17537   0.423   3.464  14.338 -1.8458  1.2739 -1.0750
  147DOPC  H18S17538   0.368   3.534  14.504  0.1604  0.2205 -0.6364
  147DOPC  H18T17539   0.294   3.393  14.431 -0.5754  1.9237 -1.1358
  147DOPC   C3317540   0.852   3.587  15.737  0.4246  0.4762 -0.3747
  147DOPC   H3X17541   0.914   3.497  15.759 -1.9946 -0.6297  2.7279
  147DOPC   H3Y17542   0.917   3.674  15.719  1.9107 -1.1316 -3.4694
  147DOPC   C3417543   0.764   3.563  15.617  0.1947  0.4253  0.4785
  147DOPC   H4X17544   0.707   3.656  15.594 -0.5282  0.3782  2.0122
  147DOPC   H4Y17545   0.684   3.490  15.637 -1.2214  1.9268  0.5133
  147DOPC   C3517546   0.851   3.536  15.494 -0.1542 -0.5853 -0.0885
  147DOPC   H5X17547   0.896   3.436  15.510 -0.7436 -1.0605 -1.3053
  147DOPC   H5Y17548   0.933   3.611  15.494  1.1662 -1.9758 -0.6708
  147DOPC   C3617549   0.773   3.542  15.365  0.4052 -0.7832  0.3957
  147DOPC   H6X17550   0.705   3.455  15.372 -0.4392 -0.1372  0.3299
  147DOPC   H6Y17551   0.725   3.641  15.349  0.7132 -0.5072  1.1528
  147DOPC   C3717552   0.867   3.527  15.247 -0.6760 -0.1349  0.0612
  147DOPC   H7X17553   0.950   3.601  15.246 -0.9489  0.1689 -0.1456
  147DOPC   H7Y17554   0.906   3.423  15.249  0.5821  0.3339  1.6531
  147DOPC   C3817555   0.798   3.526  15.110  0.2486 -0.4573 -0.6796
  147DOPC   H8X17556   0.712   3.456  15.101  0.5051 -0.8317 -0.2644
  147DOPC   H8Y17557   0.880   3.495  15.042 -0.0105 -0.7522 -0.8584
  147DOPC   C3917558   0.758   3.672  15.076  0.8082 -0.9057  0.1403
  147DOPC   H9X17559   0.684   3.711  15.148  0.6660 -0.4151 -0.2690
  147DOPC  C31017560   0.800   3.749  14.980 -0.6215 -0.3716  0.5035
  147DOPC  H10X17561   0.759   3.851  14.974 -0.6527 -0.3946  0.3303
  147DOPC  C31117562   0.889   3.708  14.864 -0.3636 -0.8165  0.2495
  147DOPC  H11X17563   0.930   3.606  14.882  1.2945  0.0819  1.8885
  147DOPC  H11Y17564   0.980   3.771  14.854  0.5351 -2.1308 -0.1785
  147DOPC  C31217565   0.818   3.706  14.732  0.2959 -0.6048  0.1015
  147DOPC  H12X17566   0.788   3.808  14.701  0.6724 -0.5597 -0.1221
  147DOPC  H12Y17567   0.726   3.646  14.747  0.1922 -0.5501 -0.3156
  147DOPC  C31317568   0.903   3.637  14.619  0.1763  0.0311  0.6675
  147DOPC  H13X17569   0.943   3.728  14.570 -1.2883  0.3137 -0.0725
  147DOPC  H13Y17570   0.983   3.574  14.662 -0.2027 -0.0989  1.2007
  147DOPC  C31417571   0.812   3.558  14.514  0.5565  0.1537 -0.0180
  147DOPC  H14X17572   0.796   3.458  14.560  0.9101  0.5391  0.9807
  147DOPC  H14Y17573   0.715   3.609  14.497 -0.4703 -1.9114 -0.7074
  147DOPC  C31517574   0.877   3.531  14.379 -0.2066  0.4403 -0.7488
  147DOPC  H15X17575   0.957   3.455  14.390 -1.3344 -1.0673 -2.3888
  147DOPC  H15Y17576   0.917   3.633  14.357  0.1604  0.7975  1.3522
  147DOPC  C31617577   0.789   3.497  14.261 -0.1241  0.0342 -0.4169
  147DOPC  H16X17578   0.740   3.405  14.299 -0.9091 -0.1180 -1.7443
  147DOPC  H16Y17579   0.709   3.570  14.238  0.1315  0.2328 -0.6778
  147DOPC  C31717580   0.871   3.464  14.132 -0.4831 -0.2491  0.1944
  147DOPC  H17X17581   0.883   3.559  14.076  0.8398 -0.5386 -0.0453
  147DOPC  H17Y17582   0.968   3.430  14.174 -0.9428 -2.6865 -0.5597
  147DOPC  C31817583   0.817   3.347  14.054 -0.1940  0.0686  0.6582
  147DOPC  H18X17584   0.807   3.252  14.112  0.7498 -1.2049 -1.1665
  147DOPC  H18Y17585   0.709   3.359  14.030 -0.0871 -1.3620 -0.7027
  147DOPC  H18Z17586   0.881   3.313  13.970 -1.1931  1.2540 -0.6301
  148DOPC     N17587   1.142   5.745  15.663  0.4918 -0.3647  0.2378
  148DOPC   C1217588   1.229   5.821  15.760 -0.3204  0.1342 -0.5164
  148DOPC  H12A17589   1.204   5.786  15.859  0.1140 -1.2297 -0.8642
  148DOPC  H12B17590   1.210   5.926  15.743  2.1211  0.3305 -2.6861
  148DOPC   C1317591   1.168   5.604  15.666  0.0879  0.0003 -0.6104
  148DOPC  H13A17592   1.178   5.564  15.765  2.7919  0.7397 -0.5218
  148DOPC  H13B17593   1.109   5.550  15.592 -1.3334 -0.2653  0.6682
  148DOPC  H13C17594   1.266   5.588  15.624  0.1428 -1.3403 -0.0171
  148DOPC   C1417595   1.167   5.793  15.522  0.1787 -0.5221  0.0178
  148DOPC  H14A17596   1.118   5.888  15.508  1.8125  0.3905  0.2881
  148DOPC  H14B17597   1.272   5.819  15.521 -0.4189  2.2376  0.1883
  148DOPC  H14C17598   1.143   5.722  15.443  1.8035 -1.2672  0.1606
  148DOPC   C1517599   0.997   5.757  15.704 -0.2840  0.7913 -0.5359
  148DOPC  H15A17600   0.979   5.698  15.792  1.3763  1.2617  0.1476
  148DOPC  H15B17601   0.938   5.714  15.625 -1.0046 -2.6513  1.6823
  148DOPC  H15C17602   0.965   5.860  15.717 -0.4434  0.6691  0.0433
  148DOPC   C1117603   1.387   5.814  15.749  0.4240  0.2264  0.2939
  148DOPC  H11A17604   1.420   5.863  15.655  0.5615 -0.7512 -0.1763
  148DOPC  H11B17605   1.429   5.868  15.837  1.0902  1.0673 -0.5211
  148DOPC     P17606   1.563   5.624  15.712 -0.1709 -0.2097 -0.0008
  148DOPC   O1317607   1.593   5.493  15.768 -0.3633 -0.6132  0.7060
  148DOPC   O1417608   1.662   5.730  15.720 -0.1020 -0.3177  0.0185
  148DOPC   O1217609   1.436   5.679  15.773  0.9775  0.1277 -0.3756
  148DOPC   O1117610   1.521   5.609  15.561 -0.3905 -0.2656 -0.2317
  148DOPC    C117611   1.487   5.478  15.497 -0.0035  0.2451  0.0315
  148DOPC    HA17612   1.379   5.456  15.512  0.5424 -1.8423  1.2424
  148DOPC    HB17613   1.549   5.394  15.534  0.2042 -1.0281 -2.9487
  148DOPC    C217614   1.517   5.477  15.349  0.1249 -0.4802 -0.3074
  148DOPC    HS17615   1.500   5.376  15.306 -2.9841 -0.0092 -0.4739
  148DOPC   O2117616   1.655   5.511  15.337 -0.4937 -0.1592 -0.1187
  148DOPC   C2117617   1.728   5.458  15.237 -0.3019 -0.0004  0.2941
  148DOPC   O2217618   1.679   5.382  15.155 -0.2259 -0.0393  0.5917
  148DOPC   C2217619   1.865   5.508  15.239 -0.5916 -0.0672 -0.0452
  148DOPC   H2R17620   1.923   5.467  15.324  0.8524  1.6400 -0.1554
  148DOPC   H2S17621   1.866   5.618  15.251  0.5072  0.0899 -1.3276
  148DOPC    C317622   1.429   5.585  15.276 -0.2854 -0.1097  0.5440
  148DOPC    HX17623   1.456   5.683  15.320 -2.1223  1.0134 -0.7292
  148DOPC    HY17624   1.321   5.567  15.293 -0.2641 -0.9886 -0.1879
  148DOPC   O3117625   1.468   5.573  15.136 -0.6930 -0.4856 -0.7803
  148DOPC   C3117626   1.412   5.471  15.067  0.0378 -0.5891  0.1225
  148DOPC   O3217627   1.332   5.392  15.116  0.5678 -0.6017  0.7324
  148DOPC   C3217628   1.460   5.472  14.915 -0.3259  0.1345  0.1148
  148DOPC   H2X17629   1.491   5.573  14.884 -1.5895  0.1842 -1.0878
  148DOPC   H2Y17630   1.543   5.398  14.907 -1.5964 -1.1802 -2.0390
  148DOPC   C2317631   1.937   5.479  15.104  0.1967  0.5431  0.5895
  148DOPC   H3R17632   1.906   5.382  15.060  0.7124  0.3671  0.6069
  148DOPC   H3S17633   2.048   5.484  15.116  0.4383 -0.4775 -0.8951
  148DOPC   C2417634   1.916   5.592  15.002  0.0607  0.4433 -0.6817
  148DOPC   H4R17635   1.953   5.681  15.058  0.0972 -0.1911  0.3381
  148DOPC   H4S17636   1.810   5.604  14.972 -0.5259 -1.9562  0.1925
  148DOPC   C2517637   2.011   5.578  14.880 -0.6115 -0.2056  0.1466
  148DOPC   H5R17638   2.113   5.574  14.925  0.1780  0.3564 -1.5116
  148DOPC   H5S17639   1.997   5.673  14.824 -0.2027 -0.8681 -1.1232
  148DOPC   C2617640   1.997   5.456  14.787  0.0429  0.9260  0.3652
  148DOPC   H6R17641   1.892   5.437  14.756 -0.8919 -1.1811  4.1496
  148DOPC   H6S17642   2.013   5.359  14.840 -2.0727 -0.2737 -1.0190
  148DOPC   C2717643   2.089   5.463  14.658  0.1582 -0.3910  0.3754
  148DOPC   H7R17644   2.194   5.454  14.693  0.9948  0.3197 -1.7500
  148DOPC   H7S17645   2.083   5.565  14.615  0.9466 -0.7063 -0.5264
  148DOPC   C2817646   2.060   5.361  14.551 -0.7182 -0.4571 -0.1214
  148DOPC   H8R17647   1.974   5.393  14.487 -1.6733  1.0176  1.7838
  148DOPC   H8S17648   2.043   5.260  14.594  1.7220 -0.9453 -0.1833
  148DOPC   C2917649   2.173   5.375  14.455  0.4086 -0.0096 -0.1168
  148DOPC   H9R17650   2.244   5.456  14.479  0.7596 -0.0454 -1.0048
  148DOPC  C21017651   2.203   5.292  14.351 -0.8537 -0.3168 -0.5620
  148DOPC  H10R17652   2.289   5.316  14.287 -0.0902  1.6140  1.0706
  148DOPC  C21117653   2.124   5.173  14.302 -0.1248 -0.1521  0.0330
  148DOPC  H11R17654   2.038   5.171  14.372  0.4672  0.1195  0.7778
  148DOPC  H11S17655   2.183   5.081  14.322  0.9167  0.1336 -1.5361
  148DOPC  C21217656   2.074   5.191  14.164  0.0238  0.2409 -0.1954
  148DOPC  H12R17657   2.015   5.100  14.145  0.7564  0.0274 -1.5837
  148DOPC  H12S17658   2.158   5.201  14.091  0.4015  0.5292  0.2703
  148DOPC  C21317659   1.980   5.308  14.149  0.7622 -0.2808  0.6970
  148DOPC  H13R17660   2.017   5.397  14.204  0.3775 -0.6555  1.5857
  148DOPC  H13S17661   1.884   5.282  14.199 -0.4786  0.8687 -0.9453
  148DOPC  C21417662   1.949   5.359  14.007 -0.2053  0.7712  0.6228
  148DOPC  H14R17663   2.042   5.410  13.975 -0.4940  1.7801  1.3297
  148DOPC  H14S17664   1.864   5.430  14.010 -1.2491 -0.3573 -0.8940
  148DOPC  C21517665   1.926   5.247  13.917 -0.2076 -0.5317  0.1396
  148DOPC  H15R17666   1.837   5.183  13.940 -0.0886 -1.5967 -2.0970
  148DOPC  H15S17667   2.016   5.182  13.913  0.9042  0.9766  0.2016
  148DOPC  C21617668   1.913   5.280  13.765  0.7042 -0.4697  0.6322
  148DOPC  H16R17669   1.818   5.328  13.735  0.7194 -0.3602  0.7611
  148DOPC  H16S17670   1.909   5.182  13.713  0.2687 -0.3470  0.4358
  148DOPC  C21717671   2.016   5.377  13.707 -0.2358  0.6155 -0.3452
  148DOPC  H17R17672   2.027   5.464  13.775 -1.5553  0.4640  0.0814
  148DOPC  H17S17673   1.975   5.427  13.616  0.0667  1.9758  0.2368
  148DOPC  C21817674   2.157   5.318  13.692 -0.6170  0.3559  0.9326
  148DOPC  H18R17675   2.229   5.396  13.659  0.9975 -1.7424 -0.8747
  148DOPC  H18S17676   2.163   5.243  13.610  0.5564 -1.3870  2.5000
  148DOPC  H18T17677   2.195   5.264  13.782  0.9168  2.0248  1.3524
  148DOPC   C3317678   1.357   5.432  14.807 -0.0962 -0.1086  0.2109
  148DOPC   H3X17679   1.320   5.333  14.843  0.1112 -0.4756 -0.5642
  148DOPC   H3Y17680   1.404   5.411  14.708 -1.0508 -1.7476  0.0623
  148DOPC   C3417681   1.241   5.531  14.800 -0.0631  0.4333 -0.1390
  148DOPC   H4X17682   1.279   5.629  14.763  2.5944 -0.4944 -0.0802
  148DOPC   H4Y17683   1.184   5.536  14.895  2.0432 -0.2294  1.2053
  148DOPC   C3517684   1.134   5.480  14.698  0.4518 -0.0759  0.2637
  148DOPC   H5X17685   1.051   5.552  14.713  1.3351  0.9708  0.2818
  148DOPC   H5Y17686   1.114   5.375  14.729  1.4341 -0.2796  0.2585
  148DOPC   C3617687   1.180   5.470  14.556  0.5755  0.2364  0.1949
  148DOPC   H6X17688   1.268   5.403  14.561  0.1721 -0.3704 -0.6223
  148DOPC   H6Y17689   1.105   5.423  14.489  1.3731  1.4058 -1.6018
  148DOPC   C3717690   1.215   5.600  14.488  0.0740 -0.3590  0.1820
  148DOPC   H7X17691   1.125   5.663  14.496 -0.4709 -0.9269 -1.0990
  148DOPC   H7Y17692   1.298   5.642  14.549  0.6248 -0.9460 -0.1418
  148DOPC   C3817693   1.253   5.589  14.343 -0.3157 -0.2863  0.1772
  148DOPC   H8X17694   1.259   5.686  14.290 -0.5596 -0.9141 -1.0366
  148DOPC   H8Y17695   1.178   5.527  14.290  1.4049 -0.6340 -1.9871
  148DOPC   C3917696   1.383   5.520  14.299 -0.7652 -1.0586  0.0049
  148DOPC   H9X17697   1.376   5.424  14.248 -2.4140 -0.7382 -0.4509
  148DOPC  C31017698   1.511   5.559  14.323 -0.4385 -0.9807  0.1676
  148DOPC  H10X17699   1.598   5.522  14.268  0.0919  2.5592 -1.6799
  148DOPC  C31117700   1.558   5.685  14.385 -0.1005 -0.9214  0.6379
  148DOPC  H11X17701   1.476   5.761  14.389 -0.3577 -0.9243 -2.3082
  148DOPC  H11Y17702   1.649   5.720  14.332 -0.7915  1.0714  0.6778
  148DOPC  C31217703   1.609   5.644  14.525 -0.3335 -0.1133  0.7495
  148DOPC  H12X17704   1.696   5.576  14.510 -1.3532 -1.4710  0.8092
  148DOPC  H12Y17705   1.539   5.575  14.577  0.4679 -0.6444  1.1447
  148DOPC  C31317706   1.633   5.765  14.620  0.4927  0.3989  0.1269
  148DOPC  H13X17707   1.550   5.838  14.622  1.7733  1.9242 -0.3955
  148DOPC  H13Y17708   1.648   5.727  14.724  1.2467  2.5384  0.8568
  148DOPC  C31417709   1.772   5.829  14.583  0.4565 -0.3695 -0.6686
  148DOPC  H14X17710   1.860   5.761  14.593 -0.0413 -0.8211  1.0266
  148DOPC  H14Y17711   1.777   5.860  14.477  2.8535 -0.1592 -0.5660
  148DOPC  C31517712   1.801   5.948  14.674  0.3609 -0.2676  0.0733
  148DOPC  H15X17713   1.732   6.033  14.658  0.3356 -0.2703  0.1675
  148DOPC  H15Y17714   1.904   5.985  14.652  0.5109 -1.9844 -2.6048
  148DOPC  C31617715   1.788   5.919  14.828  0.1329 -0.0304  0.1713
  148DOPC  H16X17716   1.687   5.880  14.853  0.7680 -2.2664 -0.4823
  148DOPC  H16Y17717   1.852   5.831  14.850  0.2421 -0.3396 -1.2823
  148DOPC  C31717718   1.828   6.032  14.920 -0.9959 -0.0964  0.1704
  148DOPC  H17X17719   1.914   6.080  14.868  0.7310 -2.8533  0.2536
  148DOPC  H17Y17720   1.748   6.108  14.927 -1.5560 -0.4948 -1.4091
  148DOPC  C31817721   1.870   5.984  15.060 -0.9416  0.4540 -0.1106
  148DOPC  H18X17722   1.792   5.909  15.085 -1.1627  1.1359  1.3673
  148DOPC  H18Y17723   1.972   5.945  15.077  0.1619  3.0164 -0.4028
  148DOPC  H18Z17724   1.856   6.068  15.132 -0.1013 -1.2402  2.1163
  149DOPC     N17725   1.173   4.253  16.282  0.2758  0.0540 -1.0886
  149DOPC   C1217726   1.120   4.119  16.259  0.1175 -0.1262 -0.1642
  149DOPC  H12A17727   1.127   4.058  16.348 -1.4320 -2.3943 -1.5180
  149DOPC  H12B17728   1.176   4.079  16.176  1.2463  1.9798 -0.4924
  149DOPC   C1317729   1.102   4.320  16.400 -0.1336  0.9124  0.0950
  149DOPC  H13A17730   1.135   4.423  16.404  0.1285  0.8007  1.0805
  149DOPC  H13B17731   0.995   4.303  16.394  0.3282 -1.9131 -1.7048
  149DOPC  H13C17732   1.136   4.286  16.497  5.1935  0.4443 -1.6411
  149DOPC   C1417733   1.150   4.347  16.167 -0.8586 -0.2402  0.2653
  149DOPC  H14A17734   1.205   4.438  16.181 -2.2208  0.8067 -0.9499
  149DOPC  H14B17735   1.176   4.298  16.074  0.6232 -1.3407  1.2147
  149DOPC  H14C17736   1.043   4.355  16.155 -0.9981 -3.1052 -1.5370
  149DOPC   C1517737   1.317   4.233  16.319 -0.8569  0.3549  1.0892
  149DOPC  H15A17738   1.372   4.326  16.317  2.0092 -1.2181 -0.4121
  149DOPC  H15B17739   1.371   4.154  16.269 -1.0824 -0.1076  1.5610
  149DOPC  H15C17740   1.314   4.195  16.420  0.2098 -1.6910  0.3924
  149DOPC   C1117741   0.973   4.113  16.218 -0.1699 -0.1548 -0.1534
  149DOPC  H11A17742   0.958   4.181  16.131 -1.8868  0.6325  0.7093
  149DOPC  H11B17743   0.962   4.008  16.184 -2.1026  0.1566 -0.6001
  149DOPC     P17744   0.824   4.036  16.421  0.2524 -0.2816 -0.0965
  149DOPC   O1317745   0.759   4.102  16.531  0.5470 -0.4803 -0.2717
  149DOPC   O1417746   0.933   3.941  16.450 -0.4121 -0.1817 -0.7296
  149DOPC   O1217747   0.887   4.148  16.327 -0.6704  0.1918  0.3465
  149DOPC   O1117748   0.719   3.954  16.338  0.3796 -0.3909 -0.0128
  149DOPC    C117749   0.663   4.009  16.215 -0.0460  0.5374 -0.2352
  149DOPC    HA17750   0.722   3.983  16.125 -1.3460  2.9034 -1.9020
  149DOPC    HB17751   0.654   4.120  16.224 -1.5759  0.5868 -1.8901
  149DOPC    C217752   0.525   3.953  16.197 -0.3033 -0.3865  0.0566
  149DOPC    HS17753   0.468   3.984  16.287  0.1028 -1.1891  0.6087
  149DOPC   O2117754   0.532   3.816  16.178  0.1024  0.0082  0.3279
  149DOPC   C2117755   0.422   3.740  16.203 -1.2986 -0.9335  1.0046
  149DOPC   O2217756   0.317   3.786  16.241  0.4973 -0.1789 -0.3897
  149DOPC   C2217757   0.441   3.593  16.182 -0.8914 -0.2387 -0.2948
  149DOPC   H2R17758   0.387   3.532  16.258 -2.6206 -0.4647 -1.6290
  149DOPC   H2S17759   0.550   3.576  16.188 -1.1345 -1.5614  0.8901
  149DOPC    C317760   0.455   4.018  16.075 -0.2709 -0.2068 -0.0773
  149DOPC    HX17761   0.449   4.128  16.093  0.7854 -0.2037  0.3238
  149DOPC    HY17762   0.350   3.984  16.067 -1.0996  2.0806  0.1273
  149DOPC   O3117763   0.538   3.984  15.957  0.4385 -0.4628  0.2945
  149DOPC   C3117764   0.494   3.890  15.869  0.1630 -0.8575  0.6740
  149DOPC   O3217765   0.403   3.815  15.890  0.5204  0.4201 -0.4755
  149DOPC   C3217766   0.579   3.900  15.742 -0.4094  0.3811 -0.4597
  149DOPC   H2X17767   0.682   3.931  15.772 -0.6321  1.0350 -0.3509
  149DOPC   H2Y17768   0.590   3.794  15.711  1.2402  0.7597 -1.3218
  149DOPC   C2317769   0.398   3.553  16.041 -0.4459 -0.3653 -0.4573
  149DOPC   H3R17770   0.461   3.605  15.965  1.2490 -0.9953  0.4791
  149DOPC   H3S17771   0.289   3.577  16.037 -0.7405 -1.5621 -0.0614
  149DOPC   C2417772   0.415   3.403  16.015  0.1378  0.1671 -1.5083
  149DOPC   H4R17773   0.353   3.354  16.094 -0.3718  2.5279 -0.3569
  149DOPC   H4S17774   0.522   3.377  16.031  0.2984  2.3377  2.2834
  149DOPC   C2517775   0.347   3.368  15.880  0.9501  0.3624  0.2133
  149DOPC   H5R17776   0.244   3.408  15.886  0.8773  0.0629  1.1603
  149DOPC   H5S17777   0.340   3.259  15.863 -3.3148  0.5688 -0.4071
  149DOPC   C2617778   0.419   3.432  15.757 -0.5092 -0.1192  0.0089
  149DOPC   H6R17779   0.522   3.393  15.748  0.5972  2.3657  1.1130
  149DOPC   H6S17780   0.417   3.542  15.774  0.5183  0.0751 -1.0019
  149DOPC   C2717781   0.333   3.418  15.626 -0.4703  0.7368  0.2502
  149DOPC   H7R17782   0.226   3.444  15.641 -0.9205 -0.1106 -1.2445
  149DOPC   H7S17783   0.337   3.309  15.607  1.4461  0.7007  0.6744
  149DOPC   C2817784   0.388   3.482  15.495 -0.7524 -0.0503  0.8729
  149DOPC   H8R17785   0.354   3.427  15.405 -2.7743  2.3108  0.0807
  149DOPC   H8S17786   0.497   3.462  15.493  0.0205  3.5383 -1.1214
  149DOPC   C2917787   0.359   3.628  15.479  0.3005 -0.7853  0.5798
  149DOPC   H9R17788   0.361   3.677  15.577  1.1809  1.0617 -0.3089
  149DOPC  C21017789   0.313   3.694  15.369 -0.4024  0.7974 -0.2649
  149DOPC  H10R17790   0.313   3.803  15.378  1.1192  0.6851  2.0337
  149DOPC  C21117791   0.278   3.642  15.228 -0.1658 -0.7378 -0.4941
  149DOPC  H11R17792   0.172   3.660  15.201 -0.0259 -0.1803 -0.6795
  149DOPC  H11S17793   0.283   3.531  15.234 -0.5396 -0.6567  2.3200
  149DOPC  C21217794   0.382   3.684  15.128  0.6228 -0.1028 -0.2787
  149DOPC  H12R17795   0.476   3.624  15.132  1.5786  1.3756  0.3947
  149DOPC  H12S17796   0.426   3.781  15.159  2.2214 -1.0441  0.5802
  149DOPC  C21317797   0.315   3.699  14.992 -0.0818 -0.6256  0.1907
  149DOPC  H13R17798   0.247   3.787  14.990  0.5652 -0.1015 -1.7819
  149DOPC  H13S17799   0.255   3.608  14.967  0.9559 -0.8997 -1.4778
  149DOPC  C21417800   0.425   3.734  14.885  0.5747  0.1552 -0.3549
  149DOPC  H14R17801   0.497   3.649  14.889  0.4889  0.1365  1.7080
  149DOPC  H14S17802   0.469   3.831  14.917 -0.3210  0.7684 -0.9362
  149DOPC  C21517803   0.369   3.754  14.743  0.6002  0.4394 -0.2631
  149DOPC  H15R17804   0.275   3.813  14.730  0.5056  0.2352 -0.5316
  149DOPC  H15S17805   0.337   3.655  14.702  0.0989  0.8412 -0.8739
  149DOPC  C21617806   0.479   3.812  14.654 -0.4715 -0.5094 -0.5127
  149DOPC  H16R17807   0.533   3.717  14.632 -1.7347 -1.0771 -1.3179
  149DOPC  H16S17808   0.549   3.877  14.710 -0.0500 -2.2885  1.1711
  149DOPC  C21717809   0.443   3.863  14.516  0.1158 -0.0376  0.1428
  149DOPC  H17R17810   0.423   3.972  14.512  0.1447  0.1302  2.8905
  149DOPC  H17S17811   0.348   3.812  14.488  0.1297  0.0896 -0.1391
  149DOPC  C21817812   0.548   3.831  14.411  0.1965  0.4144 -0.2325
  149DOPC  H18R17813   0.563   3.722  14.426 -1.3215  0.1183 -0.7026
  149DOPC  H18S17814   0.638   3.892  14.436  1.3638 -1.1908 -0.3199
  149DOPC  H18T17815   0.513   3.856  14.309 -2.7621 -1.5344  0.1886
  149DOPC   C3317816   0.521   3.994  15.627  0.2979  0.6430 -0.4132
  149DOPC   H3X17817   0.516   4.092  15.678  0.6543  0.7472 -0.5766
  149DOPC   H3Y17818   0.422   3.957  15.593  1.3725 -1.5193 -1.3899
  149DOPC   C3417819   0.621   4.008  15.510 -0.0043 -0.1400 -0.0899
  149DOPC   H4X17820   0.662   3.920  15.457  0.1052  1.2223 -2.4008
  149DOPC   H4Y17821   0.714   4.057  15.548 -0.6260  0.7647  0.2955
  149DOPC   C3517822   0.551   4.103  15.402 -0.1322 -0.1861 -0.0243
  149DOPC   H5X17823   0.490   4.183  15.449  0.2289 -0.2102  0.4885
  149DOPC   H5Y17824   0.472   4.043  15.352  1.2384 -2.1817  0.1233
  149DOPC   C3617825   0.654   4.162  15.294  0.1229 -0.0234  0.1012
  149DOPC   H6X17826   0.599   4.251  15.256 -1.3024 -1.4982 -1.4290
  149DOPC   H6Y17827   0.748   4.201  15.340 -0.6308  1.2687  0.6174
  149DOPC   C3717828   0.693   4.073  15.177  0.3475  0.2301 -0.1761
  149DOPC   H7X17829   0.771   4.008  15.221 -0.8632  0.0950  1.8991
  149DOPC   H7Y17830   0.605   4.012  15.149  0.3035 -0.9350  2.2279
  149DOPC   C3817831   0.744   4.143  15.049 -0.3481  0.5126 -0.4735
  149DOPC   H8X17832   0.782   4.065  14.979 -0.3356  0.4701 -0.4192
  149DOPC   H8Y17833   0.837   4.200  15.070 -1.2362  0.9424  3.0008
  149DOPC   C3917834   0.651   4.240  14.979  0.3107 -0.2872 -0.0855
  149DOPC   H9X17835   0.612   4.313  15.052 -0.6519  0.9520 -1.7592
  149DOPC  C31017836   0.621   4.240  14.849 -0.5248 -0.1679 -0.0665
  149DOPC  H10X17837   0.546   4.306  14.803 -2.1058 -1.4360  0.5828
  149DOPC  C31117838   0.668   4.134  14.750 -0.3897  0.3632 -0.2214
  149DOPC  H11X17839   0.576   4.098  14.700 -0.9117  1.5966 -0.1824
  149DOPC  H11Y17840   0.704   4.046  14.808  0.7514  1.6137  1.0347
  149DOPC  C31217841   0.791   4.172  14.665  0.8794  0.3322 -0.0341
  149DOPC  H12X17842   0.831   4.077  14.621 -2.2187 -1.2923  0.4228
  149DOPC  H12Y17843   0.869   4.231  14.718 -0.4811  2.0526  0.1010
  149DOPC  C31317844   0.759   4.274  14.550  0.0127  1.2730 -0.5912
  149DOPC  H13X17845   0.691   4.225  14.477  0.9235  1.3781 -1.5312
  149DOPC  H13Y17846   0.701   4.354  14.601 -0.4664  0.9097 -0.5606
  149DOPC  C31417847   0.876   4.320  14.486  0.0852 -0.4542  0.0958
  149DOPC  H14X17848   0.924   4.399  14.547  0.6594 -0.8106  0.1152
  149DOPC  H14Y17849   0.945   4.238  14.454 -0.4424 -0.5448 -0.8565
  149DOPC  C31517850   0.854   4.391  14.345 -0.3272  0.2324  0.1391
  149DOPC  H15X17851   0.765   4.457  14.352 -1.2907 -1.0272  0.1773
  149DOPC  H15Y17852   0.835   4.312  14.269 -3.0863  2.3886 -1.5846
  149DOPC  C31617853   0.976   4.473  14.297 -0.3691  0.5076  0.2223
  149DOPC  H16X17854   1.012   4.545  14.373 -0.1863  2.1674 -1.3534
  149DOPC  H16Y17855   1.062   4.405  14.286 -0.4779  0.2807  0.7511
  149DOPC  C31717856   0.963   4.555  14.164  0.7194 -0.6256 -0.2301
  149DOPC  H17X17857   0.919   4.496  14.081 -1.1832 -0.4758  0.6255
  149DOPC  H17Y17858   0.894   4.637  14.196 -0.1237 -1.5281  0.3081
  149DOPC  C31817859   1.096   4.613  14.114 -0.1203  1.2432 -0.3249
  149DOPC  H18X17860   1.142   4.674  14.195 -0.2020 -0.3209  0.9441
  149DOPC  H18Y17861   1.161   4.530  14.079 -3.3666 -2.0728  0.8615
  149DOPC  H18Z17862   1.078   4.687  14.033  0.2373  0.3510 -1.2344
  150DOPC     N17863   3.326   5.004  15.997 -0.0953  0.6683 -0.0846
  150DOPC   C1217864   3.441   4.933  16.069 -0.4982  0.0417  0.7664
  150DOPC  H12A17865   3.491   4.856  16.011 -0.9501 -0.3918  0.9388
  150DOPC  H12B17866   3.400   4.877  16.152  2.5652 -1.0844  1.6414
  150DOPC   C1317867   3.380   5.064  15.870  0.4203  0.6795  0.2193
  150DOPC  H13A17868   3.439   4.987  15.825  0.1956 -0.0860  1.2025
  150DOPC  H13B17869   3.297   5.084  15.804  0.4204 -0.6224 -0.1950
  150DOPC  H13C17870   3.448   5.145  15.893 -0.0451  1.1155  0.0876
  150DOPC   C1417871   3.276   5.119  16.082 -0.1145  0.0816  0.1381
  150DOPC  H14A17872   3.203   5.172  16.023  0.7097  0.9382 -0.1437
  150DOPC  H14B17873   3.223   5.077  16.165  0.7512 -0.2280  0.5474
  150DOPC  H14C17874   3.351   5.187  16.120  1.1911 -1.4169  0.3643
  150DOPC   C1517875   3.215   4.907  15.961 -0.4265  0.1862 -0.0726
  150DOPC  H15A17876   3.257   4.830  15.898  1.2765 -0.7114  2.0426
  150DOPC  H15B17877   3.131   4.960  15.920 -1.5325  0.6272  2.6369
  150DOPC  H15C17878   3.173   4.854  16.045 -0.8362 -2.3957 -1.7600
  150DOPC   C1117879   3.563   5.030  16.113 -0.3705  0.2064 -0.4090
  150DOPC  H11A17880   3.535   5.117  16.176 -0.4992  0.3529 -0.6684
  150DOPC  H11B17881   3.626   4.962  16.176 -2.2611 -2.1339 -0.8902
  150DOPC     P17882   3.743   4.982  15.937  0.1111  0.5542 -0.2793
  150DOPC   O1317883   3.734   4.835  15.972  0.6025 -0.3822 -0.0860
  150DOPC   O1417884   3.877   5.042  15.966 -0.4009  0.3270  0.0262
  150DOPC   O1217885   3.632   5.075  15.999  0.1982  0.1044 -0.7166
  150DOPC   O1117886   3.716   4.980  15.787 -0.4643  0.0167  0.9570
  150DOPC    C117887   3.677   5.102  15.716  0.7654  0.0423 -0.0888
  150DOPC    HA17888   3.659   5.194  15.776  2.7475  0.1206  0.4242
  150DOPC    HB17889   3.580   5.077  15.667 -0.5544 -1.5333  3.1038
  150DOPC    C217890   3.780   5.139  15.611 -0.4010  0.1097 -0.1051
  150DOPC    HS17891   3.879   5.163  15.657 -1.6239  2.0404  1.6724
  150DOPC   O2117892   3.738   5.251  15.541 -0.4118 -0.1001 -0.1949
  150DOPC   C2117893   3.758   5.368  15.598 -0.5515 -0.6833  0.0221
  150DOPC   O2217894   3.842   5.396  15.679  0.3176  0.5058  0.2298
  150DOPC   C2217895   3.656   5.466  15.533 -0.2592 -0.7771 -0.2693
  150DOPC   H2R17896   3.631   5.536  15.615  3.1980 -1.3044  1.4363
  150DOPC   H2S17897   3.569   5.411  15.490  0.0061 -0.5247 -1.1662
  150DOPC    C317898   3.796   5.013  15.521  1.1586 -0.6758 -0.7199
  150DOPC    HX17899   3.701   4.961  15.496  0.9574 -0.9343  0.4917
  150DOPC    HY17900   3.852   4.945  15.589 -0.9736 -0.8164  1.0187
  150DOPC   O3117901   3.872   5.041  15.403 -0.3317 -0.7465 -0.3324
  150DOPC   C3117902   3.813   5.076  15.297 -0.1979  0.4742  0.3714
  150DOPC   O3217903   3.694   5.096  15.288  0.4633  0.1582 -0.0055
  150DOPC   C3217904   3.912   5.067  15.182 -0.5142  0.0987  0.5554
  150DOPC   H2X17905   3.895   5.161  15.126  0.6342  0.7383  1.2481
  150DOPC   H2Y17906   4.013   5.064  15.228  0.0574 -1.3339 -0.6999
  150DOPC   C2317907   3.719   5.551  15.422  0.4502 -0.0936  0.4564
  150DOPC   H3R17908   3.817   5.592  15.455  0.0826  2.4673 -1.3778
  150DOPC   H3S17909   3.660   5.641  15.397  0.6628  0.2522  1.1765
  150DOPC   C2417910   3.726   5.487  15.286  1.0119  0.0091  0.7922
  150DOPC   H4R17911   3.622   5.461  15.256  1.7094  0.6682 -2.6249
  150DOPC   H4S17912   3.784   5.393  15.300  1.5413  0.4098  1.3295
  150DOPC   C2517913   3.795   5.573  15.177  0.4010  0.2817  0.6915
  150DOPC   H5R17914   3.903   5.587  15.198 -0.2127  3.1428  2.4437
  150DOPC   H5S17915   3.759   5.678  15.180 -0.4712 -0.0317  2.3883
  150DOPC   C2617916   3.789   5.511  15.030  0.3036 -0.2352  0.2489
  150DOPC   H6R17917   3.689   5.527  14.984  0.5612 -0.5333 -0.4296
  150DOPC   H6S17918   3.808   5.402  15.037 -1.5436 -0.8686 -2.6746
  150DOPC   C2717919   3.903   5.561  14.942  0.8749 -0.3279 -0.7515
  150DOPC   H7R17920   4.005   5.543  14.984  0.8958  0.9501 -0.2202
  150DOPC   H7S17921   3.891   5.671  14.936  2.2382 -0.1033  0.1418
  150DOPC   C2817922   3.889   5.519  14.792  0.5903  0.2443 -0.5540
  150DOPC   H8R17923   3.783   5.531  14.760  0.7982  1.3203 -0.8889
  150DOPC   H8S17924   3.911   5.411  14.782  0.9343  0.4111 -1.8132
  150DOPC   C2917925   3.989   5.582  14.699  0.1394 -0.5957 -0.2366
  150DOPC   H9R17926   4.066   5.635  14.757  0.1264  0.9424 -1.5422
  150DOPC  C21017927   3.995   5.584  14.568  0.2858 -0.0962 -0.6098
  150DOPC  H10R17928   4.082   5.632  14.522 -0.3077  0.1613 -1.4980
  150DOPC  C21117929   3.905   5.499  14.473  0.5386 -0.0094 -0.7129
  150DOPC  H11R17930   3.819   5.556  14.432 -0.9548 -2.4245 -1.0903
  150DOPC  H11S17931   3.877   5.410  14.532 -1.4502  0.3496 -1.0616
  150DOPC  C21217932   3.970   5.446  14.349  0.3003 -0.5851  0.2344
  150DOPC  H12R17933   3.894   5.373  14.314 -2.7694  2.2395  0.5079
  150DOPC  H12S17934   4.068   5.397  14.369  0.5903 -1.2578 -2.3746
  150DOPC  C21317935   3.989   5.554  14.242 -0.4473 -0.0584  0.2741
  150DOPC  H13R17936   4.053   5.636  14.279  0.0593 -0.5627  0.5221
  150DOPC  H13S17937   3.886   5.593  14.226 -0.3642 -0.7738 -2.6634
  150DOPC  C21417938   4.057   5.500  14.114  0.0456 -0.3227 -0.4106
  150DOPC  H14R17939   3.992   5.426  14.063 -0.5588  1.1994 -1.9511
  150DOPC  H14S17940   4.154   5.450  14.136  1.1233  2.3464  1.4059
  150DOPC  C21517941   4.081   5.605  14.005  0.0692  0.0941  0.3610
  150DOPC  H15R17942   3.989   5.668  14.011 -0.0896 -0.2705  3.3352
  150DOPC  H15S17943   4.095   5.543  13.914 -0.7614 -2.3373  1.7682
  150DOPC  C21617944   4.204   5.687  14.029 -0.5496 -0.1722 -0.8117
  150DOPC  H16R17945   4.284   5.620  14.066  0.7728  2.0461  0.5895
  150DOPC  H16S17946   4.184   5.760  14.111  0.3925  0.0325 -0.7574
  150DOPC  C21717947   4.264   5.764  13.911 -0.0594  0.0716  0.6810
  150DOPC  H17R17948   4.337   5.832  13.959 -1.8575  1.0575  2.1647
  150DOPC  H17S17949   4.193   5.830  13.857  0.7216 -0.2846 -0.8371
  150DOPC  C21817950   4.337   5.671  13.805  0.8944 -0.6780 -0.5840
  150DOPC  H18R17951   4.403   5.731  13.738  0.9779 -1.5105 -1.2670
  150DOPC  H18S17952   4.257   5.633  13.737 -1.0468 -1.4544  2.0061
  150DOPC  H18T17953   4.396   5.586  13.845  1.1740 -0.5234 -0.6625
  150DOPC   C3317954   3.892   4.953  15.084  0.2105 -0.3554 -0.7999
  150DOPC   H3X17955   3.789   4.942  15.044  0.1825  0.8466 -1.0708
  150DOPC   H3Y17956   3.919   4.860  15.141  1.7117  1.5903  1.9188
  150DOPC   C3417957   3.997   4.950  14.970 -0.3109 -0.2392  0.0715
  150DOPC   H4X17958   4.023   5.052  14.935 -0.5768  0.3468  1.5099
  150DOPC   H4Y17959   3.956   4.904  14.878 -1.1680  1.6151 -0.5134
  150DOPC   C3517960   4.129   4.880  15.004  0.5869 -0.3310 -0.2807
  150DOPC   H5X17961   4.103   4.794  15.069 -1.0798  0.0997 -0.3198
  150DOPC   H5Y17962   4.183   4.958  15.062 -0.1779  1.3972 -1.7801
  150DOPC   C3617963   4.202   4.833  14.882 -0.2336  0.2440  0.2715
  150DOPC   H6X17964   4.150   4.756  14.821 -0.9078  1.8172 -1.2133
  150DOPC   H6Y17965   4.208   4.922  14.817 -0.5337  0.9768  1.2180
  150DOPC   C3717966   4.343   4.783  14.916  0.4014 -0.5219  0.0193
  150DOPC   H7X17967   4.407   4.870  14.942 -1.5995  0.5916  1.3978
  150DOPC   H7Y17968   4.329   4.703  14.992 -0.0172 -1.4560 -1.0114
  150DOPC   C3817969   4.413   4.708  14.794  0.0779 -0.5799 -0.9019
  150DOPC   H8X17970   4.346   4.634  14.746  1.2558 -0.0993 -3.4476
  150DOPC   H8Y17971   4.502   4.656  14.836 -1.3317 -0.3214  2.7729
  150DOPC   C3917972   4.456   4.815  14.692 -0.2703 -1.1796  0.5670
  150DOPC   H9X17973   4.509   4.903  14.730 -3.1405  0.9747 -0.0937
  150DOPC  C31017974   4.433   4.821  14.561 -0.6689  0.0199 -0.3641
  150DOPC  H10X17975   4.458   4.911  14.503  0.8556 -0.3343 -0.2993
  150DOPC  C31117976   4.343   4.727  14.480 -0.2953 -0.0782 -0.3025
  150DOPC  H11X17977   4.242   4.711  14.524 -0.1778 -1.1376 -0.3903
  150DOPC  H11Y17978   4.391   4.627  14.476  0.4796  0.2359  0.6491
  150DOPC  C31217979   4.318   4.759  14.329  0.3751 -0.5485 -0.1825
  150DOPC  H12X17980   4.291   4.666  14.274 -0.7198 -0.8614  0.8348
  150DOPC  H12Y17981   4.414   4.795  14.288  0.4911 -1.1277 -0.4329
  150DOPC  C31317982   4.208   4.866  14.302  0.0662  0.0266  0.3330
  150DOPC  H13X17983   4.103   4.834  14.318  0.8417 -1.8213  2.0791
  150DOPC  H13Y17984   4.219   4.945  14.379 -0.0648 -0.4762  0.8678
  150DOPC  C31417985   4.220   4.940  14.164 -0.3545  0.4919 -0.0334
  150DOPC  H14X17986   4.327   4.962  14.141 -0.2085 -1.0065 -0.9339
  150DOPC  H14Y17987   4.181   4.873  14.085 -2.3117  0.2222  1.1007
  150DOPC  C31517988   4.133   5.065  14.153 -0.5656 -0.3206  0.6103
  150DOPC  H15X17989   4.164   5.125  14.241 -1.0596  0.6935  0.1043
  150DOPC  H15Y17990   4.024   5.052  14.170 -1.1476 -0.0589 -2.4799
  150DOPC  C31617991   4.145   5.141  14.022  0.0434  0.2976 -0.1824
  150DOPC  H16X17992   4.122   5.249  14.031 -0.6677  0.0951  0.5350
  150DOPC  H16Y17993   4.252   5.132  13.991 -0.3353 -1.5444 -1.1228
  150DOPC  C31717994   4.051   5.086  13.919 -0.3050  0.5286 -0.2681
  150DOPC  H17X17995   4.089   4.990  13.880  2.5435  1.6920 -0.5761
  150DOPC  H17Y17996   3.950   5.072  13.964  0.4853 -2.6019  0.7348
  150DOPC  C31817997   4.044   5.180  13.795 -0.2876 -0.4258 -0.2345
  150DOPC  H18X17998   4.131   5.172  13.728 -0.3702  1.5531 -0.6304
  150DOPC  H18Y17999   3.953   5.159  13.735 -1.0882  0.1294  0.7509
  150DOPC  H18Z18000   4.038   5.287  13.822  0.4759 -0.7377  1.2638
  151DOPC     N18001   0.733   4.520  16.286  0.5938  0.1415  0.8709
  151DOPC   C1218002   0.670   4.505  16.149 -0.0088 -0.8216 -0.6504
  151DOPC  H12A18003   0.705   4.587  16.088 -0.9715  0.9059  1.0322
  151DOPC  H12B18004   0.562   4.510  16.153 -0.0810 -2.3398 -0.0859
  151DOPC   C1318005   0.690   4.403  16.369  0.3073 -0.3283  0.6238
  151DOPC  H13A18006   0.705   4.310  16.318 -1.8228 -0.4121  0.0668
  151DOPC  H13B18007   0.729   4.408  16.470  0.3321 -2.3316  0.7509
  151DOPC  H13C18008   0.583   4.409  16.385  0.0156  1.1397 -1.4194
  151DOPC   C1418009   0.677   4.639  16.351 -0.0425  0.4079 -0.0791
  151DOPC  H14A18010   0.704   4.721  16.286  2.1122 -0.3036 -0.1384
  151DOPC  H14B18011   0.569   4.641  16.355 -0.0591  3.3250  0.2329
  151DOPC  H14C18012   0.722   4.665  16.446 -4.5251  2.1803  1.8428
  151DOPC   C1518013   0.881   4.527  16.282 -0.2848  0.2560  0.3507
  151DOPC  H15A18014   0.924   4.569  16.371 -1.4431  2.1911  0.0680
  151DOPC  H15B18015   0.911   4.601  16.210  0.8680  0.1174  0.6674
  151DOPC  H15C18016   0.928   4.437  16.246 -0.7705  0.2628 -0.3208
  151DOPC   C1118017   0.711   4.387  16.056 -0.1198  0.2776 -0.2957
  151DOPC  H11A18018   0.696   4.288  16.102  0.1992  0.2040 -0.3471
  151DOPC  H11B18019   0.653   4.379  15.962  1.5225  1.7464 -1.5132
  151DOPC     P18020   0.905   4.459  15.895  0.3361 -0.4888 -0.1370
  151DOPC   O1318021   1.051   4.451  15.903  0.0349  0.3321  0.0591
  151DOPC   O1418022   0.855   4.598  15.885  0.2234  0.3047  0.4703
  151DOPC   O1218023   0.854   4.392  16.026  0.5239 -0.7290  0.2885
  151DOPC   O1118024   0.853   4.363  15.786  0.5564 -0.6895 -0.0184
  151DOPC    C118025   0.845   4.220  15.796 -0.7291 -0.3593 -0.5823
  151DOPC    HA18026   0.770   4.173  15.729 -0.6629 -0.8301 -0.3297
  151DOPC    HB18027   0.827   4.183  15.899  0.6922 -2.3355 -0.9842
  151DOPC    C218028   0.987   4.167  15.754  0.0064  0.1490 -0.1971
  151DOPC    HS18029   1.057   4.224  15.819  0.4667 -1.7986  1.1019
  151DOPC   O2118030   1.011   4.197  15.617 -0.1221  0.1998 -0.1878
  151DOPC   C2118031   1.140   4.204  15.584  0.6383 -0.7032 -0.7931
  151DOPC   O2218032   1.229   4.229  15.662 -0.3327 -0.3425  0.0775
  151DOPC   C2218033   1.152   4.181  15.435 -0.6648  0.6791 -0.4571
  151DOPC   H2R18034   1.240   4.239  15.402  0.5577  0.8409  2.7415
  151DOPC   H2S18035   1.063   4.220  15.381 -1.2867 -1.4614 -1.0852
  151DOPC    C318036   0.999   4.009  15.784 -0.0934 -0.6319 -0.4205
  151DOPC    HX18037   0.943   3.949  15.709  2.2164 -3.4789 -0.0312
  151DOPC    HY18038   0.961   3.986  15.886 -0.1930 -0.7169 -0.4769
  151DOPC   O3118039   1.131   3.964  15.784  0.4820  0.3195  0.2319
  151DOPC   C3118040   1.208   4.009  15.887 -0.3212  0.3143 -0.8924
  151DOPC   O3218041   1.164   4.065  15.984 -0.4490  0.0223  0.5438
  151DOPC   C3218042   1.355   3.980  15.871  0.5144  0.4340  0.0297
  151DOPC   H2X18043   1.403   4.079  15.884  0.3270  0.4407  0.7069
  151DOPC   H2Y18044   1.383   3.928  15.966  1.1311  2.4929  1.0310
  151DOPC   C2318045   1.175   4.035  15.400 -0.1604  0.3974  0.8402
  151DOPC   H3R18046   1.098   3.980  15.458 -0.5632  0.1865  0.1164
  151DOPC   H3S18047   1.273   3.997  15.437  0.6054 -0.6719 -2.0092
  151DOPC   C2418048   1.173   4.002  15.249 -0.6789  0.3790 -0.0107
  151DOPC   H4R18049   1.082   4.047  15.204 -1.4951 -1.1796 -0.0115
  151DOPC   H4S18050   1.171   3.891  15.238  2.4222  0.4299 -2.2298
  151DOPC   C2518051   1.305   4.032  15.179  0.9395 -0.2810 -0.4246
  151DOPC   H5R18052   1.388   3.967  15.213  0.9918  0.2995  0.6268
  151DOPC   H5S18053   1.339   4.137  15.195 -0.2405  0.0021  0.3845
  151DOPC   C2618054   1.295   3.999  15.031 -0.1127  0.4079  0.2649
  151DOPC   H6R18055   1.202   3.939  15.027 -0.4521  0.8985  0.6795
  151DOPC   H6S18056   1.384   3.945  14.991 -0.9068 -1.9099  1.4411
  151DOPC   C2718057   1.278   4.129  14.952  0.4089  0.4934 -0.2364
  151DOPC   H7R18058   1.366   4.197  14.949  0.3576  0.5401 -1.1139
  151DOPC   H7S18059   1.201   4.191  15.002 -1.7842 -1.1954 -1.3292
  151DOPC   C2818060   1.252   4.108  14.802 -0.2271  0.1891 -0.1141
  151DOPC   H8R18061   1.339   4.046  14.775 -0.6399 -0.4560  0.0231
  151DOPC   H8S18062   1.264   4.203  14.745  0.0049 -0.7509 -1.6881
  151DOPC   C2918063   1.126   4.043  14.757 -0.5792  0.2995 -0.0717
  151DOPC   H9R18064   1.050   4.054  14.835  1.6942  1.3227  2.1280
  151DOPC  C21018065   1.102   3.983  14.642 -0.3469  0.1548  0.1456
  151DOPC  H10R18066   1.008   3.926  14.646 -1.3248  1.7129 -0.0713
  151DOPC  C21118067   1.207   3.960  14.535 -0.1819  0.0680  0.0869
  151DOPC  H11R18068   1.244   3.855  14.536 -0.0911  0.0578 -1.4625
  151DOPC  H11S18069   1.302   4.009  14.564 -0.4848 -0.7633  2.7356
  151DOPC  C21218070   1.167   4.007  14.397  0.0940 -0.6750  0.3266
  151DOPC  H12R18071   1.249   3.973  14.331 -0.3418  0.2643 -0.7286
  151DOPC  H12S18072   1.159   4.118  14.395 -2.6297 -0.7456  1.6241
  151DOPC  C21318073   1.042   3.934  14.342 -0.1230 -0.0998 -0.0485
  151DOPC  H13R18074   0.956   3.970  14.403  0.5461  0.0619  0.8192
  151DOPC  H13S18075   1.055   3.825  14.362 -1.7049 -0.4157 -0.6323
  151DOPC  C21418076   1.015   3.946  14.194 -0.2555 -0.5839  0.1451
  151DOPC  H14R18077   0.994   4.050  14.163 -1.3438  0.0290  2.6498
  151DOPC  H14S18078   0.919   3.894  14.172 -0.3938 -0.2768  0.0271
  151DOPC  C21518079   1.136   3.898  14.105  0.8728 -0.7843  0.0104
  151DOPC  H15R18080   1.171   3.796  14.128 -0.3342 -1.1895  0.1186
  151DOPC  H15S18081   1.210   3.978  14.130 -0.4645  0.7622 -0.7537
  151DOPC  C21618082   1.112   3.913  13.956  0.1944 -0.3773 -0.7933
  151DOPC  H16R18083   1.067   4.013  13.938  1.7310  0.1473 -2.0192
  151DOPC  H16S18084   1.029   3.846  13.923 -0.0416  0.6189 -2.3311
  151DOPC  C21718085   1.241   3.877  13.882  0.3286 -0.9251 -0.2598
  151DOPC  H17R18086   1.328   3.897  13.948 -0.1123  0.5220 -0.0754
  151DOPC  H17S18087   1.232   3.942  13.792 -1.1033  0.1747  0.6345
  151DOPC  C21818088   1.250   3.736  13.829 -0.7030  0.5363  0.5513
  151DOPC  H18R18089   1.263   3.674  13.921  1.1178  1.5424  1.0195
  151DOPC  H18S18090   1.346   3.733  13.774  1.1071  0.5063  3.4696
  151DOPC  H18T18091   1.164   3.698  13.770  0.4126 -0.3914 -0.5260
  151DOPC   C3318092   1.406   3.906  15.746 -0.1893  0.2060 -0.3460
  151DOPC   H3X18093   1.347   3.947  15.662 -0.6176  0.5905  0.1332
  151DOPC   H3Y18094   1.386   3.797  15.758  0.3878  0.0521 -0.7242
  151DOPC   C3418095   1.555   3.930  15.715 -0.2148  0.3965 -0.4841
  151DOPC   H4X18096   1.611   3.928  15.811 -2.0399  0.7217  0.6328
  151DOPC   H4Y18097   1.567   4.035  15.681  1.2840  0.1850 -0.7050
  151DOPC   C3518098   1.605   3.838  15.606  0.2596  0.0402 -0.6716
  151DOPC   H5X18099   1.578   3.734  15.633 -1.5058 -0.1605 -2.9841
  151DOPC   H5Y18100   1.715   3.852  15.604  0.1830  1.0519 -3.8947
  151DOPC   C3618101   1.559   3.873  15.471 -0.7860  0.1974 -0.3770
  151DOPC   H6X18102   1.450   3.856  15.457 -0.4075 -1.6308 -1.3730
  151DOPC   H6Y18103   1.569   3.980  15.446 -1.1155 -0.2570 -2.6188
  151DOPC   C3718104   1.631   3.784  15.363  0.5991 -0.3276  0.1706
  151DOPC   H7X18105   1.740   3.806  15.358  0.7681 -1.1985 -0.2807
  151DOPC   H7Y18106   1.623   3.677  15.393  0.4805 -0.5898 -0.7472
  151DOPC   C3818107   1.584   3.803  15.218 -0.4345 -0.8630  0.2807
  151DOPC   H8X18108   1.476   3.780  15.203 -0.7341 -1.1049  2.4021
  151DOPC   H8Y18109   1.641   3.724  15.165 -0.6485 -1.3298  0.7401
  151DOPC   C3918110   1.631   3.934  15.162 -0.1761  1.1469  0.5914
  151DOPC   H9X18111   1.610   4.019  15.228 -1.6744  0.5945  0.8621
  151DOPC  C31018112   1.699   3.951  15.044 -0.3847  0.2023  0.1779
  151DOPC  H10X18113   1.751   4.048  15.032  0.4834 -0.1516  0.9280
  151DOPC  C31118114   1.743   3.851  14.945  0.1621  0.3946 -0.1529
  151DOPC  H11X18115   1.675   3.764  14.954 -2.2095  2.2263  0.6991
  151DOPC  H11Y18116   1.848   3.819  14.962 -0.2008 -1.0810 -0.5786
  151DOPC  C31218117   1.731   3.900  14.797 -0.7101 -0.2816  0.3401
  151DOPC  H12X18118   1.777   3.823  14.731 -1.3094 -1.7888  1.6316
  151DOPC  H12Y18119   1.792   3.993  14.791 -1.6511  0.4395  1.4883
  151DOPC  C31318120   1.585   3.925  14.748 -0.8167  0.9735  0.0227
  151DOPC  H13X18121   1.522   3.848  14.798  0.6875 -0.2022  0.1825
  151DOPC  H13Y18122   1.553   4.027  14.776 -1.6923  1.1101 -1.3364
  151DOPC  C31418123   1.578   3.899  14.598  0.3388  0.1166 -1.0726
  151DOPC  H14X18124   1.621   3.803  14.562  0.3550 -0.1971 -0.2225
  151DOPC  H14Y18125   1.476   3.903  14.554 -0.9836 -1.1070  1.6469
  151DOPC  C31518126   1.666   4.006  14.521  0.0719  0.0269  0.1127
  151DOPC  H15X18127   1.762   3.955  14.500 -1.4455 -2.7583 -0.6362
  151DOPC  H15Y18128   1.683   4.084  14.597  0.5005 -0.1367  0.1867
  151DOPC  C31618129   1.602   4.067  14.404 -0.1103  0.0035 -0.2825
  151DOPC  H16X18130   1.503   4.107  14.433  0.6206 -0.0609  2.5994
  151DOPC  H16Y18131   1.669   4.146  14.364 -0.0103  0.7806  1.3502
  151DOPC  C31718132   1.595   3.952  14.298 -0.1831  0.0407  0.1956
  151DOPC  H17X18133   1.693   3.909  14.267 -1.2842 -1.3376 -1.5879
  151DOPC  H17Y18134   1.526   3.881  14.348 -1.6429  1.0559 -0.3308
  151DOPC  C31818135   1.511   3.979  14.168  0.2542  0.3935  0.9973
  151DOPC  H18X18136   1.413   4.024  14.192  0.5671  0.2633  2.6145
  151DOPC  H18Y18137   1.566   4.045  14.098  0.6155  0.0539  0.9555
  151DOPC  H18Z18138   1.498   3.882  14.115  1.3043 -0.0462  1.5184
  152DOPC     N18139   1.703   2.552  16.658 -0.3562  0.2817  0.7807
  152DOPC   C1218140   1.697   2.553  16.509  0.1043  0.5644  0.5458
  152DOPC  H12A18141   1.623   2.623  16.473 -0.3718  0.3580  1.1123
  152DOPC  H12B18142   1.659   2.458  16.475  0.1098  1.1372 -1.1662
  152DOPC   C1318143   1.802   2.457  16.710 -0.0186 -0.0740  0.0934
  152DOPC  H13A18144   1.794   2.453  16.818 -0.7364 -1.4312  0.0113
  152DOPC  H13B18145   1.782   2.355  16.680  0.7772  0.1550 -1.3080
  152DOPC  H13C18146   1.901   2.494  16.688 -0.8524  1.4261 -1.3505
  152DOPC   C1418147   1.570   2.503  16.708 -0.1226  0.1619 -0.2626
  152DOPC  H14A18148   1.507   2.587  16.682  2.5573  2.0558 -1.0420
  152DOPC  H14B18149   1.532   2.412  16.664 -0.5094 -1.0437  2.4074
  152DOPC  H14C18150   1.582   2.506  16.815  0.7751  3.6156 -0.3366
  152DOPC   C1518151   1.729   2.682  16.711 -0.3922 -0.1355  0.6183
  152DOPC  H15A18152   1.711   2.683  16.818  1.9932 -1.1083  1.0841
  152DOPC  H15B18153   1.662   2.752  16.663 -0.6978 -1.3219 -0.7339
  152DOPC  H15C18154   1.829   2.716  16.689  0.7842 -2.5120  1.8919
  152DOPC   C1118155   1.828   2.571  16.432  0.1293 -0.4077 -0.0114
  152DOPC  H11A18156   1.892   2.483  16.453 -1.4572 -1.5476  0.2349
  152DOPC  H11B18157   1.829   2.563  16.321  1.7896 -2.1787  0.0639
  152DOPC     P18158   1.889   2.824  16.424 -0.0194  0.0284  0.0895
  152DOPC   O1318159   1.889   2.915  16.539 -0.0179  0.2340 -0.0980
  152DOPC   O1418160   1.769   2.831  16.334 -0.3095  0.4820  0.0453
  152DOPC   O1218161   1.905   2.680  16.486  0.1223 -0.0120  0.1336
  152DOPC   O1118162   2.018   2.849  16.332 -0.4995 -0.4192 -0.5046
  152DOPC    C118163   2.065   2.756  16.230  0.0329  0.1256 -0.1233
  152DOPC    HA18164   1.987   2.760  16.151  0.7311 -2.5000 -1.0361
  152DOPC    HB18165   2.059   2.654  16.272  1.7225 -0.1302 -0.4434
  152DOPC    C218166   2.209   2.785  16.178  0.3510  0.2499 -0.4300
  152DOPC    HS18167   2.279   2.789  16.264  0.4237  1.3568 -0.5322
  152DOPC   O2118168   2.204   2.909  16.100  0.0980  0.6828  0.3100
  152DOPC   C2118169   2.324   2.945  16.056 -0.6709  0.2996 -0.5169
  152DOPC   O2218170   2.429   2.891  16.093 -0.2399  0.1109  0.0000
  152DOPC   C2218171   2.317   3.076  15.975 -0.5331  1.0419  0.1115
  152DOPC   H2R18172   2.382   3.140  16.038  0.8428  1.1699 -1.3732
  152DOPC   H2S18173   2.209   3.103  15.973 -0.2448  2.2470  0.1368
  152DOPC    C318174   2.269   2.670  16.088 -0.1309 -0.3283 -0.6727
  152DOPC    HX18175   2.276   2.571  16.137  1.4546 -0.8776 -1.9190
  152DOPC    HY18176   2.379   2.678  16.078  0.2484  0.6907  2.8952
  152DOPC   O3118177   2.205   2.645  15.965  0.5972  0.4556 -0.0569
  152DOPC   C3118178   2.115   2.550  15.945  0.3986  0.2785  0.1300
  152DOPC   O3218179   2.079   2.463  16.023  0.2286 -0.2738 -0.4162
  152DOPC   C3218180   2.058   2.561  15.804  0.2721  0.3520 -0.4794
  152DOPC   H2X18181   1.949   2.577  15.818  0.0570 -0.1979 -1.4656
  152DOPC   H2Y18182   2.105   2.650  15.757  1.4016  0.1243  0.1793
  152DOPC   C2318183   2.372   3.054  15.834 -0.1866 -0.2635 -0.7280
  152DOPC   H3R18184   2.441   2.966  15.836 -0.7021 -0.6945  1.5711
  152DOPC   H3S18185   2.432   3.139  15.795 -2.2126  1.2349 -0.7220
  152DOPC   C2418186   2.251   3.039  15.737  0.2012 -0.1581  0.3570
  152DOPC   H4R18187   2.182   3.126  15.742 -0.1850 -0.3611 -0.9653
  152DOPC   H4S18188   2.186   2.955  15.767  0.0462 -0.1569  0.0290
  152DOPC   C2518189   2.294   3.022  15.595  0.3813  0.1192 -0.9936
  152DOPC   H5R18190   2.322   2.916  15.580  2.8774  0.1085  2.5445
  152DOPC   H5S18191   2.392   3.071  15.582  0.5423  0.5425  1.4543
  152DOPC   C2618192   2.189   3.079  15.502 -0.4957 -0.3239 -0.3840
  152DOPC   H6R18193   2.194   3.190  15.502  1.5607 -0.3773 -0.9174
  152DOPC   H6S18194   2.085   3.063  15.539 -1.3327  2.0420 -1.4974
  152DOPC   C2718195   2.214   3.022  15.369 -0.4435  0.8079  0.7997
  152DOPC   H7R18196   2.189   2.913  15.363  0.9625  0.5405 -1.0580
  152DOPC   H7S18197   2.321   3.038  15.341 -0.2116  1.9612  2.2194
  152DOPC   C2818198   2.122   3.081  15.263  0.4306 -1.0162  0.5594
  152DOPC   H8R18199   2.161   3.179  15.230 -0.8861 -0.8803 -0.6738
  152DOPC   H8S18200   2.024   3.113  15.305 -0.4264  1.6516 -3.0082
  152DOPC   C2918201   2.098   3.000  15.136  0.3178 -0.4001  0.0199
  152DOPC   H9R18202   2.028   2.918  15.158 -0.5303  0.5375  0.8991
  152DOPC  C21018203   2.165   3.009  15.018 -0.3461 -0.5853  0.1580
  152DOPC  H10R18204   2.140   2.937  14.939 -2.2752 -1.5477  1.5537
  152DOPC  C21118205   2.273   3.107  14.984 -0.7641 -1.0883  0.2128
  152DOPC  H11R18206   2.373   3.059  14.983  0.3512  1.1143 -0.9965
  152DOPC  H11S18207   2.285   3.196  15.050 -1.1175  0.9736 -2.3691
  152DOPC  C21218208   2.245   3.185  14.856  0.1911  0.5770  0.0402
  152DOPC  H12R18209   2.318   3.268  14.848 -0.7704  1.4588  0.2090
  152DOPC  H12S18210   2.141   3.219  14.870 -0.2408 -0.3926 -0.6807
  152DOPC  C21318211   2.235   3.104  14.734  0.4548 -0.6972  0.1047
  152DOPC  H13R18212   2.159   3.022  14.738 -0.1376 -0.1727 -0.1400
  152DOPC  H13S18213   2.332   3.076  14.688 -0.2029 -0.6004 -1.4159
  152DOPC  C21418214   2.179   3.196  14.615 -0.5004  0.9252  0.6483
  152DOPC  H14R18215   2.266   3.260  14.587  1.1049 -0.9598  1.0989
  152DOPC  H14S18216   2.086   3.252  14.636 -2.6671 -2.4757  0.8517
  152DOPC  C21518217   2.153   3.102  14.490  0.1692  0.2873 -0.2357
  152DOPC  H15R18218   2.101   3.010  14.524  1.1633 -0.9922 -1.9964
  152DOPC  H15S18219   2.246   3.065  14.443  0.7482 -0.5441  1.4832
  152DOPC  C21618220   2.060   3.169  14.386  0.2761  0.6344  1.0456
  152DOPC  H16R18221   1.979   3.215  14.446 -0.4521 -1.1283  1.5022
  152DOPC  H16S18222   2.015   3.088  14.324 -0.3566  0.8199  1.2499
  152DOPC  C21718223   2.118   3.277  14.301 -0.2899 -0.1130  0.2614
  152DOPC  H17R18224   2.186   3.342  14.360 -0.7341  1.8123 -1.2612
  152DOPC  H17S18225   2.038   3.348  14.271 -0.5789 -0.4398  0.2565
  152DOPC  C21818226   2.200   3.233  14.179  0.7785  0.1011  0.3850
  152DOPC  H18R18227   2.277   3.163  14.219 -0.4003 -0.9508  0.8648
  152DOPC  H18S18228   2.246   3.310  14.114 -0.2136  0.1412 -0.2868
  152DOPC  H18T18229   2.139   3.173  14.108 -2.4319  3.3463  0.1333
  152DOPC   C3318230   2.070   2.436  15.711  0.4214  0.1189  0.4902
  152DOPC   H3X18231   1.992   2.361  15.738 -0.8594  0.9708 -0.6667
  152DOPC   H3Y18232   2.160   2.371  15.713 -1.9143 -3.8094 -3.4811
  152DOPC   C3418233   2.044   2.482  15.564  0.2983  0.6263 -0.2983
  152DOPC   H4X18234   2.124   2.549  15.525 -0.1030  2.1517  1.3812
  152DOPC   H4Y18235   1.946   2.533  15.570 -0.6394 -1.0898 -0.4221
  152DOPC   C3518236   2.031   2.364  15.463  0.1169  0.2947 -0.0587
  152DOPC   H5X18237   1.963   2.288  15.507  0.1674 -0.5937 -1.4580
  152DOPC   H5Y18238   2.126   2.311  15.438  0.7100  1.6703 -0.8439
  152DOPC   C3618239   1.959   2.397  15.337 -0.0315  0.3417 -0.0004
  152DOPC   H6X18240   1.930   2.308  15.278  0.0243  0.0194  0.4551
  152DOPC   H6Y18241   1.863   2.437  15.376  0.5017  0.6360  1.0770
  152DOPC   C3718242   2.035   2.506  15.259  0.1129  0.1506 -0.6259
  152DOPC   H7X18243   2.055   2.586  15.334  0.7787 -0.4259 -0.1699
  152DOPC   H7Y18244   2.127   2.466  15.211 -0.1017 -1.3119  0.1269
  152DOPC   C3818245   1.955   2.553  15.138 -0.4424 -0.3274 -0.7691
  152DOPC   H8X18246   2.007   2.636  15.087 -0.3617  0.2275  0.2052
  152DOPC   H8Y18247   1.867   2.606  15.181 -0.0417 -0.2132 -0.0873
  152DOPC   C3918248   1.921   2.441  15.037  0.6142  0.5584  0.1065
  152DOPC   H9X18249   1.849   2.371  15.081  0.1419  1.3628  0.6453
  152DOPC  C31018250   1.987   2.418  14.923  0.6799  0.2833 -0.4044
  152DOPC  H10X18251   1.964   2.321  14.875 -1.4919  0.2116  0.6601
  152DOPC  C31118252   2.085   2.502  14.862 -0.4102 -0.6701  0.6342
  152DOPC  H11X18253   2.149   2.454  14.784 -2.6018  0.0433 -1.7670
  152DOPC  H11Y18254   2.149   2.553  14.937 -0.3143  1.0050 -0.5168
  152DOPC  C31218255   2.008   2.620  14.795 -0.3939  0.9471 -0.2819
  152DOPC  H12X18256   2.084   2.691  14.755 -1.5737  1.2949 -2.0227
  152DOPC  H12Y18257   1.950   2.682  14.866 -0.9261  2.5224 -2.0024
  152DOPC  C31318258   1.917   2.567  14.688  0.6741  0.2035  0.0673
  152DOPC  H13X18259   1.961   2.481  14.633 -1.2634  0.0857 -1.4375
  152DOPC  H13Y18260   1.822   2.534  14.736  1.0316  2.0485  2.2311
  152DOPC  C31418261   1.869   2.668  14.589  0.5384 -0.3006 -0.3166
  152DOPC  H14X18262   1.785   2.731  14.626  0.3882 -1.2214  0.9715
  152DOPC  H14Y18263   1.954   2.733  14.561  0.0827  0.0953 -0.8217
  152DOPC  C31518264   1.827   2.610  14.458 -0.4919 -1.0570  0.3399
  152DOPC  H15X18265   1.727   2.562  14.464 -0.5686 -1.0773 -0.7945
  152DOPC  H15Y18266   1.905   2.547  14.409 -0.2265  0.2066 -0.9620
  152DOPC  C31618267   1.786   2.717  14.349  0.2354  0.8760  0.1912
  152DOPC  H16X18268   1.718   2.660  14.282  0.6049  0.3282  0.2685
  152DOPC  H16Y18269   1.730   2.796  14.403 -0.2500  0.7073 -0.0665
  152DOPC  C31718270   1.899   2.774  14.270  0.1135 -0.1070 -0.2440
  152DOPC  H17X18271   1.956   2.825  14.351 -0.3682 -2.3229  1.5861
  152DOPC  H17Y18272   1.963   2.694  14.227  0.8411 -0.7080  1.8290
  152DOPC  C31818273   1.845   2.868  14.165 -0.3633 -0.2553 -0.2697
  152DOPC  H18X18274   1.817   2.807  14.076  0.1401 -1.0999  0.1421
  152DOPC  H18Y18275   1.750   2.916  14.196  0.3545  0.6518  0.5823
  152DOPC  H18Z18276   1.923   2.944  14.146 -0.1523 -0.2385  0.6334
  153DOPC     N18277   2.527   6.684  16.174 -0.8103  0.6977 -0.8102
  153DOPC   C1218278   2.627   6.775  16.247  0.4693  0.0813  0.4872
  153DOPC  H12A18279   2.729   6.741  16.236  1.4378  1.7422  3.2603
  153DOPC  H12B18280   2.614   6.776  16.354  0.2059  1.1029  0.4633
  153DOPC   C1318281   2.381   6.724  16.193 -0.3543  0.4062 -0.3535
  153DOPC  H13A18282   2.308   6.665  16.141 -0.4694 -0.6691  0.9731
  153DOPC  H13B18283   2.359   6.737  16.298 -2.3786 -0.5981 -0.6087
  153DOPC  H13C18284   2.375   6.825  16.154 -0.6126  0.5684  0.0993
  153DOPC   C1418285   2.543   6.544  16.228  0.1477 -0.8192 -0.2989
  153DOPC  H14A18286   2.490   6.477  16.162 -1.4333  0.6348 -0.5700
  153DOPC  H14B18287   2.643   6.504  16.235  0.4320 -0.3496 -1.3897
  153DOPC  H14C18288   2.508   6.528  16.329 -1.7772 -0.6002 -0.8993
  153DOPC   C1518289   2.555   6.689  16.031  0.2344  0.0043  0.3591
  153DOPC  H15A18290   2.478   6.632  15.981 -1.3846 -0.9232  3.6362
  153DOPC  H15B18291   2.646   6.648  15.989 -0.3628  0.8689 -1.9107
  153DOPC  H15C18292   2.554   6.793  16.000  2.3502 -0.6576 -2.3735
  153DOPC   C1118293   2.630   6.928  16.213 -0.8423 -0.5864  0.4042
  153DOPC  H11A18294   2.536   6.983  16.237 -0.5172  1.4098 -2.3954
  153DOPC  H11B18295   2.695   6.986  16.281 -0.3597 -1.0567  0.3541
  153DOPC     P18296   2.790   7.023  16.025  0.4529 -0.7157 -0.0756
  153DOPC   O1318297   2.902   6.963  16.098 -0.2559  0.3594 -0.3676
  153DOPC   O1418298   2.771   7.168  16.039  0.3263 -0.2485 -0.2339
  153DOPC   O1218299   2.661   6.952  16.068  0.1468 -0.2187  0.0873
  153DOPC   O1118300   2.795   6.986  15.872  0.2957  0.0631 -0.2246
  153DOPC    C118301   2.687   7.008  15.783  0.4622 -0.8019 -0.1147
  153DOPC    HA18302   2.644   7.110  15.777 -1.4593 -1.6424 -2.1534
  153DOPC    HB18303   2.605   6.938  15.812 -0.5726  0.8848  1.2644
  153DOPC    C218304   2.736   6.971  15.644  0.1877 -0.7298 -0.0257
  153DOPC    HS18305   2.775   6.868  15.647 -0.6320 -1.0772 -0.9032
  153DOPC   O2118306   2.834   7.068  15.604 -0.6647  0.5902 -0.1701
  153DOPC   C2118307   2.919   7.027  15.508 -0.3914 -0.0556 -0.5810
  153DOPC   O2218308   2.932   6.913  15.464 -1.1261 -0.4883 -0.3506
  153DOPC   C2218309   2.996   7.149  15.449  0.2258 -0.2454 -0.3126
  153DOPC   H2R18310   3.099   7.140  15.487 -0.2049 -1.7122  0.5798
  153DOPC   H2S18311   2.942   7.241  15.479 -0.8808 -0.7175 -0.7682
  153DOPC    C318312   2.613   6.970  15.552 -0.5678  0.2538  0.1299
  153DOPC    HX18313   2.579   7.074  15.531  0.4373  0.7109  0.6833
  153DOPC    HY18314   2.530   6.920  15.605  0.4361 -1.9782 -0.3028
  153DOPC   O3118315   2.646   6.906  15.430 -0.0083  0.1049 -0.0256
  153DOPC   C3118316   2.620   6.772  15.427 -0.1569 -0.4818  0.1549
  153DOPC   O3218317   2.578   6.706  15.518 -0.0725 -0.1949 -0.3176
  153DOPC   C3218318   2.652   6.717  15.287 -0.3406  0.7209 -0.3579
  153DOPC   H2X18319   2.763   6.721  15.284 -0.3311  0.2164 -0.9500
  153DOPC   H2Y18320   2.633   6.607  15.285  1.0316  0.4608 -2.4738
  153DOPC   C2318321   3.015   7.131  15.296  0.6097  0.2635  0.2988
  153DOPC   H3R18322   3.075   7.038  15.286  1.4778  0.9404 -1.2704
  153DOPC   H3S18323   3.070   7.218  15.254  1.1730  0.6067  1.6951
  153DOPC   C2418324   2.883   7.121  15.211  0.0047  0.3112 -0.2514
  153DOPC   H4R18325   2.826   7.215  15.220 -1.2901 -0.5277  0.5696
  153DOPC   H4S18326   2.827   7.037  15.256  0.6752 -0.5540 -0.9899
  153DOPC   C2518327   2.903   7.106  15.061 -0.2526  0.5483 -0.6571
  153DOPC   H5R18328   2.950   7.006  15.053 -0.2222  0.1554  2.8384
  153DOPC   H5S18329   2.965   7.183  15.009  3.8340 -1.3023  1.0307
  153DOPC   C2618330   2.769   7.115  14.989  0.0101  0.0660  0.4057
  153DOPC   H6R18331   2.737   7.221  14.998  0.6488  0.1985  1.2734
  153DOPC   H6S18332   2.690   7.052  15.036 -0.6886  0.5708 -0.0839
  153DOPC   C2718333   2.791   7.078  14.845 -0.5516 -0.1214 -0.0854
  153DOPC   H7R18334   2.819   6.971  14.841  0.6431  0.1107  1.3389
  153DOPC   H7S18335   2.883   7.126  14.804 -1.5723  1.4131 -0.7022
  153DOPC   C2818336   2.675   7.106  14.752 -0.1320 -0.2353  0.7664
  153DOPC   H8R18337   2.656   7.214  14.735 -1.4370 -0.8037 -1.9858
  153DOPC   H8S18338   2.572   7.080  14.784 -1.3676  2.6180 -0.5825
  153DOPC   C2918339   2.698   7.041  14.617  0.2009  0.6566  0.2544
  153DOPC   H9R18340   2.701   6.932  14.601 -0.3317  0.7768 -0.7353
  153DOPC  C21018341   2.713   7.101  14.498 -0.2806 -0.0035  0.1733
  153DOPC  H10R18342   2.740   7.035  14.414 -2.8397 -0.2902 -0.5037
  153DOPC  C21118343   2.705   7.247  14.459  0.4376  0.2934  0.1043
  153DOPC  H11R18344   2.799   7.303  14.481  1.7291 -1.0005 -1.7570
  153DOPC  H11S18345   2.615   7.283  14.512 -0.4612 -0.8118 -0.6316
  153DOPC  C21218346   2.664   7.261  14.309 -0.0511 -0.0912 -0.3876
  153DOPC  H12R18347   2.652   7.371  14.296 -0.7509 -0.1239 -0.0557
  153DOPC  H12S18348   2.564   7.215  14.295 -1.0420  1.7633  0.2450
  153DOPC  C21318349   2.768   7.214  14.210 -0.0699  0.4345 -0.6169
  153DOPC  H13R18350   2.763   7.104  14.224 -0.7593  0.5614  0.2205
  153DOPC  H13S18351   2.871   7.239  14.243 -0.5725  0.2161  1.1962
  153DOPC  C21418352   2.726   7.247  14.064 -0.2128 -0.1380  0.1027
  153DOPC  H14R18353   2.781   7.175  13.999  0.7131  0.1066  0.6031
  153DOPC  H14S18354   2.767   7.347  14.037 -0.6737  0.6867  2.2697
  153DOPC  C21518355   2.573   7.237  14.034 -0.1400  0.2314 -0.7555
  153DOPC  H15R18356   2.528   7.314  14.099 -1.2478 -1.3899  0.4677
  153DOPC  H15S18357   2.548   7.137  14.076  2.0434  0.3903  1.1138
  153DOPC  C21618358   2.535   7.260  13.891 -0.1069 -0.3232  0.3143
  153DOPC  H16R18359   2.601   7.337  13.846 -0.1144 -1.0073 -0.9361
  153DOPC  H16S18360   2.433   7.302  13.897  0.0769  0.0962  0.5152
  153DOPC  C21718361   2.542   7.146  13.792 -0.2763  1.4192 -0.3904
  153DOPC  H17R18362   2.464   7.071  13.819  0.4361  1.0327  0.6626
  153DOPC  H17S18363   2.642   7.098  13.799 -1.4352 -1.3161 -1.2110
  153DOPC  C21818364   2.515   7.191  13.648  0.3277  0.0331  0.7951
  153DOPC  H18R18365   2.412   7.228  13.627  0.3006 -1.0920 -1.3953
  153DOPC  H18S18366   2.528   7.101  13.584  0.5311  0.3460  0.3872
  153DOPC  H18T18367   2.583   7.276  13.625 -0.4411 -0.0210 -2.1029
  153DOPC   C3318368   2.582   6.781  15.171 -0.4149 -0.7574 -0.7150
  153DOPC   H3X18369   2.591   6.891  15.183  0.2583 -0.8212 -0.5629
  153DOPC   H3Y18370   2.477   6.747  15.164 -0.7101 -0.5915  1.8207
  153DOPC   C3418371   2.635   6.739  15.032  0.5109 -0.0426  0.0983
  153DOPC   H4X18372   2.746   6.732  15.030  0.5793  0.9728 -0.4830
  153DOPC   H4Y18373   2.606   6.820  14.961  0.3449 -1.0708 -1.0396
  153DOPC   C3518374   2.566   6.612  14.987 -0.7240 -0.0591  0.1260
  153DOPC   H5X18375   2.456   6.630  14.990 -0.5232  1.8877 -1.6766
  153DOPC   H5Y18376   2.605   6.529  15.049 -0.0164  0.3797  0.2748
  153DOPC   C3618377   2.589   6.584  14.837 -1.0271  0.5416  0.5667
  153DOPC   H6X18378   2.684   6.635  14.812  0.1502 -1.4892  0.7031
  153DOPC   H6Y18379   2.594   6.475  14.815 -2.4358  0.1141  2.1227
  153DOPC   C3718380   2.482   6.643  14.743  0.4210 -0.1560 -1.1578
  153DOPC   H7X18381   2.385   6.595  14.766  0.5310  0.4923  0.8597
  153DOPC   H7Y18382   2.459   6.744  14.783 -0.0688 -0.4664 -0.6544
  153DOPC   C3818383   2.504   6.655  14.600 -0.4538  0.7092  0.9844
  153DOPC   H8X18384   2.596   6.711  14.573  0.5101 -0.8512  0.9221
  153DOPC   H8Y18385   2.417   6.713  14.561 -0.9587 -0.2969  0.5688
  153DOPC   C3918386   2.502   6.518  14.529  0.2381 -0.0201 -0.4902
  153DOPC   H9X18387   2.544   6.434  14.587  2.5280 -0.6475 -2.8554
  153DOPC  C31018388   2.485   6.489  14.401  0.7939  0.2939  0.1447
  153DOPC  H10X18389   2.493   6.390  14.353 -0.3518  0.7691 -1.0908
  153DOPC  C31118390   2.450   6.587  14.290  1.0881 -0.3178  0.6822
  153DOPC  H11X18391   2.530   6.580  14.213 -0.9498 -1.3427 -1.4296
  153DOPC  H11Y18392   2.436   6.694  14.316 -1.3178 -0.1450 -1.0256
  153DOPC  C31218393   2.322   6.548  14.213 -0.1638 -0.0216  0.0874
  153DOPC  H12X18394   2.238   6.595  14.268  0.9356 -0.7046  2.5008
  153DOPC  H12Y18395   2.310   6.438  14.216 -0.1875 -0.0565  4.0138
  153DOPC  C31318396   2.323   6.599  14.065  0.1291 -0.1873 -0.1512
  153DOPC  H13X18397   2.312   6.705  14.096 -1.9106 -0.9940  2.2337
  153DOPC  H13Y18398   2.417   6.595  14.006  0.9469 -1.3699  1.1785
  153DOPC  C31418399   2.195   6.557  13.989 -0.3527  0.1767 -0.2128
  153DOPC  H14X18400   2.195   6.446  13.997  1.0098  0.1637 -0.2675
  153DOPC  H14Y18401   2.105   6.588  14.047  0.0612 -1.2667  1.2647
  153DOPC  C31518402   2.183   6.608  13.844 -0.0456  0.1836 -0.3117
  153DOPC  H15X18403   2.273   6.610  13.778  0.7242  1.6150  0.7005
  153DOPC  H15Y18404   2.174   6.718  13.856  1.6392  0.1726  1.9009
  153DOPC  C31618405   2.065   6.549  13.765 -0.9944  0.0085  0.0949
  153DOPC  H16X18406   2.081   6.443  13.735  2.6874  0.2083  0.8116
  153DOPC  H16Y18407   1.982   6.544  13.838 -0.3452  0.4209  0.8835
  153DOPC  C31718408   2.024   6.627  13.644 -0.7551 -0.7238 -0.1599
  153DOPC  H17X18409   1.925   6.586  13.613 -0.8557  0.2057 -1.1010
  153DOPC  H17Y18410   2.017   6.736  13.661 -1.4294 -0.5597 -1.3961
  153DOPC  C31818411   2.123   6.605  13.525 -0.5787 -0.0698 -0.3658
  153DOPC  H18X18412   2.222   6.642  13.559 -0.7436 -0.9237  1.1867
  153DOPC  H18Y18413   2.135   6.497  13.502 -1.0859  0.1355 -1.6915
  153DOPC  H18Z18414   2.088   6.662  13.437  1.1186  0.7844 -0.5238
  154DOPC     N18415   5.350   5.194  16.182  0.0676  0.5022  0.7103
  154DOPC   C1218416   5.299   5.176  16.036 -0.2976  0.4493  0.5224
  154DOPC  H12A18417   5.363   5.238  15.975  0.6291 -0.9685  0.0034
  154DOPC  H12B18418   5.202   5.223  16.027 -1.2673 -1.3428  0.9552
  154DOPC   C1318419   5.233   5.149  16.273 -0.0726 -0.6752 -0.1415
  154DOPC  H13A18420   5.216   5.047  16.243  0.9039 -1.1486  0.8453
  154DOPC  H13B18421   5.259   5.148  16.378  0.0295 -1.5565 -0.1653
  154DOPC  H13C18422   5.149   5.216  16.262  1.1555  1.0343  0.4507
  154DOPC   C1418423   5.391   5.339  16.208 -0.4529 -0.2689  0.3240
  154DOPC  H14A18424   5.413   5.360  16.311 -1.0642 -2.0159  0.8508
  154DOPC  H14B18425   5.484   5.362  16.156 -0.1740  0.8514  1.2966
  154DOPC  H14C18426   5.324   5.409  16.162 -0.8316  0.2967  1.6997
  154DOPC   C1518427   5.460   5.098  16.216  0.9782 -0.2058 -0.2177
  154DOPC  H15A18428   5.545   5.120  16.154 -0.3185  0.8614 -1.7256
  154DOPC  H15B18429   5.435   4.997  16.190 -0.2883  0.6590 -2.7135
  154DOPC  H15C18430   5.482   5.100  16.321 -1.4250 -3.0969  0.4777
  154DOPC   C1118431   5.296   5.036  15.969  0.0368  0.0074 -0.5588
  154DOPC  H11A18432   5.293   5.040  15.858 -0.8212 -1.1777 -0.5982
  154DOPC  H11B18433   5.400   4.997  15.979 -0.6297 -1.7382 -0.0647
  154DOPC     P18434   5.057   4.935  15.972 -0.0705 -0.6089 -0.2317
  154DOPC   O1318435   5.024   5.077  15.956 -0.2179  0.4038  0.0666
  154DOPC   O1418436   4.971   4.853  16.059 -0.2242 -0.1640 -0.4708
  154DOPC   O1218437   5.206   4.942  16.033  0.3468 -0.0977 -0.1730
  154DOPC   O1118438   5.065   4.862  15.827 -0.0993  0.3584 -0.0548
  154DOPC    C118439   5.171   4.760  15.801  0.1540  0.1421 -0.0632
  154DOPC    HA18440   5.120   4.663  15.786 -1.2357  0.6417  1.2518
  154DOPC    HB18441   5.248   4.745  15.879 -1.3881 -1.8403  1.1642
  154DOPC    C218442   5.236   4.777  15.660  1.2580 -0.2781  0.0655
  154DOPC    HS18443   5.300   4.867  15.668  1.3654 -0.2342 -1.0288
  154DOPC   O2118444   5.132   4.788  15.551 -0.1598 -0.1112  0.7636
  154DOPC   C2118445   5.109   4.915  15.515  1.1714  0.1243 -0.1231
  154DOPC   O2218446   5.152   5.013  15.566 -0.2019 -0.2435  0.0763
  154DOPC   C2218447   5.010   4.920  15.408 -0.2872 -0.3064 -0.6973
  154DOPC   H2R18448   4.917   4.967  15.446  1.0342  2.2793 -0.3823
  154DOPC   H2S18449   4.982   4.815  15.386 -0.3955 -0.3804 -0.2059
  154DOPC    C318450   5.342   4.670  15.627  0.0772  0.9639  0.5924
  154DOPC    HX18451   5.297   4.569  15.636 -2.8352  2.0355 -0.8406
  154DOPC    HY18452   5.419   4.664  15.707  1.7371 -1.6120 -1.0383
  154DOPC   O3118453   5.394   4.679  15.490  0.5773 -0.5449 -0.2224
  154DOPC   C3118454   5.480   4.778  15.473 -0.5874  0.2675  0.2182
  154DOPC   O3218455   5.509   4.865  15.554  0.0226 -0.2267 -0.2347
  154DOPC   C3218456   5.540   4.773  15.334 -0.0843  0.1651  0.3779
  154DOPC   H2X18457   5.552   4.665  15.313  0.2353 -0.0429  1.5846
  154DOPC   H2Y18458   5.462   4.804  15.262 -0.6127  0.2652  0.9870
  154DOPC   C2318459   5.058   4.991  15.285  0.0883 -0.5957  0.7626
  154DOPC   H3R18460   5.101   5.089  15.313  0.0555 -0.9599  2.1300
  154DOPC   H3S18461   4.964   5.011  15.228  0.7193 -1.5797 -0.7033
  154DOPC   C2418462   5.151   4.909  15.193  0.5169 -0.0820 -0.7812
  154DOPC   H4R18463   5.114   4.807  15.169  1.3346  0.1227 -3.1263
  154DOPC   H4S18464   5.246   4.896  15.249  0.8991 -1.0521 -1.6281
  154DOPC   C2518465   5.166   4.970  15.055  0.4596 -0.1359  0.0553
  154DOPC   H5R18466   5.222   5.066  15.060  0.7037 -0.2024 -1.0937
  154DOPC   H5S18467   5.068   4.992  15.009  0.0081 -1.8265  0.1199
  154DOPC   C2618468   5.234   4.875  14.957  0.6030  0.4842  0.5853
  154DOPC   H6R18469   5.175   4.783  14.937  0.6781  0.8304 -1.4980
  154DOPC   H6S18470   5.326   4.836  15.005 -0.7689 -5.7916 -0.9757
  154DOPC   C2718471   5.269   4.939  14.823  0.1531  0.5178  0.1947
  154DOPC   H7R18472   5.307   5.041  14.847 -0.1024  0.8052 -0.5648
  154DOPC   H7S18473   5.171   4.941  14.770  0.6362 -0.8241 -0.8018
  154DOPC   C2818474   5.371   4.866  14.734 -0.2320  0.2583 -0.2395
  154DOPC   H8R18475   5.475   4.872  14.774 -0.5666  2.8092  0.3739
  154DOPC   H8S18476   5.382   4.925  14.641 -0.2898 -0.9215 -1.0112
  154DOPC   C2918477   5.334   4.726  14.696 -0.0151  0.0885 -0.1179
  154DOPC   H9R18478   5.297   4.670  14.783 -0.1924 -0.8752 -0.8040
  154DOPC  C21018479   5.356   4.667  14.575 -0.0790 -0.1174  0.3129
  154DOPC  H10R18480   5.349   4.557  14.570  0.8324 -0.2256  1.1635
  154DOPC  C21118481   5.410   4.732  14.449 -0.0545  0.0098  0.2981
  154DOPC  H11R18482   5.505   4.682  14.420  1.0691  1.7264  0.8455
  154DOPC  H11S18483   5.440   4.837  14.470 -0.6940 -0.5039  4.8204
  154DOPC  C21218484   5.313   4.726  14.329 -0.4574 -0.5270  0.8435
  154DOPC  H12R18485   5.213   4.759  14.365 -1.7863 -4.0706  0.7657
  154DOPC  H12S18486   5.298   4.619  14.304  0.1116 -0.6448  0.9783
  154DOPC  C21318487   5.362   4.809  14.208  0.4822  0.1382  0.3781
  154DOPC  H13R18488   5.450   4.767  14.155  0.4181  0.8806 -0.3360
  154DOPC  H13S18489   5.389   4.912  14.240 -1.4682  1.9063 -3.1661
  154DOPC  C21418490   5.251   4.818  14.101  0.1526  0.3721  0.3512
  154DOPC  H14R18491   5.266   4.910  14.040 -1.8959 -0.3466 -1.3502
  154DOPC  H14S18492   5.152   4.833  14.150  0.0716  0.8161  0.0662
  154DOPC  C21518493   5.236   4.702  14.003 -0.1220 -0.4508  0.1854
  154DOPC  H15R18494   5.188   4.613  14.050 -0.4270  0.1413  1.0230
  154DOPC  H15S18495   5.336   4.673  13.965 -0.3302  0.1182 -0.8546
  154DOPC  C21618496   5.168   4.749  13.869  0.3715  0.4659 -0.7487
  154DOPC  H16R18497   5.224   4.833  13.822  0.1941 -0.3047 -2.4416
  154DOPC  H16S18498   5.061   4.761  13.895 -0.3215 -1.9136 -2.1759
  154DOPC  C21718499   5.183   4.641  13.761  0.0877  0.1098 -0.1632
  154DOPC  H17R18500   5.288   4.640  13.726 -0.2557  0.0149 -1.2384
  154DOPC  H17S18501   5.135   4.675  13.667  4.1364  0.2487 -2.4011
  154DOPC  C21818502   5.131   4.505  13.799 -0.2435 -0.0926 -0.1616
  154DOPC  H18R18503   5.196   4.440  13.862 -1.1639 -0.4370  0.4627
  154DOPC  H18S18504   5.114   4.446  13.706  2.2548 -0.3891 -0.4988
  154DOPC  H18T18505   5.034   4.514  13.852 -0.2970  1.2008 -0.4580
  154DOPC   C3318506   5.669   4.863  15.326  0.5003  0.5031  0.7742
  154DOPC   H3X18507   5.759   4.822  15.378 -0.7360  0.0294  2.6375
  154DOPC   H3Y18508   5.646   4.959  15.376 -1.3371 -0.1123  1.1949
  154DOPC   C3418509   5.716   4.888  15.181 -0.0271  1.1266 -0.4930
  154DOPC   H4X18510   5.806   4.953  15.193 -0.2689  1.2167  1.1406
  154DOPC   H4Y18511   5.633   4.941  15.130 -2.7574 -2.5610 -0.2279
  154DOPC   C3518512   5.756   4.758  15.105 -0.4737 -0.4082 -0.3948
  154DOPC   H5X18513   5.665   4.699  15.082  0.5569 -1.1568 -2.9083
  154DOPC   H5Y18514   5.809   4.701  15.185 -2.2558 -1.4961  0.0521
  154DOPC   C3618515   5.832   4.790  14.970 -0.3308  0.3707 -0.4986
  154DOPC   H6X18516   5.895   4.876  15.000 -1.7320  1.4140 -0.4683
  154DOPC   H6Y18517   5.902   4.706  14.949 -1.7630 -0.7765 -0.8705
  154DOPC   C3718518   5.737   4.820  14.858  0.1756  1.1113 -0.4745
  154DOPC   H7X18519   5.669   4.733  14.843 -0.2111  1.7784 -3.0535
  154DOPC   H7Y18520   5.676   4.901  14.902  0.2380  0.6365  0.5137
  154DOPC   C3818521   5.805   4.868  14.734 -0.5995 -0.2522 -0.5702
  154DOPC   H8X18522   5.855   4.967  14.742  0.7639 -0.9294 -0.5062
  154DOPC   H8Y18523   5.722   4.897  14.665 -0.4928 -1.2492 -1.1295
  154DOPC   C3918524   5.906   4.780  14.666  0.0057 -0.7337 -0.0389
  154DOPC   H9X18525   5.988   4.751  14.733  0.4305  3.1720  1.4114
  154DOPC  C31018526   5.903   4.752  14.535  0.0018  0.4908  0.2059
  154DOPC  H10X18527   5.989   4.695  14.496  0.5932 -0.4840  2.6960
  154DOPC  C31118528   5.800   4.781  14.438 -0.1176  0.4327  0.2245
  154DOPC  H11X18529   5.709   4.831  14.480  1.3450  1.9219  1.7645
  154DOPC  H11Y18530   5.770   4.682  14.396  1.0846 -0.3069  1.0686
  154DOPC  C31218531   5.844   4.874  14.323  0.0317 -0.3572 -0.0583
  154DOPC  H12X18532   5.921   4.811  14.274 -0.5309 -0.2811 -1.0654
  154DOPC  H12Y18533   5.891   4.965  14.367 -0.2757 -1.0688  1.8554
  154DOPC  C31318534   5.724   4.890  14.224  0.2568  0.8339 -0.0865
  154DOPC  H13X18535   5.716   4.790  14.176 -1.6498  1.4578 -1.1848
  154DOPC  H13Y18536   5.630   4.924  14.272  0.6773  2.1199 -0.1332
  154DOPC  C31418537   5.764   4.984  14.108  0.2383  0.5925  0.2913
  154DOPC  H14X18538   5.770   5.088  14.145  0.2267  0.9756 -0.7278
  154DOPC  H14Y18539   5.867   4.950  14.083  0.1409 -0.3496  1.1255
  154DOPC  C31518540   5.671   4.973  13.990  0.6109  0.1057  0.7972
  154DOPC  H15X18541   5.695   5.040  13.904  1.8596 -0.4194  0.7231
  154DOPC  H15Y18542   5.573   5.006  14.031  0.1977 -0.7779  0.5430
  154DOPC  C31618543   5.668   4.837  13.919 -0.1038 -0.1277 -0.1257
  154DOPC  H16X18544   5.771   4.817  13.884 -0.3823 -0.9965 -0.4764
  154DOPC  H16Y18545   5.652   4.759  13.997  1.3667  0.1661  0.5055
  154DOPC  C31718546   5.572   4.819  13.805  0.7969 -0.2510  0.1846
  154DOPC  H17X18547   5.587   4.718  13.760  1.5458 -0.2393  0.4010
  154DOPC  H17Y18548   5.466   4.819  13.838  1.0825  0.3781  1.1417
  154DOPC  C31818549   5.594   4.916  13.686 -0.3641 -0.2857  0.4474
  154DOPC  H18X18550   5.513   4.911  13.611  0.8931  0.4548 -1.0205
  154DOPC  H18Y18551   5.593   5.022  13.719 -3.3195 -0.2148  0.3587
  154DOPC  H18Z18552   5.690   4.889  13.636 -1.4476  0.1519 -2.0105
  155DOPC     N18553   0.151   2.590  16.716 -0.5808  0.0372 -0.2848
  155DOPC   C1218554   0.067   2.527  16.605  0.6497 -0.8682  0.1548
  155DOPC  H12A18555  -0.029   2.575  16.614  0.0744 -1.9041 -0.2259
  155DOPC  H12B18556   0.050   2.420  16.613  2.3536 -1.4293 -2.5705
  155DOPC   C1318557   0.282   2.519  16.724 -0.1242 -0.2267  0.2963
  155DOPC  H13A18558   0.277   2.412  16.741  1.5827 -0.2465  0.8592
  155DOPC  H13B18559   0.334   2.528  16.631  1.4024 -0.6534  1.0809
  155DOPC  H13C18560   0.348   2.557  16.801  1.0415  2.3192 -1.8238
  155DOPC   C1418561   0.080   2.555  16.847  0.5406 -0.3948  0.7409
  155DOPC  H14A18562   0.063   2.449  16.857  2.5249 -0.9881 -1.2136
  155DOPC  H14B18563   0.135   2.598  16.930 -1.4815  0.6610  1.6084
  155DOPC  H14C18564  -0.022   2.590  16.857  0.6216  0.0983 -0.0300
  155DOPC   C1518565   0.175   2.737  16.698  0.7035  0.3905 -0.4357
  155DOPC  H15A18566   0.246   2.769  16.773  1.1844 -1.2400 -0.1618
  155DOPC  H15B18567   0.085   2.796  16.714 -1.0425 -2.3263  0.4022
  155DOPC  H15C18568   0.214   2.755  16.599  2.0108  0.7749  0.1352
  155DOPC   C1118569   0.110   2.545  16.464 -0.4792 -0.1563  0.1663
  155DOPC  H11A18570   0.207   2.491  16.465 -0.9742 -1.0986  1.6959
  155DOPC  H11B18571   0.033   2.490  16.405  0.1906 -0.8597 -0.0770
  155DOPC     P18572   0.166   2.726  16.274  0.4546 -0.7110  0.2104
  155DOPC   O1318573   0.308   2.710  16.254 -0.0125 -0.5513  0.0708
  155DOPC   O1418574   0.116   2.868  16.249 -0.0377 -0.0181  0.0790
  155DOPC   O1218575   0.115   2.681  16.418 -0.5068 -0.3667 -0.3524
  155DOPC   O1118576   0.099   2.617  16.177 -0.1001  0.1289  0.6379
  155DOPC    C118577  -0.040   2.622  16.148  0.3124  0.7263 -0.0590
  155DOPC    HA18578  -0.102   2.692  16.207  0.6267  0.7768  0.2086
  155DOPC    HB18579  -0.085   2.525  16.177  1.0494  0.1161 -0.8900
  155DOPC    C218580  -0.053   2.659  15.994 -0.2499 -0.2665  0.5035
  155DOPC    HS18581  -0.163   2.660  15.980 -0.2364  0.4789  0.3919
  155DOPC   O2118582   0.021   2.574  15.909 -0.4637 -0.4840  1.5303
  155DOPC   C2118583  -0.053   2.464  15.869  0.6700 -1.4377  0.5271
  155DOPC   O2218584  -0.154   2.429  15.923  0.2121  0.2089  0.2045
  155DOPC   C2218585   0.024   2.401  15.750 -0.1105 -0.3971  0.0739
  155DOPC   H2R18586   0.129   2.393  15.785 -0.0967 -0.6353 -0.0212
  155DOPC   H2S18587   0.024   2.470  15.663  3.7974 -0.6481 -0.3205
  155DOPC    C318588  -0.001   2.805  15.966  0.6798  0.2356 -0.5488
  155DOPC    HX18589   0.108   2.796  15.986  0.0792 -2.6182  2.3986
  155DOPC    HY18590  -0.046   2.865  16.048 -0.2146 -1.3873  0.2168
  155DOPC   O3118591  -0.027   2.844  15.837  0.1748 -0.1510 -0.3836
  155DOPC   C3118592   0.034   2.958  15.814 -0.5660 -0.4265  0.3286
  155DOPC   O3218593   0.102   3.023  15.889 -0.5609 -0.4737 -0.4891
  155DOPC   C3218594   0.017   2.999  15.669  0.0675  0.6931  0.0466
  155DOPC   H2X18595   0.030   2.907  15.609  0.7279  1.7712 -1.5329
  155DOPC   H2Y18596  -0.088   3.034  15.662  0.5768  2.5304  0.9606
  155DOPC   C2318597  -0.039   2.271  15.699 -0.0261  0.5075  0.5543
  155DOPC   H3R18598  -0.133   2.299  15.646  1.2553  1.0495 -1.5617
  155DOPC   H3S18599  -0.071   2.202  15.779 -0.5497  0.8905  0.6866
  155DOPC   C2418600   0.050   2.185  15.608  0.5436  0.1009  0.0620
  155DOPC   H4R18601  -0.002   2.091  15.578  1.6532 -0.0572 -1.4847
  155DOPC   H4S18602   0.139   2.144  15.662  0.4520 -1.3448 -0.8273
  155DOPC   C2518603   0.102   2.264  15.492 -0.4371 -0.0194 -0.0174
  155DOPC   H5R18604   0.147   2.358  15.529 -3.0818  0.6496  1.7815
  155DOPC   H5S18605   0.017   2.291  15.425 -0.0044 -4.2207 -2.6832
  155DOPC   C2618606   0.196   2.195  15.394  0.2981 -0.5363 -0.0350
  155DOPC   H6R18607   0.144   2.105  15.356  0.8873 -0.8877 -0.0282
  155DOPC   H6S18608   0.287   2.147  15.437  0.3950  0.5965  1.1028
  155DOPC   C2718609   0.224   2.284  15.273  0.1010 -0.5071  0.3151
  155DOPC   H7R18610   0.285   2.374  15.294  1.0452 -0.9311 -0.4811
  155DOPC   H7S18611   0.124   2.315  15.238  0.6378  1.4776  0.4597
  155DOPC   C2818612   0.283   2.204  15.159  0.7480  0.2505 -0.1040
  155DOPC   H8R18613   0.278   2.261  15.063  0.2236  2.4622  1.1717
  155DOPC   H8S18614   0.212   2.120  15.146  1.2421 -0.7266  2.9327
  155DOPC   C2918615   0.421   2.139  15.180 -0.2356 -0.1189 -0.7052
  155DOPC   H9R18616   0.423   2.054  15.249  1.7358  1.1897  0.9777
  155DOPC  C21018617   0.534   2.168  15.114 -0.3764 -0.1809  0.3380
  155DOPC  H10R18618   0.630   2.117  15.136  0.3051  1.3241  0.9577
  155DOPC  C21118619   0.556   2.269  15.001  0.4877  0.3750  0.0771
  155DOPC  H11R18620   0.650   2.327  15.015  0.3412  0.8399 -0.7887
  155DOPC  H11S18621   0.469   2.338  15.001  0.6632  0.6061 -0.9216
  155DOPC  C21218622   0.566   2.187  14.870 -0.0684  0.1847 -1.0413
  155DOPC  H12R18623   0.462   2.156  14.844 -0.4426  0.2385  0.3011
  155DOPC  H12S18624   0.625   2.095  14.888  0.7311  0.4672 -2.1477
  155DOPC  C21318625   0.615   2.254  14.746 -0.5566 -0.4214 -0.0265
  155DOPC  H13R18626   0.725   2.270  14.745 -0.5849 -0.2280 -0.0658
  155DOPC  H13S18627   0.568   2.354  14.751 -1.0666 -0.7226  1.9630
  155DOPC  C21418628   0.581   2.168  14.624 -0.3171  0.1903 -1.3432
  155DOPC  H14R18629   0.470   2.175  14.623 -0.6805 -2.5513  1.8952
  155DOPC  H14S18630   0.622   2.069  14.652  0.0242  1.2265  2.4222
  155DOPC  C21518631   0.648   2.226  14.504 -0.4804 -0.3631 -0.1217
  155DOPC  H15R18632   0.754   2.246  14.531 -1.0784  1.3139  1.2030
  155DOPC  H15S18633   0.595   2.321  14.479  0.8172  0.6588  0.8203
  155DOPC  C21618634   0.653   2.136  14.380  0.2222  0.6098 -0.5422
  155DOPC  H16R18635   0.556   2.133  14.327  0.3493  0.8519 -0.7899
  155DOPC  H16S18636   0.682   2.031  14.404 -0.5603  0.8002  1.4648
  155DOPC  C21718637   0.760   2.174  14.280 -0.2119 -0.0533 -0.3852
  155DOPC  H17R18638   0.861   2.149  14.319 -0.0799  1.1581  0.1028
  155DOPC  H17S18639   0.756   2.284  14.266 -0.3186  0.0878  0.6373
  155DOPC  C21818640   0.749   2.114  14.134 -0.2033  0.5418  0.5523
  155DOPC  H18R18641   0.730   2.004  14.139  0.1516  0.3963 -0.9501
  155DOPC  H18S18642   0.846   2.130  14.082  0.1697 -2.5301  0.1123
  155DOPC  H18T18643   0.665   2.162  14.079 -0.1557 -0.8519 -0.8190
  155DOPC   C3318644   0.102   3.107  15.605  0.0398 -0.6966 -0.9538
  155DOPC   H3X18645   0.209   3.078  15.597  0.2326 -0.4480  0.4994
  155DOPC   H3Y18646   0.108   3.199  15.667  0.2987 -1.4803  0.2351
  155DOPC   C3418647   0.052   3.141  15.463  0.9143  0.5045  0.1360
  155DOPC   H4X18648  -0.055   3.172  15.460  0.5224 -0.8378 -0.7146
  155DOPC   H4Y18649   0.069   3.054  15.396  0.7440  0.0576  0.6611
  155DOPC   C3518650   0.134   3.249  15.393  0.0510  0.6007  0.6899
  155DOPC   H5X18651   0.239   3.214  15.384 -0.3807 -0.3112 -1.3948
  155DOPC   H5Y18652   0.135   3.341  15.456 -0.2329  1.3660 -0.3977
  155DOPC   C3618653   0.073   3.292  15.255 -0.2994  0.0692  0.3248
  155DOPC   H6X18654   0.153   3.323  15.185 -1.7953  2.5248 -0.4267
  155DOPC   H6Y18655   0.038   3.196  15.210  0.5389 -0.5038  0.8574
  155DOPC   C3718656  -0.037   3.399  15.274  0.3794 -0.2723  0.6805
  155DOPC   H7X18657  -0.103   3.361  15.355 -0.2198  1.6199  1.1379
  155DOPC   H7Y18658   0.004   3.495  15.312 -1.9249  0.5934  1.1610
  155DOPC   C3818659  -0.122   3.421  15.144  0.5562 -0.1299  0.4268
  155DOPC   H8X18660  -0.220   3.471  15.159 -0.4765 -1.9941  0.1811
  155DOPC   H8Y18661  -0.163   3.326  15.103  0.2570  1.2846 -2.8456
  155DOPC   C3918662  -0.035   3.488  15.041  0.3245  0.2150 -0.1087
  155DOPC   H9X18663  -0.005   3.590  15.066  0.1150  0.5043 -0.9950
  155DOPC  C31018664  -0.011   3.449  14.914 -0.2463  0.9594 -0.2523
  155DOPC  H10X18665   0.036   3.519  14.844  2.2433 -0.6347 -0.3356
  155DOPC  C31118666  -0.057   3.316  14.850  0.6762 -0.3182  0.3316
  155DOPC  H11X18667  -0.137   3.279  14.918 -1.2699  2.3417 -0.3613
  155DOPC  H11Y18668   0.021   3.237  14.849 -0.1183 -1.1200 -0.2909
  155DOPC  C31218669  -0.104   3.328  14.705  1.3355 -0.3286  0.7086
  155DOPC  H12X18670  -0.192   3.394  14.689  0.9697 -1.2269 -1.3093
  155DOPC  H12Y18671  -0.130   3.229  14.661  1.4509 -0.6093  1.2678
  155DOPC  C31318672  -0.001   3.383  14.605  0.1794  0.1956  0.5033
  155DOPC  H13X18673   0.015   3.493  14.605  1.0671  0.0966 -1.0064
  155DOPC  H13Y18674   0.100   3.342  14.626 -0.3239 -2.0565 -1.0757
  155DOPC  C31418675  -0.032   3.344  14.458  0.7443 -0.0826 -0.2419
  155DOPC  H14X18676   0.039   3.392  14.388  2.3158 -1.5002  0.3277
  155DOPC  H14Y18677  -0.037   3.234  14.443 -0.6785 -0.0419 -0.2658
  155DOPC  C31518678  -0.165   3.407  14.408  0.2928 -0.5312  0.2604
  155DOPC  H15X18679  -0.155   3.516  14.390 -2.5340 -0.2724 -0.2807
  155DOPC  H15Y18680  -0.240   3.408  14.490  1.3176 -0.4401  1.2059
  155DOPC  C31618681  -0.211   3.338  14.285  0.7001 -0.2199  0.0427
  155DOPC  H16X18682  -0.215   3.230  14.311  2.8213 -0.3475 -0.0373
  155DOPC  H16Y18683  -0.314   3.371  14.257  1.3936  2.1874  0.1546
  155DOPC  C31718684  -0.126   3.354  14.158 -0.2306  0.2097 -0.7139
  155DOPC  H17X18685  -0.025   3.316  14.181 -0.6928 -1.4850 -1.3289
  155DOPC  H17Y18686  -0.166   3.294  14.073  0.0200  1.1540 -1.5304
  155DOPC  C31818687  -0.128   3.506  14.108 -0.3348  0.7422 -0.1355
  155DOPC  H18X18688  -0.085   3.575  14.184  0.8457  2.0338 -1.8875
  155DOPC  H18Y18689  -0.070   3.516  14.013  0.1368  1.0484  0.1778
  155DOPC  H18Z18690  -0.235   3.526  14.087 -1.0092 -0.2781  2.1156
  156DOPC     N18691   4.493   6.218  16.126 -0.3401  0.3734 -0.6675
  156DOPC   C1218692   4.445   6.080  16.074  0.1686 -0.0227  0.4226
  156DOPC  H12A18693   4.408   6.025  16.159  1.6473  1.8144  2.3670
  156DOPC  H12B18694   4.533   6.033  16.033 -1.0903 -3.7030  1.5888
  156DOPC   C1318695   4.593   6.201  16.233 -0.3870  0.2126 -0.7691
  156DOPC  H13A18696   4.559   6.153  16.324 -0.2517  1.7398  0.1211
  156DOPC  H13B18697   4.677   6.145  16.194 -0.1282 -1.8679  2.4110
  156DOPC  H13C18698   4.633   6.295  16.265 -1.0710  0.3705 -0.3625
  156DOPC   C1418699   4.382   6.297  16.185 -0.5510 -0.1051 -0.4279
  156DOPC  H14A18700   4.298   6.305  16.117 -0.5830  0.6037 -0.3061
  156DOPC  H14B18701   4.351   6.246  16.275  2.1188  2.9988  2.4954
  156DOPC  H14C18702   4.416   6.396  16.212 -2.6604  0.3023  0.9712
  156DOPC   C1518703   4.558   6.293  16.020  0.1277 -0.4462 -0.5334
  156DOPC  H15A18704   4.617   6.372  16.063  0.3574 -0.8736 -0.0616
  156DOPC  H15B18705   4.480   6.332  15.956  0.5830  2.2478  0.4014
  156DOPC  H15C18706   4.625   6.229  15.966 -1.9711 -2.8606 -0.4432
  156DOPC   C1118707   4.331   6.083  15.965  0.7126 -0.9489  0.4966
  156DOPC  H11A18708   4.356   6.165  15.894 -0.0134 -1.1581 -0.0104
  156DOPC  H11B18709   4.358   5.987  15.916  3.2206  1.0327 -2.4630
  156DOPC     P18710   4.151   5.958  16.113  0.0343  0.4575 -0.0019
  156DOPC   O1318711   4.003   5.969  16.133  0.4069 -0.1387  0.4340
  156DOPC   O1418712   4.240   5.948  16.231 -0.1517 -0.4291 -0.7072
  156DOPC   O1218713   4.197   6.085  16.024 -0.3193 -0.0894 -0.1141
  156DOPC   O1118714   4.182   5.840  16.019  0.8493  0.0113 -0.3967
  156DOPC    C118715   4.114   5.817  15.893 -0.2098 -0.0104 -0.0859
  156DOPC    HA18716   4.111   5.910  15.833 -1.3005  0.7838  1.1567
  156DOPC    HB18717   4.010   5.780  15.907 -0.1859  0.5453  1.7232
  156DOPC    C218718   4.184   5.701  15.817 -0.2309  0.6018  0.6367
  156DOPC    HS18719   4.191   5.616  15.889  2.3022 -0.6753 -0.9380
  156DOPC   O2118720   4.316   5.734  15.781  0.3163  0.4065 -0.8594
  156DOPC   C2118721   4.394   5.657  15.710 -0.6414  0.4101  0.7617
  156DOPC   O2218722   4.369   5.538  15.688  0.4235  0.0296 -0.0472
  156DOPC   C2218723   4.515   5.727  15.659  0.1624  0.5184  0.5298
  156DOPC   H2R18724   4.589   5.713  15.740  0.2756 -0.4008  0.2771
  156DOPC   H2S18725   4.491   5.835  15.658  1.2403  0.9427  4.6563
  156DOPC    C318726   4.094   5.665  15.689 -0.0572  0.0260  0.0113
  156DOPC    HX18727   3.995   5.621  15.714 -0.5271  0.1944 -1.4250
  156DOPC    HY18728   4.149   5.597  15.621 -0.4269  1.0581 -1.3613
  156DOPC   O3118729   4.063   5.788  15.610  0.2822 -0.3085 -0.3619
  156DOPC   C3118730   3.937   5.833  15.608 -0.0410  0.6870 -0.4422
  156DOPC   O3218731   3.850   5.797  15.685 -0.0356  0.3564  0.2219
  156DOPC   C3218732   3.909   5.932  15.487  0.3438 -0.6378 -0.7594
  156DOPC   H2X18733   3.800   5.949  15.499  0.2504 -1.9249  0.5228
  156DOPC   H2Y18734   3.958   6.027  15.514  0.9503 -1.4715  1.2466
  156DOPC   C2318735   4.575   5.667  15.536 -0.1426 -0.1490  0.0051
  156DOPC   H3R18736   4.580   5.556  15.548 -0.0467 -0.3262 -1.5290
  156DOPC   H3S18737   4.677   5.709  15.529  0.2634 -1.0833  0.0800
  156DOPC   C2418738   4.499   5.686  15.403  0.4895 -0.2275 -0.4907
  156DOPC   H4R18739   4.490   5.797  15.400  3.4210  0.0734 -1.6906
  156DOPC   H4S18740   4.395   5.648  15.412 -0.0379  1.3447  0.3643
  156DOPC   C2518741   4.571   5.636  15.280  0.1703 -0.0667  0.4597
  156DOPC   H5R18742   4.566   5.525  15.274  1.1881 -0.1027  0.1025
  156DOPC   H5S18743   4.678   5.660  15.294  0.5484 -0.8688 -0.9170
  156DOPC   C2618744   4.519   5.696  15.150  0.5954 -0.6158  0.4171
  156DOPC   H6R18745   4.522   5.807  15.151  1.0512 -0.6315  0.8631
  156DOPC   H6S18746   4.412   5.665  15.144  0.7266 -1.3864  1.5757
  156DOPC   C2718747   4.601   5.634  15.045  0.1871  0.2873  0.3754
  156DOPC   H7R18748   4.615   5.526  15.070 -1.7790  0.0902  0.7965
  156DOPC   H7S18749   4.704   5.673  15.057  0.5640 -0.3900 -0.5392
  156DOPC   C2818750   4.565   5.636  14.893  0.0605 -0.1276 -0.5746
  156DOPC   H8R18751   4.470   5.579  14.892 -0.1185  0.1315 -2.1723
  156DOPC   H8S18752   4.629   5.578  14.823 -0.7617 -0.3597 -1.1524
  156DOPC   C2918753   4.537   5.774  14.833 -0.3126  0.5561  0.0044
  156DOPC   H9R18754   4.585   5.865  14.872  1.8496 -0.6283  0.2713
  156DOPC  C21018755   4.433   5.793  14.754 -0.4442  0.2147  0.3213
  156DOPC  H10R18756   4.402   5.898  14.743  1.1962  0.6823 -0.1441
  156DOPC  C21118757   4.357   5.700  14.661 -0.1219 -0.4656  0.4663
  156DOPC  H11R18758   4.313   5.759  14.577  1.5711 -1.8215 -1.4695
  156DOPC  H11S18759   4.268   5.657  14.712 -1.5864 -0.4531 -1.9146
  156DOPC  C21218760   4.438   5.589  14.599  0.2640  0.3729 -0.3429
  156DOPC  H12R18761   4.370   5.534  14.531  0.1255  0.1584 -0.0370
  156DOPC  H12S18762   4.452   5.510  14.676 -3.5405  0.4038  0.5490
  156DOPC  C21318763   4.559   5.630  14.515  0.2674  0.0937  0.2776
  156DOPC  H13R18764   4.615   5.544  14.473 -0.7452  0.1352 -1.2585
  156DOPC  H13S18765   4.616   5.682  14.594 -0.5978 -0.4018  1.2542
  156DOPC  C21418766   4.532   5.743  14.422 -0.6738  0.1056 -0.6506
  156DOPC  H14R18767   4.513   5.830  14.489 -0.5106 -0.1894 -0.2182
  156DOPC  H14S18768   4.440   5.741  14.360  0.0827 -1.0577 -1.7814
  156DOPC  C21518769   4.643   5.775  14.328 -1.0374  0.4763 -0.1351
  156DOPC  H15R18770   4.697   5.690  14.281 -2.7038  0.8851 -3.0277
  156DOPC  H15S18771   4.727   5.829  14.376 -1.2087 -0.5405  1.3953
  156DOPC  C21618772   4.595   5.862  14.210  0.1131  0.3716 -0.8447
  156DOPC  H16R18773   4.513   5.928  14.246  0.5606  0.4944 -0.0423
  156DOPC  H16S18774   4.536   5.799  14.139 -0.8417  0.6724 -0.3467
  156DOPC  C21718775   4.693   5.934  14.121 -0.1717 -0.2381  0.0886
  156DOPC  H17R18776   4.768   5.872  14.067 -0.5451  0.5237 -1.3676
  156DOPC  H17S18777   4.744   6.024  14.160 -0.1618 -0.7623  1.3294
  156DOPC  C21818778   4.622   6.005  14.000 -0.2477  0.1993  0.3003
  156DOPC  H18R18779   4.685   6.067  13.933 -1.9465  0.2628 -1.3123
  156DOPC  H18S18780   4.539   6.069  14.038 -1.9969 -0.8919 -1.4766
  156DOPC  H18T18781   4.578   5.925  13.937  4.0383  0.9277 -4.2181
  156DOPC   C3318782   3.930   5.883  15.344  0.3424  0.4820  0.0594
  156DOPC   H3X18783   3.872   5.952  15.279 -1.2470  0.2793  1.1929
  156DOPC   H3Y18784   3.887   5.780  15.347  1.4313  0.0251  0.8460
  156DOPC   C3418785   4.076   5.885  15.314 -0.2626 -0.1231  0.0333
  156DOPC   H4X18786   4.127   5.817  15.385 -2.1461 -0.2768  1.3204
  156DOPC   H4Y18787   4.116   5.988  15.324 -0.3634 -0.2749  2.7691
  156DOPC   C3518788   4.116   5.828  15.174  0.3446  0.4839 -0.1142
  156DOPC   H5X18789   4.055   5.743  15.137  1.4242 -0.7972  0.9533
  156DOPC   H5Y18790   4.220   5.790  15.177  0.6049  1.2412  1.0577
  156DOPC   C3618791   4.115   5.928  15.058  0.0592 -0.3438  0.0390
  156DOPC   H6X18792   4.148   5.870  14.969 -0.1520  0.5789 -0.6561
  156DOPC   H6Y18793   4.010   5.964  15.050  0.7497  1.4904 -1.7331
  156DOPC   C3718794   4.198   6.054  15.076  0.0103  0.4131 -0.2368
  156DOPC   H7X18795   4.152   6.120  15.152 -2.3507  0.7120 -1.8147
  156DOPC   H7Y18796   4.304   6.041  15.105  0.3254  0.0204 -1.4954
  156DOPC   C3818797   4.205   6.127  14.937 -0.3900  0.5006 -0.6219
  156DOPC   H8X18798   4.249   6.054  14.867 -1.3992 -0.3558 -0.3867
  156DOPC   H8Y18799   4.273   6.215  14.948  1.9397 -1.2934  0.2072
  156DOPC   C3918800   4.067   6.173  14.898  0.1156  0.3489 -0.5759
  156DOPC   H9X18801   4.030   6.251  14.965  2.2670 -0.2237  1.4009
  156DOPC  C31018802   3.997   6.130  14.791  0.2440 -0.0170  0.2301
  156DOPC  H10X18803   3.912   6.194  14.764  0.3531 -0.9173 -2.5260
  156DOPC  C31118804   4.024   6.021  14.679 -0.1162 -0.2373  0.2710
  156DOPC  H11X18805   3.962   5.929  14.684  2.0369 -1.7275  1.1288
  156DOPC  H11Y18806   4.128   5.987  14.699  1.2959  2.3897 -1.9959
  156DOPC  C31218807   4.018   6.068  14.530  0.6566 -0.4381 -0.3668
  156DOPC  H12X18808   4.065   6.169  14.535  1.2643 -0.7433  0.1682
  156DOPC  H12Y18809   3.916   6.088  14.493  0.1879 -1.7959  0.1426
  156DOPC  C31318810   4.091   5.973  14.436 -0.3332  0.1257  0.0183
  156DOPC  H13X18811   4.178   5.935  14.495 -2.1781 -0.9584  2.1808
  156DOPC  H13Y18812   4.035   5.879  14.420  1.3414 -0.8537 -0.3370
  156DOPC  C31418813   4.118   6.039  14.298  0.0333  0.4063  0.5644
  156DOPC  H14X18814   4.161   6.138  14.323  1.5023  0.2723 -1.2281
  156DOPC  H14Y18815   4.195   5.978  14.246  1.4708  1.6781  1.1318
  156DOPC  C31518816   3.991   6.059  14.213  0.0503 -0.3052 -0.8215
  156DOPC  H15X18817   3.913   6.122  14.260  1.1825 -0.6699  1.6737
  156DOPC  H15Y18818   3.943   5.959  14.217 -0.5132 -0.0038  1.7630
  156DOPC  C31618819   4.028   6.115  14.070  0.1436  0.1952  0.0009
  156DOPC  H16X18820   4.061   6.219  14.090 -0.6005  0.8497 -1.9574
  156DOPC  H16Y18821   4.115   6.057  14.034 -1.9075 -1.5229 -2.5522
  156DOPC  C31718822   3.916   6.111  13.973  0.6830  0.6558  0.1654
  156DOPC  H17X18823   3.818   6.146  14.011 -0.5335 -1.7956 -0.4541
  156DOPC  H17Y18824   3.946   6.172  13.885  0.2278 -0.9421 -1.1558
  156DOPC  C31818825   3.890   5.972  13.918 -0.1543  0.8891 -0.0233
  156DOPC  H18X18826   3.823   5.968  13.829  1.8987 -0.9609 -1.5934
  156DOPC  H18Y18827   3.984   5.916  13.900 -0.0112  0.6881  1.2602
  156DOPC  H18Z18828   3.828   5.915  13.990 -0.9074 -1.1829 -2.1811
  157DOPC     N18829   4.185   1.510  15.862 -0.5966 -0.0734 -0.3323
  157DOPC   C1218830   4.232   1.547  16.005 -0.2135 -0.0526  0.0395
  157DOPC  H12A18831   4.335   1.513  16.009 -0.5428 -1.0372  3.4490
  157DOPC  H12B18832   4.179   1.490  16.080 -0.6457 -1.0187 -0.9732
  157DOPC   C1318833   4.274   1.564  15.757  0.4572  0.4258 -0.8101
  157DOPC  H13A18834   4.280   1.671  15.770 -2.0627  0.5746 -0.3197
  157DOPC  H13B18835   4.375   1.531  15.775  0.1359 -0.0482  0.1759
  157DOPC  H13C18836   4.252   1.525  15.659  0.0271 -0.3354 -0.4173
  157DOPC   C1418837   4.041   1.536  15.844 -0.0135 -0.0789 -0.0274
  157DOPC  H14A18838   3.974   1.468  15.894 -1.2518  1.1191  0.0234
  157DOPC  H14B18839   3.997   1.624  15.890 -2.2247 -0.8395 -0.5767
  157DOPC  H14C18840   4.033   1.536  15.736  0.2212  0.1141 -0.0439
  157DOPC   C1518841   4.195   1.357  15.846  0.5562 -0.2412  0.4861
  157DOPC  H15A18842   4.293   1.320  15.874  0.4306 -0.5878  0.4776
  157DOPC  H15B18843   4.178   1.327  15.744  1.3621 -0.7013  0.4714
  157DOPC  H15C18844   4.122   1.308  15.909 -0.1679  0.9066  0.5637
  157DOPC   C1118845   4.211   1.691  16.053  0.1668  0.4488 -0.2114
  157DOPC  H11A18846   4.280   1.717  16.136  1.7547  2.2124 -1.9602
  157DOPC  H11B18847   4.234   1.758  15.967 -1.7911  1.1772 -0.2207
  157DOPC     P18848   3.982   1.820  16.064 -0.3142 -0.4044  0.0277
  157DOPC   O1318849   3.927   1.874  16.190  0.4856 -0.3752 -0.2646
  157DOPC   O1418850   3.878   1.774  15.971  0.0653  0.3168  0.4394
  157DOPC   O1218851   4.079   1.709  16.101  0.2995  0.0677  0.0646
  157DOPC   O1118852   4.071   1.930  15.995 -0.5328  0.4554  0.0011
  157DOPC    C118853   4.028   2.004  15.880  0.1972  0.1278 -0.4455
  157DOPC    HA18854   4.044   2.109  15.914  2.9997 -0.2800 -0.2909
  157DOPC    HB18855   3.919   1.995  15.858 -0.4038  1.8333  1.4627
  157DOPC    C218856   4.103   1.967  15.753  0.2223 -0.2605 -0.4619
  157DOPC    HS18857   4.110   1.857  15.765 -2.2799 -0.2117  2.6850
  157DOPC   O2118858   4.220   2.051  15.743  0.6665  0.2016 -0.1491
  157DOPC   C2118859   4.327   1.995  15.703  0.2530 -0.0956  0.6935
  157DOPC   O2218860   4.342   1.872  15.676  0.4528 -0.1051  0.3305
  157DOPC   C2218861   4.437   2.108  15.684  0.3803 -0.2549 -0.3452
  157DOPC   H2R18862   4.503   2.120  15.773 -0.5631  1.1107  0.2048
  157DOPC   H2S18863   4.390   2.208  15.672  1.4947  0.3016 -0.2938
  157DOPC    C318864   4.014   2.001  15.631  0.1762  0.4343  0.0666
  157DOPC    HX18865   4.016   2.112  15.627  2.4608  0.4797  1.0397
  157DOPC    HY18866   3.907   1.971  15.644  0.0368  0.8927 -0.0227
  157DOPC   O3118867   4.079   1.949  15.508  0.2855  0.4123  0.4059
  157DOPC   C3118868   4.075   1.818  15.479 -0.6077 -0.4019  0.6006
  157DOPC   O3218869   4.041   1.730  15.557  0.1697 -0.0588  0.1136
  157DOPC   C3218870   4.127   1.804  15.332 -0.0836  0.2505  0.3941
  157DOPC   H2X18871   4.041   1.787  15.263 -0.2404 -2.1406  1.0983
  157DOPC   H2Y18872   4.183   1.898  15.311  0.9245 -0.1363  1.2468
  157DOPC   C2318873   4.510   2.079  15.554  0.8832 -0.2214 -0.2175
  157DOPC   H3R18874   4.555   1.978  15.556 -1.9048 -1.5774  1.7658
  157DOPC   H3S18875   4.593   2.152  15.554  0.0641  0.8506  2.4559
  157DOPC   C2418876   4.436   2.114  15.419  0.0984  0.8189  0.5708
  157DOPC   H4R18877   4.425   2.223  15.400  1.2759  0.7045 -0.9900
  157DOPC   H4S18878   4.337   2.063  15.425 -0.2241  1.4980  1.2376
  157DOPC   C2518879   4.517   2.050  15.298  0.2165  0.2077  0.0621
  157DOPC   H5R18880   4.556   1.950  15.326  1.4166  1.0065  1.3535
  157DOPC   H5S18881   4.597   2.126  15.288 -2.3211  2.8508 -2.5412
  157DOPC   C2618882   4.436   2.047  15.166 -0.2308  0.4740  0.3608
  157DOPC   H6R18883   4.392   2.149  15.158 -0.7062  0.1565 -1.9927
  157DOPC   H6S18884   4.357   1.969  15.169 -1.3280  1.1859 -3.6145
  157DOPC   C2718885   4.529   2.016  15.044 -0.3666  0.2174  0.0442
  157DOPC   H7R18886   4.581   1.921  15.070 -0.4415 -0.1901 -1.2578
  157DOPC   H7S18887   4.609   2.092  15.028 -0.4047  1.0158  2.9801
  157DOPC   C2818888   4.447   1.991  14.911 -0.1060 -0.0194  0.0895
  157DOPC   H8R18889   4.377   2.075  14.893 -0.6214 -0.4186  0.1935
  157DOPC   H8S18890   4.376   1.906  14.922 -0.8934  0.5501 -0.4961
  157DOPC   C2918891   4.533   1.961  14.788  0.6492 -0.3115  0.5277
  157DOPC   H9R18892   4.628   1.913  14.815  0.9257 -0.0336  0.0574
  157DOPC  C21018893   4.501   1.994  14.660 -1.1589  0.4956 -0.1660
  157DOPC  H10R18894   4.582   1.968  14.591  2.3473  0.7959  3.4614
  157DOPC  C21118895   4.374   2.044  14.601 -1.3780 -0.4710 -0.2491
  157DOPC  H11R18896   4.324   2.112  14.672 -0.3175  0.2867 -0.1922
  157DOPC  H11S18897   4.312   1.958  14.567  1.4180 -2.4455 -0.7964
  157DOPC  C21218898   4.398   2.134  14.479  0.0656 -0.2861  0.1406
  157DOPC  H12R18899   4.472   2.216  14.494 -0.1460 -0.1342  0.3843
  157DOPC  H12S18900   4.305   2.194  14.467 -0.2239 -0.8858 -0.7091
  157DOPC  C21318901   4.419   2.062  14.358 -0.4837  0.5238 -0.0916
  157DOPC  H13R18902   4.332   1.996  14.336  1.0576 -1.1166 -1.6363
  157DOPC  H13S18903   4.510   1.999  14.367 -1.7477 -1.4903 -0.8303
  157DOPC  C21418904   4.427   2.154  14.232  0.0842  0.0790  0.6833
  157DOPC  H14R18905   4.510   2.227  14.245  0.3888 -0.2992  0.9003
  157DOPC  H14S18906   4.325   2.194  14.217 -0.8418 -2.5154 -0.4955
  157DOPC  C21518907   4.458   2.078  14.100 -0.7350  0.3624 -0.8232
  157DOPC  H15R18908   4.375   2.006  14.091 -0.0214 -1.2083  3.0997
  157DOPC  H15S18909   4.549   2.015  14.110 -0.5152  0.8895  1.0261
  157DOPC  C21618910   4.487   2.180  13.986  0.8177  0.1409 -0.7779
  157DOPC  H16R18911   4.558   2.257  14.020  1.7229 -0.8889 -0.2838
  157DOPC  H16S18912   4.390   2.232  13.967  0.3206  0.1284  1.5023
  157DOPC  C21718913   4.541   2.111  13.859 -0.1202 -0.0568  0.4507
  157DOPC  H17R18914   4.560   2.003  13.877  0.1625 -0.3585 -1.5022
  157DOPC  H17S18915   4.636   2.160  13.833 -0.0741  1.3448  2.9092
  157DOPC  C21818916   4.449   2.135  13.733  0.1968 -0.6981  0.0781
  157DOPC  H18R18917   4.440   2.242  13.704 -2.2055 -0.8144  0.1810
  157DOPC  H18S18918   4.346   2.096  13.752  0.9164 -1.7419  2.1452
  157DOPC  H18T18919   4.488   2.087  13.641 -1.2392 -0.3001 -0.7675
  157DOPC   C3318920   4.229   1.679  15.331 -0.1327  0.2110 -0.0614
  157DOPC   H3X18921   4.184   1.582  15.360 -1.9732  0.7505 -0.9477
  157DOPC   H3Y18922   4.307   1.709  15.404 -1.1159  2.1106  0.2738
  157DOPC   C3418923   4.286   1.671  15.189  0.5874 -0.0592  0.3794
  157DOPC   H4X18924   4.386   1.621  15.190  0.2443 -0.7623  2.3278
  157DOPC   H4Y18925   4.318   1.772  15.155  1.9174 -0.3749  0.6394
  157DOPC   C3518926   4.184   1.610  15.085 -0.8812  0.0419 -0.1108
  157DOPC   H5X18927   4.086   1.576  15.124 -1.1704  2.0632  1.1052
  157DOPC   H5Y18928   4.230   1.523  15.034 -2.7323 -0.9084 -0.2540
  157DOPC   C3618929   4.158   1.707  14.971  0.2840  0.0766 -0.7362
  157DOPC   H6X18930   4.114   1.802  15.009  2.2769  0.0641  1.9316
  157DOPC   H6Y18931   4.256   1.747  14.937 -0.9430  1.5317 -2.7837
  157DOPC   C3718932   4.079   1.649  14.854 -0.0961  0.2743  0.7153
  157DOPC   H7X18933   3.989   1.595  14.891  0.6432 -0.3281  1.6786
  157DOPC   H7Y18934   4.052   1.735  14.789  1.7996  1.3309  1.2481
  157DOPC   C3818935   4.160   1.549  14.767  0.0055  0.4796  0.7480
  157DOPC   H8X18936   4.089   1.515  14.689  1.3735 -0.7336 -0.0069
  157DOPC   H8Y18937   4.179   1.456  14.824 -0.7639 -1.0431 -1.3897
  157DOPC   C3918938   4.282   1.600  14.695  0.0286 -0.9297 -0.3782
  157DOPC   H9X18939   4.372   1.580  14.754  0.9903  2.5125 -0.4638
  157DOPC  C31018940   4.287   1.663  14.573 -0.3494  0.4400 -0.0127
  157DOPC  H10X18941   4.384   1.696  14.532  0.3601 -1.0513  0.3925
  157DOPC  C31118942   4.178   1.705  14.482 -0.2124 -0.5186  0.2126
  157DOPC  H11X18943   4.195   1.799  14.425  1.0461 -1.0997 -0.4036
  157DOPC  H11Y18944   4.079   1.711  14.533 -1.0525  0.2508 -1.4171
  157DOPC  C31218945   4.167   1.612  14.354  0.6900 -0.3358 -0.1912
  157DOPC  H12X18946   4.157   1.505  14.383  1.0473 -0.1653  0.5946
  157DOPC  H12Y18947   4.262   1.628  14.300  1.1554  0.2642  0.7893
  157DOPC  C31318948   4.053   1.658  14.255 -0.0434 -0.7514  0.1776
  157DOPC  H13X18949   3.956   1.636  14.304 -0.9624  0.1763 -1.1721
  157DOPC  H13Y18950   4.065   1.767  14.238 -0.2291 -1.1507 -3.0864
  157DOPC  C31418951   4.068   1.599  14.112 -0.4211  0.0153 -0.2027
  157DOPC  H14X18952   4.091   1.491  14.113  1.8166  0.3854 -2.2534
  157DOPC  H14Y18953   3.970   1.614  14.061  0.1511 -0.6030 -1.5343
  157DOPC  C31518954   4.180   1.663  14.033 -0.1426 -0.0354  0.5431
  157DOPC  H15X18955   4.278   1.627  14.070 -0.2605  0.6734  1.6054
  157DOPC  H15Y18956   4.171   1.774  14.033 -2.5275 -0.1751 -0.0182
  157DOPC  C31618957   4.176   1.621  13.887  0.3911  0.3726 -0.2156
  157DOPC  H16X18958   4.180   1.511  13.871 -0.9166  0.6828 -3.5209
  157DOPC  H16Y18959   4.086   1.666  13.840  0.5099  2.3706  1.3365
  157DOPC  C31718960   4.284   1.684  13.812 -0.1105 -0.2630  0.4373
  157DOPC  H17X18961   4.288   1.793  13.833  0.3887 -0.0509 -0.6711
  157DOPC  H17Y18962   4.380   1.643  13.851 -1.5781 -2.9287  1.4673
  157DOPC  C31818963   4.259   1.649  13.659  0.3385 -0.1526  0.0609
  157DOPC  H18X18964   4.183   1.715  13.613 -0.2280 -1.4690 -0.9686
  157DOPC  H18Y18965   4.359   1.647  13.609  2.1151  1.2571  3.2761
  157DOPC  H18Z18966   4.221   1.545  13.645  1.1737 -0.3449 -0.9521
  158DOPC     N18967   1.898   1.225  16.277 -0.1311 -0.5161  0.1315
  158DOPC   C1218968   1.994   1.199  16.159  0.1445 -0.1718  1.0817
  158DOPC  H12A18969   2.038   1.101  16.165 -0.4570 -0.3789  2.8133
  158DOPC  H12B18970   2.076   1.265  16.179 -0.2032  1.2416 -1.7718
  158DOPC   C1318971   1.780   1.155  16.258 -0.3080  0.0559  0.1536
  158DOPC  H13A18972   1.707   1.197  16.191 -0.7683 -0.7698  0.1215
  158DOPC  H13B18973   1.794   1.053  16.226  0.1727  0.5477 -1.2910
  158DOPC  H13C18974   1.730   1.143  16.353  1.4124 -0.3479  1.0509
  158DOPC   C1418975   1.860   1.367  16.301 -0.2392  0.0538  0.6565
  158DOPC  H14A18976   1.944   1.431  16.324  0.3357  0.1296 -1.4791
  158DOPC  H14B18977   1.800   1.408  16.221  1.6831  1.0021 -0.3696
  158DOPC  H14C18978   1.790   1.378  16.382  1.1609  1.6050  1.7303
  158DOPC   C1518979   1.968   1.171  16.398 -0.7069 -0.0003  0.2673
  158DOPC  H15A18980   1.914   1.188  16.490  1.2683 -1.4325  1.7893
  158DOPC  H15B18981   2.061   1.224  16.397 -1.4531  1.6249 -3.8264
  158DOPC  H15C18982   1.986   1.066  16.375  0.2429  0.4814 -1.3510
  158DOPC   C1118983   1.948   1.225  16.014  0.0133  0.1342  0.2490
  158DOPC  H11A18984   1.905   1.327  16.023 -0.4269 -0.1795  2.3075
  158DOPC  H11B18985   2.039   1.238  15.952  0.1445  0.0197  0.4169
  158DOPC     P18986   1.892   1.031  15.863  0.7655  0.0172  0.0418
  158DOPC   O1318987   1.778   0.932  15.844 -0.5549  0.1311  0.5047
  158DOPC   O1418988   2.026   0.974  15.904  0.2085  0.4302  0.1423
  158DOPC   O1218989   1.845   1.144  15.961  0.2402 -0.1440 -0.1720
  158DOPC   O1118990   1.908   1.097  15.725  0.0996 -0.4155 -0.1081
  158DOPC    C118991   1.876   1.233  15.691  0.0065 -0.4378 -0.2313
  158DOPC    HA18992   1.956   1.301  15.730  0.7875 -0.9475 -0.9094
  158DOPC    HB18993   1.786   1.275  15.741  0.8791  0.9103  0.2596
  158DOPC    C218994   1.871   1.253  15.537  0.0561 -0.8846 -0.3799
  158DOPC    HS18995   1.812   1.173  15.488  3.1071 -2.6111 -1.5174
  158DOPC   O2118996   2.004   1.234  15.486  0.4606 -0.6927  0.2334
  158DOPC   C2118997   2.025   1.111  15.436 -0.3853 -0.4248  0.2105
  158DOPC   O2218998   1.938   1.026  15.423 -0.6476  0.0776  0.1031
  158DOPC   C2218999   2.173   1.094  15.399 -0.1258 -0.1092 -0.3703
  158DOPC   H2R19000   2.235   1.074  15.488 -0.0683 -0.7985 -0.5593
  158DOPC   H2S19001   2.200   1.191  15.352  3.1602 -1.2669 -1.1339
  158DOPC    C319002   1.822   1.392  15.493 -0.3878 -0.0255  0.5722
  158DOPC    HX19003   1.902   1.465  15.517 -0.4790  0.0995  0.4968
  158DOPC    HY19004   1.734   1.435  15.544 -0.1275  1.0977  0.1026
  158DOPC   O3119005   1.803   1.394  15.349 -0.5367 -0.0994 -0.4177
  158DOPC   C3119006   1.680   1.389  15.295  0.5564  0.1145 -0.5382
  158DOPC   O3219007   1.573   1.389  15.346 -0.2743 -0.1183 -0.4719
  158DOPC   C3219008   1.701   1.382  15.138  0.1125 -0.0887  0.0711
  158DOPC   H2X19009   1.771   1.464  15.112 -0.6108 -0.0402 -1.8503
  158DOPC   H2Y19010   1.755   1.288  15.114  1.2075 -0.3778  3.2416
  158DOPC   C2319011   2.189   0.982  15.292  0.4339 -0.0054  0.1673
  158DOPC   H3R19012   2.173   0.888  15.349 -0.6551  0.6420  0.9679
  158DOPC   H3S19013   2.297   0.979  15.265  1.0267  1.3425  2.1693
  158DOPC   C2419014   2.107   0.981  15.163 -0.0463 -0.1098  0.3266
  158DOPC   H4R19015   2.001   0.953  15.181 -0.9773  0.7607 -3.0986
  158DOPC   H4S19016   2.153   0.909  15.092 -0.5138  1.1360 -1.3034
  158DOPC   C2519017   2.116   1.116  15.089 -0.2271  0.3863  0.2862
  158DOPC   H5R19018   2.221   1.153  15.079 -0.1725  0.0830 -0.2747
  158DOPC   H5S19019   2.067   1.196  15.149 -0.1178 -0.0682  0.9939
  158DOPC   C2619020   2.048   1.119  14.954 -0.4119  0.0535  0.1298
  158DOPC   H6R19021   2.014   1.224  14.942  1.0790  1.0322  3.3666
  158DOPC   H6S19022   1.954   1.063  14.969 -1.5528  1.5454 -1.1842
  158DOPC   C2719023   2.130   1.063  14.831  0.5667 -0.5028 -0.6620
  158DOPC   H7R19024   2.164   0.962  14.861 -1.7164 -0.9264  0.8347
  158DOPC   H7S19025   2.224   1.119  14.813  1.1702  0.2351  3.5812
  158DOPC   C2819026   2.039   1.040  14.711 -0.0109  0.1474 -0.2364
  158DOPC   H8R19027   1.957   0.975  14.747 -0.3408  1.4219  1.5036
  158DOPC   H8S19028   2.091   0.972  14.641 -1.6476 -1.7140  0.2955
  158DOPC   C2919029   1.980   1.158  14.639 -0.1915  0.2279  0.1652
  158DOPC   H9R19030   1.898   1.204  14.696  0.5858  2.1432 -0.1685
  158DOPC  C21019031   1.990   1.201  14.509 -0.3392 -0.1824  0.5941
  158DOPC  H10R19032   1.916   1.276  14.478 -1.4069 -1.0565  0.9276
  158DOPC  C21119033   2.087   1.144  14.406  0.0683 -0.2177 -0.1403
  158DOPC  H11R19034   2.150   1.067  14.456  1.2903  0.1609 -1.0486
  158DOPC  H11S19035   2.156   1.219  14.362 -0.3950  0.8199  0.8258
  158DOPC  C21219036   2.012   1.076  14.289  0.5367  0.2635 -0.0389
  158DOPC  H12R19037   1.940   1.005  14.336  1.5203 -1.0759 -0.4938
  158DOPC  H12S19038   2.082   1.016  14.226 -0.6506 -1.4195  0.1767
  158DOPC  C21319039   1.942   1.163  14.187 -0.3753 -0.5462 -0.0578
  158DOPC  H13R19040   2.011   1.245  14.158 -0.2034 -0.5334  0.3765
  158DOPC  H13S19041   1.857   1.207  14.243 -2.2500 -3.0805 -0.7431
  158DOPC  C21419042   1.892   1.095  14.069 -0.3777  0.1750 -0.0286
  158DOPC  H14R19043   1.824   1.011  14.097  0.1449 -1.4380 -3.1214
  158DOPC  H14S19044   1.980   1.052  14.017 -0.2221 -1.1684  1.2719
  158DOPC  C21519045   1.838   1.181  13.965  0.4012  0.2004 -0.6831
  158DOPC  H15R19046   1.910   1.254  13.921  0.7592 -1.7419 -3.5652
  158DOPC  H15S19047   1.754   1.239  14.008 -2.9147 -1.7208 -4.0489
  158DOPC  C21619048   1.768   1.110  13.850 -0.0493  0.6042  0.2648
  158DOPC  H16R19049   1.678   1.058  13.890  0.4542 -1.1689 -0.7924
  158DOPC  H16S19050   1.830   1.030  13.805  0.8916  2.2640 -1.5153
  158DOPC  C21719051   1.712   1.203  13.744  0.0362 -0.1731 -0.3903
  158DOPC  H17R19052   1.643   1.278  13.787  1.4091  2.5742 -2.5807
  158DOPC  H17S19053   1.646   1.139  13.681  0.3856 -1.2693  0.3302
  158DOPC  C21819054   1.805   1.286  13.655 -0.4442 -0.1418  0.1659
  158DOPC  H18R19055   1.878   1.232  13.591  0.5700  0.0832  1.1008
  158DOPC  H18S19056   1.854   1.360  13.721 -1.2510  1.7924 -1.2972
  158DOPC  H18T19057   1.739   1.328  13.576  2.2582 -0.3207 -2.3503
  158DOPC   C3319058   1.570   1.406  15.060  0.2528 -0.8243 -0.0755
  158DOPC   H3X19059   1.537   1.506  15.095  0.5734 -0.5471 -0.5485
  158DOPC   H3Y19060   1.493   1.335  15.099 -1.2589  0.9578  0.3231
  158DOPC   C3419061   1.581   1.397  14.909 -0.3498  0.9568 -0.0553
  158DOPC   H4X19062   1.482   1.377  14.862 -0.0664 -1.7409  0.3243
  158DOPC   H4Y19063   1.633   1.303  14.882 -2.1389  0.3582 -1.6411
  158DOPC   C3519064   1.653   1.523  14.852  0.5104 -0.1987  0.2808
  158DOPC   H5X19065   1.761   1.511  14.876  1.1988  1.5705 -1.6853
  158DOPC   H5Y19066   1.621   1.615  14.905  2.1102  0.5704 -0.0352
  158DOPC   C3619067   1.634   1.551  14.705  0.3146 -0.1058 -0.1686
  158DOPC   H6X19068   1.526   1.559  14.683 -0.2500 -0.9027  2.0026
  158DOPC   H6Y19069   1.679   1.652  14.695 -1.7474  1.0451  1.3755
  158DOPC   C3719070   1.702   1.454  14.609 -0.1754  0.0396 -0.3121
  158DOPC   H7X19071   1.810   1.475  14.627 -0.7717  2.3539  0.9320
  158DOPC   H7Y19072   1.688   1.351  14.649 -0.7476 -0.5129 -1.8517
  158DOPC   C3819073   1.663   1.455  14.459  0.1339 -0.7890 -0.3245
  158DOPC   H8X19074   1.725   1.375  14.413  2.2777  0.6838 -0.1113
  158DOPC   H8Y19075   1.703   1.550  14.417  0.3496 -1.0824 -0.7945
  158DOPC   C3919076   1.516   1.438  14.427  0.0982 -0.3240  0.3087
  158DOPC   H9X19077   1.482   1.336  14.450 -0.4577 -0.5921 -1.5072
  158DOPC  C31019078   1.423   1.535  14.393 -0.4870 -0.3034  0.1818
  158DOPC  H10X19079   1.320   1.498  14.392 -0.9757  1.0067 -1.3054
  158DOPC  C31119080   1.450   1.684  14.388  0.3955 -0.2190  0.5317
  158DOPC  H11X19081   1.538   1.732  14.435 -0.7101  1.6172  0.8338
  158DOPC  H11Y19082   1.366   1.729  14.446 -0.8393  0.0042 -1.3318
  158DOPC  C31219083   1.451   1.742  14.246 -0.5044 -0.5019 -0.0027
  158DOPC  H12X19084   1.489   1.846  14.232  0.8760 -0.9929 -0.0579
  158DOPC  H12Y19085   1.345   1.751  14.212 -1.0400  0.5073  1.7881
  158DOPC  C31319086   1.524   1.664  14.140 -0.0470 -0.3646  0.4816
  158DOPC  H13X19087   1.523   1.555  14.163  0.6296 -0.5263 -0.2161
  158DOPC  H13Y19088   1.476   1.686  14.043  2.8052  0.5544 -0.8313
  158DOPC  C31419089   1.675   1.707  14.131  0.4521 -0.3227  0.7523
  158DOPC  H14X19090   1.676   1.803  14.075  0.4946 -0.2929  0.8030
  158DOPC  H14Y19091   1.697   1.716  14.240  2.7063  0.7422  0.2667
  158DOPC  C31519092   1.768   1.598  14.081 -0.2015  0.2316  0.2040
  158DOPC  H15X19093   1.744   1.498  14.123  0.4479  0.6954  1.7222
  158DOPC  H15Y19094   1.874   1.625  14.100  0.3915 -1.3301 -0.6552
  158DOPC  C31619095   1.751   1.577  13.930 -0.8120 -0.0044  0.6336
  158DOPC  H16X19096   1.815   1.490  13.903  2.2213  2.1266  0.3759
  158DOPC  H16Y19097   1.647   1.552  13.901 -0.6879  0.8296 -0.6171
  158DOPC  C31719098   1.801   1.693  13.841  0.6351 -0.2804  0.3744
  158DOPC  H17X19099   1.731   1.774  13.869 -1.0867 -2.3697  2.5010
  158DOPC  H17Y19100   1.909   1.718  13.854  0.0489  2.7530  0.1352
  158DOPC  C31819101   1.779   1.664  13.689 -0.1218 -0.1120  0.1021
  158DOPC  H18X19102   1.675   1.632  13.664  0.1771 -1.1123  0.0967
  158DOPC  H18Y19103   1.812   1.752  13.629  0.1700  0.8106  1.5462
  158DOPC  H18Z19104   1.843   1.578  13.661 -0.6507 -0.5148  0.1106
  159DOPC     N19105   4.698   1.958  16.494 -0.0259  0.2528  0.4248
  159DOPC   C1219106   4.753   1.903  16.362 -0.5857  0.0969 -0.3567
  159DOPC  H12A19107   4.671   1.868  16.301 -0.5301  2.1811 -1.7349
  159DOPC  H12B19108   4.817   1.819  16.386 -0.3541  0.2303 -0.5020
  159DOPC   C1319109   4.641   1.844  16.575 -0.0793  0.5234 -0.5349
  159DOPC  H13A19110   4.581   1.877  16.658 -1.7919 -2.1804 -0.5855
  159DOPC  H13B19111   4.586   1.768  16.521 -0.1720 -0.5661  1.0412
  159DOPC  H13C19112   4.719   1.782  16.615 -0.6749  1.9148  3.2387
  159DOPC   C1419113   4.592   2.055  16.470  0.3414  0.1075 -0.6878
  159DOPC  H14A19114   4.497   2.013  16.439 -0.4417 -0.1568  1.8342
  159DOPC  H14B19115   4.563   2.117  16.554 -1.5721 -1.0662 -0.4261
  159DOPC  H14C19116   4.616   2.132  16.397  0.1591  1.6088  0.7887
  159DOPC   C1519117   4.800   2.026  16.573 -0.2582  0.0270 -0.1724
  159DOPC  H15A19118   4.828   2.120  16.528  0.8049 -1.5452 -3.0155
  159DOPC  H15B19119   4.892   1.970  16.583 -0.5673 -0.6689 -1.1245
  159DOPC  H15C19120   4.772   2.051  16.674 -0.1563 -0.5966  0.0148
  159DOPC   C1119121   4.830   1.999  16.271  0.3335  0.0878  0.3613
  159DOPC  H11A19122   4.915   2.048  16.323  0.1283  0.2060  0.5886
  159DOPC  H11B19123   4.873   1.939  16.188  0.6243 -0.2123  0.7274
  159DOPC     P19124   4.647   2.085  16.106 -0.0161  0.1011 -0.1114
  159DOPC   O1319125   4.585   2.216  16.062 -0.5469  0.1062  0.2502
  159DOPC   O1419126   4.561   1.964  16.132  0.5128  0.0546  0.4148
  159DOPC   O1219127   4.747   2.106  16.225  1.0250  0.5900 -0.0782
  159DOPC   O1119128   4.739   2.039  15.979 -0.2070 -0.0309  0.0961
  159DOPC    C119129   4.856   2.122  15.946 -0.1986  0.4941 -0.2908
  159DOPC    HA19130   4.946   2.060  15.969 -1.4143 -0.8285  1.1411
  159DOPC    HB19131   4.857   2.213  16.008 -1.3182  1.7553 -2.0285
  159DOPC    C219132   4.862   2.163  15.793  0.2673 -0.4583 -0.6706
  159DOPC    HS19133   4.961   2.211  15.779 -0.3131  1.0335  0.1513
  159DOPC   O2119134   4.753   2.254  15.765  0.5536 -0.1833  0.1088
  159DOPC   C2119135   4.777   2.381  15.794  0.2907 -0.2075  0.0067
  159DOPC   O2219136   4.876   2.423  15.847 -0.7824  0.0109 -0.1878
  159DOPC   C2219137   4.652   2.463  15.748 -0.0882  0.3390 -0.0439
  159DOPC   H2R19138   4.618   2.531  15.829 -1.1289 -1.3514  1.0252
  159DOPC   H2S19139   4.563   2.398  15.731  0.9609 -0.8059 -1.4007
  159DOPC    C319140   4.871   2.043  15.694  0.8810 -0.0734 -0.2950
  159DOPC    HX19141   4.770   1.995  15.696  0.3387  1.0494  0.0323
  159DOPC    HY19142   4.946   1.979  15.746  2.2080  1.7362  0.1275
  159DOPC   O3119143   4.908   2.094  15.563  0.8229  0.2876  0.2114
  159DOPC   C3119144   4.905   1.996  15.474 -0.5145  1.0095 -0.5882
  159DOPC   O3219145   4.907   1.876  15.499 -0.0100 -0.0471 -0.2785
  159DOPC   C3219146   4.914   2.063  15.339 -0.3369  0.0635 -0.5721
  159DOPC   H2X19147   4.845   2.150  15.342  1.4469  1.5016  0.8254
  159DOPC   H2Y19148   5.021   2.094  15.338 -0.8190  1.8854 -0.1219
  159DOPC   C2319149   4.672   2.542  15.617  0.4088  0.8336  0.3336
  159DOPC   H3R19150   4.748   2.623  15.621  0.0774  1.2873 -1.6471
  159DOPC   H3S19151   4.577   2.593  15.592  0.3075  0.1981 -0.6209
  159DOPC   C2419152   4.717   2.450  15.501  0.3504 -0.7687  0.3702
  159DOPC   H4R19153   4.643   2.375  15.465  0.8451 -0.5151 -1.2313
  159DOPC   H4S19154   4.806   2.393  15.535  0.1871 -0.1622  1.9114
  159DOPC   C2519155   4.738   2.530  15.371 -0.0803  0.8664 -0.3114
  159DOPC   H5R19156   4.827   2.596  15.383 -2.2535  3.5174  2.8904
  159DOPC   H5S19157   4.648   2.595  15.362 -1.0867 -0.4629 -0.0283
  159DOPC   C2619158   4.735   2.445  15.242 -0.4008  0.1751 -0.0714
  159DOPC   H6R19159   4.668   2.357  15.251  0.6985 -0.6344  0.3980
  159DOPC   H6S19160   4.840   2.409  15.228  0.5473  2.8778 -0.5180
  159DOPC   C2719161   4.699   2.527  15.117 -0.3747  0.5570 -0.7990
  159DOPC   H7R19162   4.741   2.629  15.106 -1.9975  1.3703  0.1171
  159DOPC   H7S19163   4.593   2.556  15.133 -0.2617  0.5515 -0.0139
  159DOPC   C2819164   4.710   2.454  14.981  0.4768 -0.0802 -0.3276
  159DOPC   H8R19165   4.649   2.363  14.996  1.2217 -0.1490  2.9104
  159DOPC   H8S19166   4.816   2.432  14.958  0.9277  0.9153  0.7347
  159DOPC   C2919167   4.642   2.544  14.876  0.2118  0.1873  0.6691
  159DOPC   H9R19168   4.548   2.596  14.901 -0.8721 -0.8604 -1.0274
  159DOPC  C21019169   4.682   2.556  14.745  0.1199 -0.0974  0.6274
  159DOPC  H10R19170   4.632   2.630  14.681 -0.4570  0.0780  1.2688
  159DOPC  C21119171   4.791   2.479  14.674 -0.0843  0.8416  0.7720
  159DOPC  H11R19172   4.851   2.418  14.745  2.9104  1.9485 -0.6557
  159DOPC  H11S19173   4.868   2.544  14.628  0.3693  0.0198  0.3361
  159DOPC  C21219174   4.734   2.364  14.579  0.1399  0.0108 -0.6372
  159DOPC  H12R19175   4.659   2.297  14.626  1.6999 -2.5545 -1.6136
  159DOPC  H12S19176   4.808   2.290  14.543 -1.6512 -1.9330 -0.4968
  159DOPC  C21319177   4.654   2.421  14.457 -0.1171  0.0226  0.2539
  159DOPC  H13R19178   4.583   2.496  14.498  0.8574  1.3524 -0.3963
  159DOPC  H13S19179   4.610   2.341  14.395  2.3855 -0.8035 -0.5924
  159DOPC  C21419180   4.749   2.485  14.358  0.6253 -0.2495 -0.4265
  159DOPC  H14R19181   4.809   2.402  14.316 -0.0402 -1.2456  0.5357
  159DOPC  H14S19182   4.814   2.557  14.413  0.8105 -1.6186  1.2306
  159DOPC  C21519183   4.669   2.544  14.238  0.1142  0.1177 -0.4864
  159DOPC  H15R19184   4.609   2.632  14.269 -0.5046 -0.1915 -0.8049
  159DOPC  H15S19185   4.601   2.462  14.208  0.0179  0.4247 -1.1137
  159DOPC  C21619186   4.750   2.588  14.113 -0.3095  0.2469 -0.3257
  159DOPC  H16R19187   4.802   2.501  14.067  1.0965  0.7731  0.2242
  159DOPC  H16S19188   4.827   2.655  14.157  0.5396 -0.3292 -0.8900
  159DOPC  C21719189   4.674   2.651  13.996  0.0427  0.4082 -0.2324
  159DOPC  H17R19190   4.632   2.747  14.033 -0.0966  0.5481 -0.7439
  159DOPC  H17S19191   4.584   2.587  13.983  0.2711 -0.2339  1.1584
  159DOPC  C21819192   4.750   2.670  13.864  0.5705  0.3094 -0.1567
  159DOPC  H18R19193   4.844   2.726  13.879  1.3557 -1.7196  3.5691
  159DOPC  H18S19194   4.689   2.728  13.791 -2.2918 -1.1647  0.8837
  159DOPC  H18T19195   4.772   2.573  13.815 -0.2897  0.4013 -0.7448
  159DOPC   C3319196   4.888   1.977  15.217  0.5559 -0.0969 -0.3815
  159DOPC   H3X19197   4.784   1.938  15.214  0.2506  0.7151 -0.8086
  159DOPC   H3Y19198   4.962   1.895  15.228 -0.8576 -1.2054  1.4754
  159DOPC   C3419199   4.904   2.060  15.092  0.2289 -0.2433 -0.5706
  159DOPC   H4X19200   4.997   2.121  15.091  1.1470 -1.3467  2.8409
  159DOPC   H4Y19201   4.822   2.133  15.077  0.6585 -0.3635 -4.6168
  159DOPC   C3519202   4.902   1.974  14.969 -0.3507 -0.2531  0.2598
  159DOPC   H5X19203   4.813   1.908  14.981 -0.0602 -0.5331  0.9382
  159DOPC   H5Y19204   4.994   1.917  14.993  1.3760  2.6161  1.0259
  159DOPC   C3619205   4.892   2.049  14.834 -0.1989 -0.4727  0.0709
  159DOPC   H6X19206   4.792   2.097  14.827 -0.2917 -0.6814 -0.0336
  159DOPC   H6Y19207   4.973   2.124  14.837 -2.4302  2.0751  1.1112
  159DOPC   C3719208   4.904   1.943  14.722 -1.0704  0.6551  0.0324
  159DOPC   H7X19209   4.999   1.893  14.750 -0.4526  1.9909  0.4009
  159DOPC   H7Y19210   4.824   1.867  14.734 -0.7060 -0.0332 -1.5899
  159DOPC   C3819211   4.898   1.998  14.577 -0.4990 -0.2553 -0.1283
  159DOPC   H8X19212   4.999   2.039  14.555  0.4043 -2.5677 -0.5385
  159DOPC   H8Y19213   4.822   2.080  14.576 -1.7402 -1.3107  1.3466
  159DOPC   C3919214   4.867   1.883  14.477 -0.8949 -0.5608  0.2163
  159DOPC   H9X19215   4.831   1.787  14.517 -1.7498 -0.9098 -1.3223
  159DOPC  C31019216   4.862   1.909  14.347 -0.4324 -0.9286 -0.1706
  159DOPC  H10X19217   4.824   1.833  14.277  0.1913 -1.9831  0.5967
  159DOPC  C31119218   4.886   2.047  14.275 -0.1315 -0.4638  0.6798
  159DOPC  H11X19219   4.976   2.104  14.307 -1.3837  1.7949  0.3804
  159DOPC  H11Y19220   4.795   2.108  14.290 -0.6284 -0.9135 -0.3993
  159DOPC  C31219221   4.888   2.034  14.121  0.2889 -0.2241 -0.4229
  159DOPC  H12X19222   4.800   1.977  14.086  1.4476 -2.5094  0.1565
  159DOPC  H12Y19223   4.982   1.975  14.108  0.5489 -0.7065  2.7590
  159DOPC  C31319224   4.901   2.168  14.047 -0.1907 -0.8903  0.2188
  159DOPC  H13X19225   4.801   2.212  14.068 -0.1652  0.0069 -1.3710
  159DOPC  H13Y19226   4.978   2.237  14.086 -0.6945 -0.4803  0.4863
  159DOPC  C31419227   4.918   2.142  13.897 -0.2409 -0.5041  0.6565
  159DOPC  H14X19228   5.017   2.092  13.888  0.3860  0.8173 -0.1573
  159DOPC  H14Y19229   4.846   2.069  13.855  0.3302 -1.1473  0.7772
  159DOPC  C31519230   4.907   2.263  13.807  0.7556 -0.2729 -0.0551
  159DOPC  H15X19231   4.821   2.324  13.841  1.8323  1.0469  0.3687
  159DOPC  H15Y19232   4.889   2.233  13.702 -0.5347  0.2019  0.0133
  159DOPC  C31619233   5.025   2.355  13.822  0.2762  0.3233 -0.9959
  159DOPC  H16X19234   5.003   2.450  13.768 -1.1944  1.2743  1.1026
  159DOPC  H16Y19235   5.027   2.371  13.932 -0.3106 -2.8728 -0.4405
  159DOPC  C31719236   5.157   2.294  13.784 -0.5850 -0.3522  0.2062
  159DOPC  H17X19237   5.169   2.193  13.828  1.0041 -1.0147 -1.6227
  159DOPC  H17Y19238   5.155   2.265  13.677  1.4615  0.2131 -0.0146
  159DOPC  C31819239   5.282   2.379  13.806 -0.0216  0.1099 -0.0074
  159DOPC  H18X19240   5.282   2.464  13.734  1.0207 -0.7158 -1.0067
  159DOPC  H18Y19241   5.281   2.429  13.906  0.2664 -0.3523  0.2320
  159DOPC  H18Z19242   5.381   2.328  13.799  0.4116  0.7200  1.2083
  160DOPC     N19243   0.654   0.171  15.966  0.3336 -0.3454  0.2293
  160DOPC   C1219244   0.517   0.117  15.928 -0.8545  0.1913  0.8737
  160DOPC  H12A19245   0.531   0.086  15.825  1.1049 -1.5761  1.6228
  160DOPC  H12B19246   0.437   0.190  15.914 -0.7069 -0.0738 -2.0564
  160DOPC   C1319247   0.650   0.214  16.107  0.1360 -0.1999  0.2351
  160DOPC  H13A19248   0.581   0.297  16.120  1.4218  1.1924 -1.2912
  160DOPC  H13B19249   0.618   0.134  16.172 -0.5084  0.9232  1.3465
  160DOPC  H13C19250   0.748   0.246  16.141  0.1213 -0.3087  0.3803
  160DOPC   C1419251   0.684   0.293  15.891 -0.2459 -0.5829 -0.2889
  160DOPC  H14A19252   0.607   0.368  15.890  0.6630  0.3698 -0.7135
  160DOPC  H14B19253   0.772   0.347  15.923 -1.1007  1.0923 -0.6434
  160DOPC  H14C19254   0.685   0.268  15.786 -2.0940  1.1942 -0.7859
  160DOPC   C1519255   0.761   0.070  15.948 -0.2339  0.4769  1.1986
  160DOPC  H15A19256   0.730   0.003  15.869 -2.0779  2.0421  0.4851
  160DOPC  H15B19257   0.771   0.006  16.033 -1.7902  0.0699  1.0983
  160DOPC  H15C19258   0.856   0.118  15.931  0.0507  0.2742  2.1894
  160DOPC   C1119259   0.452  -0.006  15.991 -0.4426 -0.1129 -0.2788
  160DOPC  H11A19260   0.460  -0.004  16.102  1.0382 -1.9808 -0.2965
  160DOPC  H11B19261   0.344  -0.007  15.968 -0.4335 -2.0719 -0.4219
  160DOPC     P19262   0.506  -0.168  15.799 -0.1707  0.0810  0.1265
  160DOPC   O1319263   0.510  -0.317  15.796  0.1576 -0.0719  0.1967
  160DOPC   O1419264   0.604  -0.092  15.721  0.3039 -0.3617 -0.6921
  160DOPC   O1219265   0.518  -0.123  15.952 -0.1953 -0.4959  0.3360
  160DOPC   O1119266   0.362  -0.122  15.766  0.1222  0.3749 -0.0124
  160DOPC    C119267   0.264  -0.213  15.720 -0.3722 -0.1307 -0.4804
  160DOPC    HA19268   0.163  -0.167  15.726 -1.3705 -2.2878  0.6897
  160DOPC    HB19269   0.267  -0.313  15.769  0.6064 -0.4355 -1.1345
  160DOPC    C219270   0.277  -0.252  15.566 -0.6867 -0.5418 -0.5229
  160DOPC    HS19271   0.353  -0.334  15.567  0.5343  0.5498 -0.3756
  160DOPC   O2119272   0.318  -0.129  15.506  0.4881 -0.0312  0.3031
  160DOPC   C2119273   0.408  -0.153  15.414 -0.3970 -0.2672 -0.4121
  160DOPC   O2219274   0.442  -0.261  15.361  0.6462  0.2652 -0.9499
  160DOPC   C2219275   0.484  -0.015  15.385  0.1242  0.5317  0.3496
  160DOPC   H2R19276   0.577  -0.021  15.446  0.4565  0.3160 -0.1638
  160DOPC   H2S19277   0.429   0.068  15.434  0.7144 -0.9805  3.8734
  160DOPC    C319278   0.156  -0.320  15.512  0.5292  0.4423  0.1795
  160DOPC    HX19279   0.071  -0.270  15.563  0.2564 -0.9791  1.1536
  160DOPC    HY19280   0.151  -0.427  15.542 -1.3968 -0.3721 -2.6102
  160DOPC   O3119281   0.135  -0.309  15.368 -0.1196  0.3334  0.0687
  160DOPC   C3119282   0.186  -0.407  15.290 -0.2156  1.3272  0.7858
  160DOPC   O3219283   0.227  -0.514  15.328 -0.6344  0.0943 -0.4031
  160DOPC   C3219284   0.199  -0.361  15.149 -0.7778 -0.3290  0.4770
  160DOPC   H2X19285   0.213  -0.252  15.128 -0.2768 -0.5245 -0.2366
  160DOPC   H2Y19286   0.287  -0.413  15.107 -0.7282 -1.0096  1.4035
  160DOPC   C2319287   0.539  -0.012  15.242  0.3676  0.4604  0.0444
  160DOPC   H3R19288   0.597  -0.103  15.216 -0.2469 -0.3609  1.4171
  160DOPC   H3S19289   0.604   0.077  15.231 -2.0864  2.3375 -0.1514
  160DOPC   C2419290   0.428  -0.009  15.135 -0.6642 -0.3703 -0.6263
  160DOPC   H4R19291   0.377   0.089  15.130  0.1932  0.1714  0.6653
  160DOPC   H4S19292   0.345  -0.081  15.155 -1.0958  0.4776  0.7865
  160DOPC   C2519293   0.489  -0.040  14.997 -0.3560  0.3783 -0.1456
  160DOPC   H5R19294   0.510  -0.149  14.994  0.9416  0.6210 -2.5565
  160DOPC   H5S19295   0.587   0.009  14.982  0.7316 -1.9093 -1.1022
  160DOPC   C2619296   0.394   0.006  14.889 -0.6453  0.2938  0.4775
  160DOPC   H6R19297   0.381   0.116  14.895  0.4056  0.3976  1.0385
  160DOPC   H6S19298   0.293  -0.039  14.897 -0.3668 -1.3583 -3.0049
  160DOPC   C2719299   0.444  -0.042  14.746 -0.1903  0.3973  0.3188
  160DOPC   H7R19300   0.431  -0.152  14.737 -3.9886  0.6560  1.2099
  160DOPC   H7S19301   0.554  -0.026  14.742 -0.0607 -0.5165 -0.2187
  160DOPC   C2819302   0.374   0.019  14.627  0.6518  0.0905 -0.5223
  160DOPC   H8R19303   0.384   0.129  14.638  0.5319  0.1741 -1.1875
  160DOPC   H8S19304   0.265  -0.004  14.618  0.7205  0.6059 -3.6957
  160DOPC   C2919305   0.445  -0.030  14.498 -0.2683  0.6119 -0.3292
  160DOPC   H9R19306   0.511  -0.117  14.512 -0.0025  0.7311 -0.8091
  160DOPC  C21019307   0.460   0.045  14.390 -0.3052  0.2728 -0.0217
  160DOPC  H10R19308   0.532   0.010  14.314  2.1284  2.2833  1.2213
  160DOPC  C21119309   0.404   0.179  14.356 -0.2037  0.0844 -1.0548
  160DOPC  H11R19310   0.433   0.263  14.423  2.3995 -2.9463  1.9352
  160DOPC  H11S19311   0.293   0.174  14.364 -0.0327 -2.4520  1.2501
  160DOPC  C21219312   0.446   0.216  14.211  0.0083 -0.6663 -0.2772
  160DOPC  H12R19313   0.550   0.248  14.193  0.0115 -0.9116 -0.7234
  160DOPC  H12S19314   0.373   0.295  14.183 -0.0199 -0.3793  0.5817
  160DOPC  C21319315   0.437   0.108  14.106 -0.1930  0.0891 -0.2496
  160DOPC  H13R19316   0.349   0.041  14.111  0.8962 -1.5417 -1.7557
  160DOPC  H13S19317   0.515   0.029  14.107  1.6378  1.8076 -0.3888
  160DOPC  C21419318   0.422   0.173  13.962 -0.1225  0.4983 -0.2700
  160DOPC  H14R19319   0.521   0.222  13.949  0.3805 -0.8278 -1.8473
  160DOPC  H14S19320   0.342   0.248  13.978 -1.3284 -0.8840  0.4318
  160DOPC  C21519321   0.381   0.066  13.856 -0.5919  0.0744 -0.1866
  160DOPC  H15R19322   0.276   0.032  13.868 -0.7466  0.9869  1.2630
  160DOPC  H15S19323   0.456  -0.017  13.861  0.5632  1.0110 -1.3439
  160DOPC  C21619324   0.405   0.121  13.716  0.6319 -0.2675 -0.2507
  160DOPC  H16R19325   0.382   0.044  13.640  0.4799 -2.9224  2.2926
  160DOPC  H16S19326   0.515   0.139  13.714  0.5534  0.3964  0.7283
  160DOPC  C21719327   0.326   0.248  13.698  0.0397  0.2159 -0.0865
  160DOPC  H17R19328   0.337   0.329  13.773 -3.6149 -0.6246  1.5706
  160DOPC  H17S19329   0.220   0.222  13.720  0.4360 -2.0163 -0.5386
  160DOPC  C21819330   0.335   0.296  13.556  0.2310 -0.1818  0.5209
  160DOPC  H18R19331   0.325   0.210  13.485  0.3776  0.5330 -0.3825
  160DOPC  H18S19332   0.433   0.347  13.546 -0.4547  1.4915  1.9657
  160DOPC  H18T19333   0.246   0.360  13.543 -1.1716 -2.2032 -0.3402
  160DOPC   C3319334   0.081  -0.399  15.058  0.5017  0.4419  0.3835
  160DOPC   H3X19335  -0.014  -0.356  15.095  0.1557  1.0539 -1.1347
  160DOPC   H3Y19336   0.065  -0.508  15.073  1.3047  0.2019 -0.4175
  160DOPC   C3419337   0.100  -0.369  14.904 -0.0103 -0.4735  0.2152
  160DOPC   H4X19338   0.211  -0.373  14.892  0.4261  2.9516  1.8201
  160DOPC   H4Y19339   0.073  -0.263  14.887  0.9928 -0.1425  0.5708
  160DOPC   C3519340   0.025  -0.465  14.801  0.2049 -0.5127 -1.0395
  160DOPC   H5X19341  -0.085  -0.447  14.799 -0.3074 -3.0632  0.1570
  160DOPC   H5Y19342   0.030  -0.568  14.842 -0.2555  1.3686  4.7876
  160DOPC   C3619343   0.088  -0.465  14.661  0.6857 -0.3839 -0.0764
  160DOPC   H6X19344   0.196  -0.489  14.676  0.9930  0.0167 -1.5504
  160DOPC   H6Y19345   0.042  -0.549  14.605 -0.9616  1.1280 -1.0760
  160DOPC   C3719346   0.048  -0.351  14.567  0.2733 -0.7588  0.6657
  160DOPC   H7X19347  -0.062  -0.338  14.572  0.4656  0.6777  2.0156
  160DOPC   H7Y19348   0.105  -0.264  14.606 -1.7192  0.5403  0.8176
  160DOPC   C3819349   0.099  -0.374  14.427  0.2247 -0.0285 -0.3945
  160DOPC   H8X19350   0.025  -0.447  14.387  0.2307  0.4200 -1.2463
  160DOPC   H8Y19351   0.193  -0.432  14.438 -1.3627 -2.6653  0.2234
  160DOPC   C3919352   0.118  -0.248  14.344 -0.5020 -0.3030  0.0134
  160DOPC   H9X19353   0.185  -0.169  14.382 -1.0502  1.0037 -1.6090
  160DOPC  C31019354   0.067  -0.235  14.219  0.1328  0.2563 -0.5110
  160DOPC  H10X19355   0.077  -0.133  14.177  1.5512  1.1908  1.8480
  160DOPC  C31119356  -0.022  -0.333  14.149  0.6479  1.4936  0.3024
  160DOPC  H11X19357  -0.054  -0.420  14.211 -0.9493  0.9032 -1.2634
  160DOPC  H11Y19358   0.028  -0.384  14.064 -1.0430 -0.8963  0.6326
  160DOPC  C31219359  -0.150  -0.282  14.091 -0.4808 -0.2269 -0.2097
  160DOPC  H12X19360  -0.205  -0.222  14.167  0.4280 -1.0957  1.1836
  160DOPC  H12Y19361  -0.204  -0.373  14.058 -0.8943 -0.6871  1.5892
  160DOPC  C31319362  -0.138  -0.175  13.981  0.0225  0.8867 -0.1624
  160DOPC  H13X19363  -0.223  -0.104  13.973  0.0676  1.1875  1.6329
  160DOPC  H13Y19364  -0.053  -0.109  14.010  1.1815 -1.1740  1.3293
  160DOPC  C31419365  -0.109  -0.235  13.849 -0.9735  0.1550 -0.0184
  160DOPC  H14X19366  -0.044  -0.325  13.856 -0.8398  0.0746 -1.9329
  160DOPC  H14Y19367  -0.200  -0.260  13.790  1.3480 -2.4841 -2.8071
  160DOPC  C31519368  -0.036  -0.127  13.765  0.6616  0.1856 -0.6176
  160DOPC  H15X19369   0.068  -0.139  13.803  0.4437  1.3659  0.4024
  160DOPC  H15Y19370  -0.079  -0.030  13.797 -1.9632 -0.2897 -2.4405
  160DOPC  C31619371  -0.040  -0.149  13.613  0.0464  0.3183 -0.9895
  160DOPC  H16X19372   0.006  -0.247  13.591 -0.9668  0.2669 -3.0716
  160DOPC  H16Y19373  -0.148  -0.153  13.584 -0.5641 -2.0713  1.2005
  160DOPC  C31719374   0.053  -0.063  13.527  0.4511 -0.2073 -0.2719
  160DOPC  H17X19375   0.012   0.039  13.518  1.1324  0.2156  1.1265
  160DOPC  H17Y19376   0.157  -0.064  13.567 -0.1785  0.0724  1.4194
  160DOPC  C31819377   0.051  -0.118  13.387  0.2541  0.7567  0.6416
  160DOPC  H18X19378   0.106  -0.049  13.318  2.6853  0.2287  1.9427
  160DOPC  H18Y19379   0.122  -0.202  13.373  3.2728  2.3935  4.2206
  160DOPC  H18Z19380  -0.047  -0.132  13.337  1.7129 -1.2071 -1.8987
  161DOPC     N19381   1.261   1.824  16.934 -0.2608  0.3405 -0.3045
  161DOPC   C1219382   1.346   1.755  16.824 -0.0010 -0.3516 -0.3557
  161DOPC  H12A19383   1.286   1.675  16.784  1.9610 -2.2746  0.3705
  161DOPC  H12B19384   1.421   1.693  16.871  1.2971  0.6610 -1.0250
  161DOPC   C1319385   1.140   1.893  16.880  0.1594  0.2986 -0.4190
  161DOPC  H13A19386   1.094   1.942  16.964  1.4953 -0.8445  1.0328
  161DOPC  H13B19387   1.159   1.972  16.808  1.7303  0.0282 -0.3323
  161DOPC  H13C19388   1.073   1.824  16.830  0.4260 -0.1751 -0.1246
  161DOPC   C1419389   1.344   1.921  17.018 -0.3396  0.4979 -0.4383
  161DOPC  H14A19390   1.387   1.998  16.954  2.2627 -1.8412 -1.7153
  161DOPC  H14B19391   1.274   1.958  17.091 -0.4099 -0.9523  0.2517
  161DOPC  H14C19392   1.429   1.876  17.068  1.1722  1.7903 -1.7135
  161DOPC   C1519393   1.208   1.717  17.025  0.6664  0.0016 -0.4460
  161DOPC  H15A19394   1.285   1.659  17.072 -0.7137 -0.8190  0.9090
  161DOPC  H15B19395   1.144   1.655  16.965  0.7977 -0.1344 -0.4471
  161DOPC  H15C19396   1.141   1.762  17.098  1.3106  0.7782 -0.3185
  161DOPC   C1119397   1.417   1.847  16.728  0.1929 -0.1690 -0.3326
  161DOPC  H11A19398   1.340   1.911  16.681  0.0335  1.3294  1.8096
  161DOPC  H11B19399   1.486   1.905  16.793 -0.5597  1.8882 -1.2943
  161DOPC     P19400   1.421   1.707  16.504  0.5495 -0.2235 -0.3831
  161DOPC   O1319401   1.325   1.609  16.554 -0.0591  0.2679 -0.4585
  161DOPC   O1419402   1.520   1.649  16.410  0.0493 -0.7429  0.1349
  161DOPC   O1219403   1.483   1.770  16.633  0.0148 -0.3872  0.5549
  161DOPC   O1119404   1.339   1.822  16.430  0.1654 -0.2847 -0.6168
  161DOPC    C119405   1.408   1.933  16.382 -0.3034 -0.3035  0.0322
  161DOPC    HA19406   1.515   1.944  16.411 -0.0345 -0.9632 -0.6883
  161DOPC    HB19407   1.353   2.022  16.419 -0.9416 -0.3667 -0.7446
  161DOPC    C219408   1.389   1.937  16.230  0.3837  0.1192  0.2503
  161DOPC    HS19409   1.421   1.840  16.187 -0.3360  0.4159 -1.0192
  161DOPC   O2119410   1.466   2.052  16.175  0.4385  0.5778  0.0967
  161DOPC   C2119411   1.503   2.023  16.047 -0.2412 -0.1237 -0.5176
  161DOPC   O2219412   1.481   1.919  15.988  0.5037 -0.7197  0.2266
  161DOPC   C2219413   1.570   2.149  15.990  0.3922  0.1111  0.3950
  161DOPC   H2R19414   1.626   2.204  16.069  2.2826 -1.0796 -0.0437
  161DOPC   H2S19415   1.491   2.217  15.952 -0.3285 -0.9414 -0.0393
  161DOPC    C319416   1.236   1.949  16.185  0.5075 -0.6729  0.9391
  161DOPC    HX19417   1.201   2.043  16.233  0.1678  0.6622 -1.6983
  161DOPC    HY19418   1.178   1.867  16.232 -1.6889  0.6929  0.7617
  161DOPC   O3119419   1.197   1.963  16.045 -0.0938  0.3966 -0.9736
  161DOPC   C3119420   1.171   1.850  15.979  0.6767 -0.9505  0.3080
  161DOPC   O3219421   1.186   1.741  16.023  0.2223  0.1071  0.8683
  161DOPC   C3219422   1.135   1.883  15.835 -0.4847  0.5231 -0.1144
  161DOPC   H2X19423   1.151   1.990  15.813  0.2587  0.0730 -2.0398
  161DOPC   H2Y19424   1.214   1.827  15.780  0.2446  0.2891  1.1236
  161DOPC   C2319425   1.678   2.128  15.880  0.0133  0.0575 -0.7791
  161DOPC   H3R19426   1.755   2.056  15.915 -0.5761  0.2093  0.9506
  161DOPC   H3S19427   1.736   2.222  15.883 -0.8011  0.5482  0.5634
  161DOPC   C2419428   1.624   2.096  15.750 -0.3727 -0.8183 -0.1999
  161DOPC   H4R19429   1.539   2.159  15.715 -0.7985 -1.1414  0.2314
  161DOPC   H4S19430   1.579   1.994  15.743 -1.8122 -0.2373  0.3006
  161DOPC   C2519431   1.739   2.099  15.644 -0.5117 -0.2955 -0.4634
  161DOPC   H5R19432   1.796   2.193  15.655 -0.7007 -0.3089  0.7048
  161DOPC   H5S19433   1.690   2.115  15.545 -0.5387  0.9803 -0.2630
  161DOPC   C2619434   1.835   1.984  15.653 -0.8421 -0.1350  0.4185
  161DOPC   H6R19435   1.788   1.883  15.654 -0.7596 -0.2806 -2.4794
  161DOPC   H6S19436   1.902   1.996  15.741  1.6030  0.0358 -1.3754
  161DOPC   C2719437   1.933   1.991  15.530  0.2305 -0.6008 -0.6005
  161DOPC   H7R19438   2.020   2.050  15.566 -1.4185  1.1805  0.6021
  161DOPC   H7S19439   1.882   2.049  15.451 -0.3466  1.4497  1.2065
  161DOPC   C2819440   1.985   1.860  15.465 -0.2022  0.4369 -0.4670
  161DOPC   H8R19441   2.033   1.809  15.551 -0.3223 -0.1411 -0.7406
  161DOPC   H8S19442   2.063   1.887  15.390  1.2124 -0.8795  0.4591
  161DOPC   C2919443   1.875   1.772  15.418  0.1518  0.3623  0.3930
  161DOPC   H9R19444   1.829   1.704  15.491 -2.7987  0.3922 -1.2894
  161DOPC  C21019445   1.830   1.780  15.293  0.1385 -0.0392  0.0229
  161DOPC  H10R19446   1.744   1.722  15.257 -0.3844  1.2503 -0.8640
  161DOPC  C21119447   1.880   1.872  15.184 -0.4294 -0.4736  0.0761
  161DOPC  H11R19448   1.938   1.804  15.117  0.0619 -0.5384  0.5563
  161DOPC  H11S19449   1.949   1.948  15.228  1.7760 -3.0313  1.3980
  161DOPC  C21219450   1.767   1.942  15.109 -1.3003  0.1857 -0.5932
  161DOPC  H12R19451   1.702   2.002  15.176 -0.7970 -0.0359  0.0984
  161DOPC  H12S19452   1.693   1.869  15.069 -2.9865  0.8689  1.0990
  161DOPC  C21319453   1.807   2.038  14.989  0.7902 -0.6038 -0.5277
  161DOPC  H13R19454   1.890   1.990  14.933  1.5381 -0.9646  0.8432
  161DOPC  H13S19455   1.848   2.134  15.027 -0.8162  0.4971 -1.4318
  161DOPC  C21419456   1.690   2.077  14.902 -0.8563 -0.1197  0.4246
  161DOPC  H14R19457   1.603   2.114  14.961 -1.1176  0.8822 -0.5700
  161DOPC  H14S19458   1.649   1.989  14.848  1.5691 -0.5312 -0.9077
  161DOPC  C21519459   1.734   2.181  14.797  0.0694 -0.6719 -0.6591
  161DOPC  H15R19460   1.833   2.139  14.772  0.4846 -0.2584  0.2575
  161DOPC  H15S19461   1.751   2.278  14.848 -2.2028 -0.0973 -0.8859
  161DOPC  C21619462   1.642   2.197  14.675  0.0644  0.0561 -0.5382
  161DOPC  H16R19463   1.543   2.237  14.708 -0.4064 -0.7145 -0.9840
  161DOPC  H16S19464   1.627   2.093  14.638  1.5276 -1.0645  1.7566
  161DOPC  C21719465   1.701   2.290  14.569 -0.3465 -0.3925 -0.3009
  161DOPC  H17R19466   1.704   2.393  14.612  1.5386 -0.4471 -0.1911
  161DOPC  H17S19467   1.629   2.299  14.485  1.3646  0.1266 -1.7868
  161DOPC  C21819468   1.833   2.239  14.507 -0.0608  0.7813 -0.1858
  161DOPC  H18R19469   1.814   2.145  14.450 -0.5387  0.3989  0.5899
  161DOPC  H18S19470   1.905   2.215  14.588 -0.3427  2.5702  0.6198
  161DOPC  H18T19471   1.882   2.308  14.435 -0.9367  0.9876 -0.5932
  161DOPC   C3319472   0.988   1.848  15.807 -0.4442 -0.2020 -0.5843
  161DOPC   H3X19473   0.919   1.899  15.877  1.9572  3.3378 -0.5514
  161DOPC   H3Y19474   0.973   1.739  15.817  2.2682 -0.4634  2.1921
  161DOPC   C3419475   0.943   1.887  15.673 -0.1635 -0.6854 -0.1195
  161DOPC   H4X19476   1.017   1.849  15.599 -1.4367 -1.1760 -1.1917
  161DOPC   H4Y19477   0.947   1.997  15.662  0.6116 -0.7497 -0.5787
  161DOPC   C3519478   0.805   1.838  15.631 -0.0528 -1.2741  0.0503
  161DOPC   H5X19479   0.722   1.891  15.682  2.1722  3.1050 -0.3960
  161DOPC   H5Y19480   0.798   1.730  15.654 -1.2024 -1.7845 -2.3264
  161DOPC   C3619481   0.785   1.858  15.475 -0.3460 -0.4314  0.0931
  161DOPC   H6X19482   0.679   1.838  15.450  0.1430 -1.4649 -1.2480
  161DOPC   H6Y19483   0.797   1.968  15.458  0.2073 -0.5410 -0.2417
  161DOPC   C3719484   0.884   1.782  15.380 -0.3074  0.5429  0.2668
  161DOPC   H7X19485   0.985   1.827  15.389 -0.3926  0.9086 -0.5031
  161DOPC   H7Y19486   0.892   1.677  15.417  1.6125  0.4494 -0.3122
  161DOPC   C3819487   0.844   1.783  15.235  0.4399  0.4315 -0.5204
  161DOPC   H8X19488   0.742   1.741  15.230  0.4537 -0.0421  1.9054
  161DOPC   H8Y19489   0.909   1.717  15.174 -0.6362 -0.7750 -0.3904
  161DOPC   C3919490   0.860   1.929  15.193 -0.6781 -0.0129  0.1052
  161DOPC   H9X19491   0.909   1.998  15.262 -1.1577  0.2537  0.1888
  161DOPC  C31019492   0.841   1.969  15.060 -0.7255 -0.0388 -0.3833
  161DOPC  H10X19493   0.871   2.073  15.037 -0.0990 -0.0229  0.4559
  161DOPC  C31119494   0.818   1.878  14.941  0.0003 -0.4091  0.3165
  161DOPC  H11X19495   0.713   1.885  14.908  0.2038  0.2199 -0.2264
  161DOPC  H11Y19496   0.836   1.773  14.974  0.3285  0.3368  2.7698
  161DOPC  C31219497   0.913   1.907  14.820 -0.3398 -0.1205 -0.8459
  161DOPC  H12X19498   1.014   1.891  14.863 -0.8743  1.6193  1.2221
  161DOPC  H12Y19499   0.898   2.013  14.793 -0.7888  0.2096  0.6221
  161DOPC  C31319500   0.877   1.810  14.710 -0.0755  0.3581  0.0571
  161DOPC  H13X19501   0.899   1.707  14.746  3.1982  1.8121  2.8514
  161DOPC  H13Y19502   0.769   1.828  14.691 -0.2712 -0.0913  0.7290
  161DOPC  C31419503   0.963   1.830  14.579  0.3083 -0.2449  0.3933
  161DOPC  H14X19504   0.949   1.937  14.555 -0.8996 -0.3731  0.4619
  161DOPC  H14Y19505   1.065   1.816  14.621 -0.5468  0.5862  2.8807
  161DOPC  C31519506   0.938   1.721  14.467  0.0992 -1.1851  0.7220
  161DOPC  H15X19507   0.966   1.621  14.507 -0.0650 -1.0638  1.1558
  161DOPC  H15Y19508   1.007   1.745  14.383 -2.4480  1.5298 -0.8098
  161DOPC  C31619509   0.803   1.741  14.401 -0.1113  0.3711 -0.5918
  161DOPC  H16X19510   0.736   1.729  14.488  3.2265 -4.0265  1.7833
  161DOPC  H16Y19511   0.788   1.841  14.354  1.6143  1.2770  0.6630
  161DOPC  C31719512   0.783   1.628  14.297 -0.3557 -0.3048  0.2687
  161DOPC  H17X19513   0.817   1.527  14.330  0.6126  0.0937  0.5318
  161DOPC  H17Y19514   0.674   1.620  14.280 -0.3638  1.0606 -0.4310
  161DOPC  C31819515   0.835   1.663  14.155 -0.3918  0.2764  0.0839
  161DOPC  H18X19516   0.776   1.740  14.100  0.9663  1.4037  0.1653
  161DOPC  H18Y19517   0.940   1.698  14.155  0.1967 -1.4365  0.1463
  161DOPC  H18Z19518   0.852   1.571  14.096  0.8145 -1.0143  2.3288
  162DOPC     N19519   6.545   5.993  16.040 -0.2720  0.0485  0.9604
  162DOPC   C1219520   6.465   6.034  15.920  0.3124 -0.1214 -0.1274
  162DOPC  H12A19521   6.371   6.066  15.964  0.2197 -1.1796  0.4724
  162DOPC  H12B19522   6.443   5.948  15.859 -1.1312 -1.2244  1.8113
  162DOPC   C1319523   6.464   5.883  16.107 -0.0406  0.0943 -0.2390
  162DOPC  H13A19524   6.440   5.800  16.041  1.2305  1.3836 -2.4607
  162DOPC  H13B19525   6.520   5.845  16.190 -2.5951  0.9084  1.9980
  162DOPC  H13C19526   6.374   5.919  16.154  0.3731  0.2535  0.4320
  162DOPC   C1419527   6.550   6.111  16.133 -0.2377 -0.6200  0.7621
  162DOPC  H14A19528   6.452   6.140  16.169  0.4526  0.9252  1.5191
  162DOPC  H14B19529   6.608   6.095  16.222  1.1995  3.4113  0.7622
  162DOPC  H14C19530   6.577   6.206  16.088 -2.0894  1.1587  3.1199
  162DOPC   C1519531   6.689   5.949  16.003  0.6088  0.3274 -0.1674
  162DOPC  H15A19532   6.753   5.945  16.090  0.7693  2.7559 -0.1117
  162DOPC  H15B19533   6.734   6.016  15.932  1.1489 -1.2582 -1.3865
  162DOPC  H15C19534   6.682   5.851  15.959  0.0700  0.6156 -0.7402
  162DOPC   C1119535   6.510   6.148  15.827 -0.3683  0.4448  0.3269
  162DOPC  H11A19536   6.427   6.163  15.755 -1.3010 -1.9294  0.8309
  162DOPC  H11B19537   6.523   6.238  15.892  2.7672  0.3713 -0.0707
  162DOPC     P19538   6.627   5.999  15.647 -0.0475  0.4388  0.1889
  162DOPC   O1319539   6.556   5.879  15.697  0.5709  0.0584  0.2037
  162DOPC   O1419540   6.767   5.989  15.595 -0.2863  0.0965 -0.5396
  162DOPC   O1219541   6.629   6.107  15.759  0.1836  0.3047  0.3379
  162DOPC   O1119542   6.535   6.074  15.537 -0.5289 -0.5457 -0.0714
  162DOPC    C119543   6.563   6.209  15.494 -0.1510  0.2957 -0.7309
  162DOPC    HA19544   6.671   6.226  15.474  0.3408  0.0255  1.4307
  162DOPC    HB19545   6.542   6.284  15.573  3.3201  0.8500 -0.1754
  162DOPC    C219546   6.490   6.252  15.366 -0.3198 -0.1620 -0.1750
  162DOPC    HS19547   6.382   6.230  15.380 -0.0485 -1.3583  0.1618
  162DOPC   O2119548   6.532   6.178  15.251 -0.5589 -0.5728  0.2336
  162DOPC   C2119549   6.482   6.060  15.238  0.1367 -0.1581  0.1458
  162DOPC   O2219550   6.398   6.003  15.307 -0.3628  0.1020 -0.7251
  162DOPC   C2219551   6.545   5.986  15.123 -0.9446 -0.9076 -0.3456
  162DOPC   H2R19552   6.502   5.884  15.130  0.2207 -1.3617  0.6403
  162DOPC   H2S19553   6.653   5.969  15.142 -0.9367  0.0591  0.5378
  162DOPC    C319554   6.530   6.402  15.338  0.2516 -0.7108  0.0010
  162DOPC    HX19555   6.638   6.418  15.359 -0.3095  1.6196  1.4114
  162DOPC    HY19556   6.487   6.474  15.411 -0.2473  0.4806 -1.4297
  162DOPC   O3119557   6.493   6.442  15.198 -0.0713  0.9480 -0.6565
  162DOPC   C3119558   6.362   6.445  15.166  0.4522 -0.3799  0.0172
  162DOPC   O3219559   6.268   6.437  15.236  0.5206 -0.2338 -0.5018
  162DOPC   C3219560   6.351   6.462  15.013 -0.1094  0.0191  0.9588
  162DOPC   H2X19561   6.437   6.529  14.989 -0.3378  0.0996  0.3565
  162DOPC   H2Y19562   6.384   6.367  14.966 -1.0171 -0.5478  1.4449
  162DOPC   C2319563   6.520   6.045  14.984  0.4432 -0.0245 -0.5626
  162DOPC   H3R19564   6.572   6.141  14.965  0.7422  0.0581  0.6556
  162DOPC   H3S19565   6.413   6.069  14.962 -0.7241 -0.9554  3.3560
  162DOPC   C2419566   6.567   5.947  14.868  0.0168 -0.6230 -0.9696
  162DOPC   H4R19567   6.521   5.847  14.881  0.6072 -0.8693 -0.7157
  162DOPC   H4S19568   6.678   5.943  14.873  0.0041 -1.3389 -1.1962
  162DOPC   C2519569   6.535   5.995  14.730  0.0020 -0.2274 -0.1183
  162DOPC   H5R19570   6.596   5.938  14.657 -1.1351 -1.9972  0.2486
  162DOPC   H5S19571   6.554   6.101  14.706 -0.8007  0.1517  0.8546
  162DOPC   C2619572   6.387   5.974  14.686  0.2923 -0.5061 -0.4004
  162DOPC   H6R19573   6.316   6.040  14.741 -0.5859 -2.2295  0.6209
  162DOPC   H6S19574   6.360   5.871  14.720  3.7181 -1.2106  0.5857
  162DOPC   C2719575   6.354   5.985  14.534 -0.4359 -0.2356 -0.1037
  162DOPC   H7R19576   6.430   5.929  14.474  1.5087  0.3274  1.7166
  162DOPC   H7S19577   6.363   6.091  14.501  0.1752 -0.1668  0.2789
  162DOPC   C2819578   6.203   5.943  14.503  0.2027 -0.0739  0.0242
  162DOPC   H8R19579   6.165   6.001  14.416 -2.0724  1.2091  1.7653
  162DOPC   H8S19580   6.152   5.966  14.599 -2.6623 -1.5219 -1.0280
  162DOPC   C2919581   6.192   5.795  14.478 -0.2536  0.1181 -0.0816
  162DOPC   H9R19582   6.140   5.738  14.556 -1.8199 -0.1266 -1.2651
  162DOPC  C21019583   6.217   5.738  14.362  0.3321 -0.8815  0.2056
  162DOPC  H10R19584   6.214   5.628  14.355 -1.4251 -0.7515 -2.0262
  162DOPC  C21119585   6.273   5.797  14.240 -0.6775 -0.1836 -1.3427
  162DOPC  H11R19586   6.383   5.779  14.238 -0.1284  2.5831 -0.6230
  162DOPC  H11S19587   6.271   5.908  14.253  0.4399 -0.3081  0.1733
  162DOPC  C21219588   6.215   5.743  14.107 -0.3048 -0.7094  0.8526
  162DOPC  H12R19589   6.110   5.777  14.113  0.0704  2.2267 -3.8804
  162DOPC  H12S19590   6.210   5.634  14.087 -0.0991 -0.9421  2.0138
  162DOPC  C21319591   6.280   5.813  13.982 -0.1317  0.6122  0.1464
  162DOPC  H13R19592   6.386   5.780  13.983 -0.7685 -1.6715 -0.5667
  162DOPC  H13S19593   6.276   5.921  14.005  0.8216  0.8313 -0.6315
  162DOPC  C21419594   6.207   5.779  13.852  0.1487 -0.1274 -1.0111
  162DOPC  H14R19595   6.108   5.830  13.855  1.4396  2.5113  1.8916
  162DOPC  H14S19596   6.176   5.672  13.855 -2.5130  0.5811  0.9760
  162DOPC  C21519597   6.280   5.826  13.732  0.2636  0.1128 -0.2377
  162DOPC  H15R19598   6.363   5.755  13.712  1.0887  0.5417  1.5197
  162DOPC  H15S19599   6.326   5.924  13.753  0.0449  0.3138 -0.6820
  162DOPC  C21619600   6.201   5.859  13.605 -1.1668 -0.0415 -0.2095
  162DOPC  H16R19601   6.255   5.893  13.514  0.8298  2.1649  1.6818
  162DOPC  H16S19602   6.144   5.950  13.635 -0.1185  0.5601  0.0193
  162DOPC  C21719603   6.104   5.749  13.561 -0.1350 -0.3861  0.0635
  162DOPC  H17R19604   6.071   5.687  13.648  0.2074 -0.4767  0.1343
  162DOPC  H17S19605   6.176   5.678  13.513 -1.8858 -2.1029 -0.1411
  162DOPC  C21819606   6.001   5.784  13.454  0.1846  0.3453 -0.0726
  162DOPC  H18R19607   5.984   5.700  13.385  0.2529  2.0125 -2.2426
  162DOPC  H18S19608   6.032   5.869  13.389  0.0233  0.4937  0.0451
  162DOPC  H18T19609   5.910   5.821  13.506 -0.2714 -0.5707 -0.2108
  162DOPC   C3319610   6.215   6.507  14.949  0.0373 -0.5514  0.2967
  162DOPC   H3X19611   6.194   6.610  14.987 -0.3198 -0.1438 -0.9644
  162DOPC   H3Y19612   6.141   6.431  14.982 -1.6691 -0.4199 -2.9150
  162DOPC   C3419613   6.228   6.506  14.798  0.4337 -0.6640 -0.1530
  162DOPC   H4X19614   6.297   6.587  14.766 -2.0715  1.6743  0.0225
  162DOPC   H4Y19615   6.130   6.536  14.755  0.5630 -0.6566 -0.4427
  162DOPC   C3519616   6.255   6.367  14.729 -0.2575  0.0959  0.2836
  162DOPC   H5X19617   6.173   6.296  14.753 -0.4043 -0.3306 -1.3503
  162DOPC   H5Y19618   6.352   6.328  14.766  0.1440  0.9478  0.1570
  162DOPC   C3619619   6.249   6.362  14.575 -0.1757  0.3537  0.0701
  162DOPC   H6X19620   6.266   6.260  14.534  0.8763  0.6719 -0.3094
  162DOPC   H6Y19621   6.150   6.395  14.535  0.7838  1.4578 -1.5281
  162DOPC   C3719622   6.360   6.448  14.508 -0.6906  0.0452  0.1216
  162DOPC   H7X19623   6.331   6.551  14.535 -0.6944  0.1946 -0.4398
  162DOPC   H7Y19624   6.463   6.421  14.540  0.6391  1.9399 -2.2170
  162DOPC   C3819625   6.347   6.433  14.353  0.1275 -0.6329 -0.7263
  162DOPC   H8X19626   6.401   6.512  14.296 -0.7452  0.9711  0.5593
  162DOPC   H8Y19627   6.241   6.452  14.324  0.3461 -0.4088 -1.3862
  162DOPC   C3919628   6.387   6.298  14.298  0.0988  0.1284 -0.4888
  162DOPC   H9X19629   6.484   6.266  14.338  0.3038  1.3817  0.0558
  162DOPC  C31019630   6.316   6.206  14.218 -0.1729  0.1532 -0.3028
  162DOPC  H10X19631   6.372   6.119  14.182  1.2323  0.6194  0.6417
  162DOPC  C31119632   6.174   6.219  14.172  0.2761  0.2055 -0.3614
  162DOPC  H11X19633   6.116   6.302  14.217  1.6466  2.7620 -2.9286
  162DOPC  H11Y19634   6.119   6.126  14.199  2.0395 -0.0522  2.7186
  162DOPC  C31219635   6.169   6.229  14.020  0.0817 -0.0075 -1.1360
  162DOPC  H12X19636   6.063   6.221  13.988  0.2169  1.3454 -2.0174
  162DOPC  H12Y19637   6.221   6.145  13.970  0.2043 -0.2922 -0.5315
  162DOPC  C31319638   6.208   6.370  13.976 -1.0504  0.1212  0.0774
  162DOPC  H13X19639   6.162   6.452  14.036  0.6868  0.0392  1.6046
  162DOPC  H13Y19640   6.316   6.377  14.000 -0.7232 -1.6402 -0.6970
  162DOPC  C31419641   6.207   6.395  13.822 -0.2830  0.5428  0.0475
  162DOPC  H14X19642   6.283   6.334  13.769  0.1970  1.4281 -0.2886
  162DOPC  H14Y19643   6.107   6.364  13.785 -1.1892  1.9217  1.2115
  162DOPC  C31519644   6.235   6.544  13.780 -0.7395 -0.1219 -0.2625
  162DOPC  H15X19645   6.337   6.566  13.817 -0.3161 -0.0053 -1.4341
  162DOPC  H15Y19646   6.159   6.611  13.826  0.0150  0.6186 -0.0631
  162DOPC  C31619647   6.238   6.569  13.632 -0.0597  0.4238  0.2409
  162DOPC  H16X19648   6.324   6.513  13.591 -0.4912 -1.6571  1.9958
  162DOPC  H16Y19649   6.148   6.524  13.587 -1.0715  1.3743  1.2306
  162DOPC  C31719650   6.227   6.714  13.583  0.3265 -0.2100  0.2992
  162DOPC  H17X19651   6.122   6.746  13.602  0.0160  0.0701 -1.6276
  162DOPC  H17Y19652   6.302   6.777  13.636 -1.0567  1.6428  0.1784
  162DOPC  C31819653   6.250   6.730  13.432 -0.3276  0.1141 -0.2448
  162DOPC  H18X19654   6.183   6.659  13.379 -1.2809 -0.2228  1.3620
  162DOPC  H18Y19655   6.225   6.836  13.411 -2.7164 -0.5407 -0.9752
  162DOPC  H18Z19656   6.358   6.708  13.414 -0.1461 -0.0343  0.9449
  163DOPC     N19657   5.780   3.155  16.785 -0.2145 -0.0292  0.6507
  163DOPC   C1219658   5.667   3.180  16.681 -0.0810  0.4133  0.5491
  163DOPC  H12A19659   5.618   3.273  16.704 -0.1294  0.3430  0.7275
  163DOPC  H12B19660   5.598   3.097  16.691  1.3418 -1.5181 -3.3073
  163DOPC   C1319661   5.724   3.141  16.916 -0.7412 -0.4061  0.0701
  163DOPC  H13A19662   5.789   3.148  17.002 -0.8175  0.4042  0.0746
  163DOPC  H13B19663   5.665   3.230  16.931  0.9492  0.9985 -1.2182
  163DOPC  H13C19664   5.670   3.048  16.928  2.8606 -2.7387 -0.3143
  163DOPC   C1419665   5.889   3.257  16.791  0.7721  0.6980 -0.3336
  163DOPC  H14A19666   5.969   3.223  16.855 -1.8847 -1.4903  2.1574
  163DOPC  H14B19667   5.930   3.289  16.697  0.4741  0.2637 -0.6150
  163DOPC  H14C19668   5.833   3.341  16.830 -2.7213  0.0426 -3.3244
  163DOPC   C1519669   5.844   3.022  16.742  0.2251 -0.8179  0.1539
  163DOPC  H15A19670   5.773   2.941  16.732  0.8081 -1.1506 -1.6369
  163DOPC  H15B19671   5.910   2.991  16.821 -0.0585  2.2196  1.7272
  163DOPC  H15C19672   5.891   3.016  16.645 -3.1150 -1.5541 -1.5924
  163DOPC   C1119673   5.719   3.178  16.531 -0.1509 -0.5996  0.1548
  163DOPC  H11A19674   5.762   3.080  16.502 -0.3646 -0.8663  0.7274
  163DOPC  H11B19675   5.632   3.192  16.463 -1.4220  0.5566  1.9387
  163DOPC     P19676   5.920   3.297  16.414 -0.4860  0.2690  0.5464
  163DOPC   O1319677   6.030   3.202  16.438  0.5048 -0.2681 -0.0250
  163DOPC   O1419678   5.959   3.439  16.406 -0.3690 -0.0704 -0.2549
  163DOPC   O1219679   5.811   3.293  16.526 -0.0472  0.3257 -0.1358
  163DOPC   O1119680   5.847   3.258  16.268 -0.0114  0.5011  0.2327
  163DOPC    C119681   5.763   3.357  16.210  0.9772 -0.0236 -0.2829
  163DOPC    HA19682   5.797   3.460  16.237 -0.8818  0.2847  1.1004
  163DOPC    HB19683   5.659   3.350  16.248  0.3856  0.6393 -1.7025
  163DOPC    C219684   5.749   3.339  16.060  0.1486  0.4428 -0.4552
  163DOPC    HS19685   5.699   3.429  16.017 -0.0410 -0.3853 -2.0020
  163DOPC   O2119686   5.678   3.213  16.030  0.3627 -0.1475 -0.2699
  163DOPC   C2119687   5.547   3.228  16.036 -0.9098  0.4004  0.5882
  163DOPC   O2219688   5.487   3.331  16.057  0.3285  0.3560 -0.4546
  163DOPC   C2219689   5.479   3.096  16.000 -0.4612 -0.6016  0.7211
  163DOPC   H2R19690   5.433   3.055  16.093 -1.5302 -1.7484 -0.2800
  163DOPC   H2S19691   5.552   3.021  15.962  0.5849  1.1173 -0.8607
  163DOPC    C319692   5.883   3.337  15.993 -0.1214  0.2672 -0.3923
  163DOPC    HX19693   5.941   3.247  16.020 -0.5039 -1.5447 -4.7526
  163DOPC    HY19694   5.945   3.427  16.015  0.8957 -0.2143 -1.1698
  163DOPC   O3119695   5.871   3.349  15.849 -0.2610  0.2681  0.5005
  163DOPC   C3119696   5.892   3.243  15.777  0.8136  0.1202 -0.3751
  163DOPC   O3219697   5.910   3.129  15.819 -0.5089 -0.7066 -0.0847
  163DOPC   C3219698   5.866   3.287  15.631  0.2554 -0.6182  0.1580
  163DOPC   H2X19699   5.767   3.336  15.619  1.2318  1.3068 -0.4028
  163DOPC   H2Y19700   5.941   3.363  15.601 -1.3530  0.8315 -0.3725
  163DOPC   C2319701   5.382   3.115  15.882 -1.0082 -0.6931  0.2504
  163DOPC   H3R19702   5.312   3.195  15.914  1.2243  2.0021 -1.1310
  163DOPC   H3S19703   5.323   3.024  15.858 -1.7177 -0.1829  0.0166
  163DOPC   C2419704   5.463   3.166  15.758 -0.3576  0.1655  0.8583
  163DOPC   H4R19705   5.545   3.095  15.735 -0.1710  0.5503  0.3184
  163DOPC   H4S19706   5.511   3.266  15.770  0.6244 -0.3690  1.5076
  163DOPC   C2519707   5.376   3.148  15.632 -0.0508 -0.1333 -0.1661
  163DOPC   H5R19708   5.273   3.188  15.645 -0.7217 -1.3347 -1.4836
  163DOPC   H5S19709   5.349   3.041  15.618  0.4113 -0.6572  2.4161
  163DOPC   C2619710   5.442   3.211  15.506 -0.0798  0.1939 -0.2953
  163DOPC   H6R19711   5.545   3.172  15.493 -0.4183 -0.0778 -2.5937
  163DOPC   H6S19712   5.442   3.322  15.514 -0.9013  0.3716 -2.2786
  163DOPC   C2719713   5.360   3.169  15.380 -0.0792  0.1505  0.0149
  163DOPC   H7R19714   5.280   3.242  15.354  0.2323 -0.1008 -1.7548
  163DOPC   H7S19715   5.315   3.071  15.406  0.8847 -0.1452  0.5902
  163DOPC   C2819716   5.454   3.151  15.253 -0.5315  0.4228 -0.4940
  163DOPC   H8R19717   5.397   3.082  15.188  0.9699 -0.8010 -0.5661
  163DOPC   H8S19718   5.553   3.105  15.273 -0.7888 -0.4364 -1.1602
  163DOPC   C2919719   5.483   3.278  15.180  0.6048  0.5119 -0.3316
  163DOPC   H9R19720   5.474   3.370  15.240 -1.6180  1.5198 -2.0769
  163DOPC  C21019721   5.506   3.295  15.052 -0.0807  0.3761 -0.3723
  163DOPC  H10R19722   5.514   3.401  15.023 -0.4846  0.8546  1.2056
  163DOPC  C21119723   5.514   3.189  14.951 -0.8487  0.7228 -0.1576
  163DOPC  H11R19724   5.564   3.100  14.995 -1.4443  1.1915  1.5440
  163DOPC  H11S19725   5.576   3.219  14.863 -1.1259  0.7407 -0.3487
  163DOPC  C21219726   5.377   3.153  14.894  0.1805 -0.1683 -0.3035
  163DOPC  H12R19727   5.312   3.124  14.980  1.0846  0.9253  0.7834
  163DOPC  H12S19728   5.388   3.063  14.831 -0.9602  0.4069 -1.3676
  163DOPC  C21319729   5.311   3.271  14.805  0.2150  0.5692  0.3078
  163DOPC  H13R19730   5.329   3.370  14.851  0.2021  0.6968  0.0373
  163DOPC  H13S19731   5.200   3.260  14.802  0.0891  1.8392 -0.4789
  163DOPC  C21419732   5.358   3.278  14.659 -0.3345 -0.4566 -0.4440
  163DOPC  H14R19733   5.462   3.315  14.657 -0.5136  0.2680  1.7238
  163DOPC  H14S19734   5.293   3.353  14.608  0.0338  1.8175  2.2351
  163DOPC  C21519735   5.338   3.147  14.584 -1.0459 -0.5179  0.6741
  163DOPC  H15R19736   5.245   3.092  14.612 -0.1517 -1.9150  0.9641
  163DOPC  H15S19737   5.415   3.078  14.622  1.9138  2.8019  1.2278
  163DOPC  C21619738   5.340   3.168  14.433  0.1101 -0.0930  0.2674
  163DOPC  H16R19739   5.447   3.181  14.407 -0.4096  2.1549 -0.9941
  163DOPC  H16S19740   5.283   3.258  14.400 -1.3989 -1.1912 -0.2107
  163DOPC  C21719741   5.291   3.052  14.358  0.0177 -0.7497  0.4625
  163DOPC  H17R19742   5.199   3.003  14.396 -0.8388 -1.0871 -1.8905
  163DOPC  H17S19743   5.364   2.969  14.372  0.3178 -0.5220  0.2483
  163DOPC  C21819744   5.274   3.080  14.206 -0.5571 -0.0075 -0.5430
  163DOPC  H18R19745   5.366   3.122  14.161 -1.5193 -0.0553 -2.6414
  163DOPC  H18S19746   5.192   3.151  14.183 -0.2899  0.3580 -0.3827
  163DOPC  H18T19747   5.258   2.987  14.148 -2.3946  0.3421 -0.6568
  163DOPC   C3319748   5.882   3.171  15.524 -0.2275 -0.2831  0.5641
  163DOPC   H3X19749   5.805   3.094  15.545  0.7182 -0.9182  1.8652
  163DOPC   H3Y19750   5.980   3.124  15.547  1.5501  2.1189 -1.4915
  163DOPC   C3419751   5.875   3.226  15.387 -0.7245 -1.0754 -0.4984
  163DOPC   H4X19752   5.954   3.304  15.384  0.2810 -2.0702 -0.5702
  163DOPC   H4Y19753   5.775   3.274  15.373 -1.1649 -2.2848 -1.7838
  163DOPC   C3519754   5.887   3.125  15.272  0.4767 -0.4261 -0.3097
  163DOPC   H5X19755   5.795   3.069  15.245 -0.9931  2.6642 -2.2133
  163DOPC   H5Y19756   5.971   3.054  15.288  0.0183 -0.8084  0.4425
  163DOPC   C3619757   5.907   3.197  15.133  0.3095  1.0596 -0.1104
  163DOPC   H6X19758   5.814   3.252  15.106  0.6100  1.2834 -0.7135
  163DOPC   H6Y19759   5.984   3.275  15.152 -0.5190  2.1785 -1.1368
  163DOPC   C3719760   5.961   3.089  15.037  0.3810  0.8048  0.5406
  163DOPC   H7X19761   6.055   3.049  15.081  0.0245  0.8590  1.3631
  163DOPC   H7Y19762   5.894   3.003  15.020  0.0712  0.8039  1.7010
  163DOPC   C3819763   6.009   3.137  14.894  0.3525  0.2425 -0.7096
  163DOPC   H8X19764   6.082   3.062  14.858  1.6537  1.6393 -1.1231
  163DOPC   H8Y19765   6.065   3.233  14.898  1.6419 -0.5158 -0.1500
  163DOPC   C3919766   5.885   3.143  14.814 -0.3596 -0.6480  0.5812
  163DOPC   H9X19767   5.796   3.171  14.872  1.0889 -0.0728  2.6429
  163DOPC  C31019768   5.880   3.116  14.680  0.7555 -0.0928 -0.6247
  163DOPC  H10X19769   5.781   3.130  14.636  0.4156  2.7735  0.7943
  163DOPC  C31119770   5.992   3.079  14.588 -0.1131  0.0903  0.3307
  163DOPC  H11X19771   5.975   2.980  14.541 -0.5448  0.7355 -0.9212
  163DOPC  H11Y19772   6.091   3.074  14.637 -0.0518 -1.0207  0.1004
  163DOPC  C31219773   5.998   3.170  14.465 -0.7918 -0.1281  0.1630
  163DOPC  H12X19774   5.998   3.278  14.490 -0.1967 -0.1300  0.1844
  163DOPC  H12Y19775   5.907   3.162  14.402 -1.0760  1.4984  0.3279
  163DOPC  C31319776   6.120   3.134  14.370  0.4277 -0.3543 -0.2629
  163DOPC  H13X19777   6.108   3.202  14.283  2.0883 -2.6533 -2.4505
  163DOPC  H13Y19778   6.214   3.172  14.416  0.3173  1.5415 -1.5038
  163DOPC  C31419779   6.133   2.989  14.326 -0.4686 -0.0332 -0.0270
  163DOPC  H14X19780   6.202   2.943  14.400 -0.0424  1.5181  0.5776
  163DOPC  H14Y19781   6.038   2.934  14.310 -0.4880  0.4121 -1.6185
  163DOPC  C31519782   6.215   2.975  14.197 -0.7003  0.2526  0.3693
  163DOPC  H15X19783   6.151   3.019  14.118  1.3967  0.2222 -1.4434
  163DOPC  H15Y19784   6.239   2.870  14.168  1.4861  0.4748  1.2009
  163DOPC  C31619785   6.346   3.054  14.195  0.3371  0.5253  0.2314
  163DOPC  H16X19786   6.329   3.163  14.208  0.0739  0.5253 -0.1193
  163DOPC  H16Y19787   6.405   3.009  14.277  1.6538 -0.8102 -1.3873
  163DOPC  C31719788   6.421   3.038  14.063 -0.0751  0.1279 -0.2684
  163DOPC  H17X19789   6.522   3.081  14.082  0.5430 -1.3289 -0.0531
  163DOPC  H17Y19790   6.458   2.934  14.048  0.5831  0.5956 -2.1639
  163DOPC  C31819791   6.378   3.116  13.940 -0.4670 -0.3008  0.0666
  163DOPC  H18X19792   6.376   3.221  13.976 -0.4403 -0.0590 -0.6178
  163DOPC  H18Y19793   6.433   3.114  13.844 -3.4479 -1.7458 -1.7844
  163DOPC  H18Z19794   6.279   3.079  13.906 -1.0456  1.3803 -0.2069
  164DOPC     N19795   0.104   1.697  16.565  0.5457  0.2259 -0.0111
  164DOPC   C1219796   0.073   1.578  16.475  0.3690 -0.4576  0.1333
  164DOPC  H12A19797  -0.011   1.522  16.515  1.1659 -0.2453  2.2147
  164DOPC  H12B19798   0.158   1.512  16.483  1.2347  0.2577 -2.1764
  164DOPC   C1319799  -0.003   1.795  16.544  0.5022 -0.2413  0.6133
  164DOPC  H13A19800  -0.014   1.830  16.442  1.3199 -1.1135  0.2131
  164DOPC  H13B19801  -0.101   1.757  16.568 -0.0407  0.7211  0.0140
  164DOPC  H13C19802   0.019   1.877  16.610 -0.8880  0.8712 -0.2382
  164DOPC   C1419803   0.239   1.762  16.533 -0.2990  0.2849 -0.2367
  164DOPC  H14A19804   0.315   1.686  16.543 -0.7632 -0.1534  0.0382
  164DOPC  H14B19805   0.235   1.804  16.433  0.8935 -1.1357 -0.9185
  164DOPC  H14C19806   0.258   1.845  16.599 -1.1691 -0.4847  1.0217
  164DOPC   C1519807   0.090   1.657  16.711  0.0080 -0.1731  0.5857
  164DOPC  H15A19808   0.117   1.743  16.771  3.1452 -0.2032 -0.6125
  164DOPC  H15B19809   0.161   1.583  16.743  2.0190  2.0747  1.5999
  164DOPC  H15C19810  -0.010   1.623  16.736  0.3615 -0.5767  1.4967
  164DOPC   C1119811   0.035   1.607  16.322  0.0570 -0.4392 -0.5182
  164DOPC  H11A19812  -0.072   1.639  16.321  1.2622  4.5752  0.2750
  164DOPC  H11B19813   0.086   1.702  16.293  0.5673  0.0753  1.8761
  164DOPC     P19814   0.201   1.449  16.195 -0.1434 -0.1024 -0.2819
  164DOPC   O1319815   0.188   1.355  16.079 -0.1895  0.5273  0.2101
  164DOPC   O1419816   0.272   1.402  16.315 -0.2525  0.0860  0.4492
  164DOPC   O1219817   0.063   1.493  16.245 -0.0944  0.2079 -0.2739
  164DOPC   O1119818   0.259   1.580  16.143  0.8732  0.5356  0.6422
  164DOPC    C119819   0.395   1.583  16.083  0.0346 -0.1276 -0.2252
  164DOPC    HA19820   0.431   1.479  16.072 -1.0676 -0.5702  0.1842
  164DOPC    HB19821   0.460   1.627  16.162 -0.0891  1.4478 -0.9630
  164DOPC    C219822   0.401   1.663  15.952  0.5734  0.9324 -0.6122
  164DOPC    HS19823   0.487   1.624  15.894  1.5749  1.1050  0.7169
  164DOPC   O2119824   0.423   1.804  15.969  0.1780 -0.6846  0.2313
  164DOPC   C2119825   0.549   1.843  15.996  0.0241 -0.0980  0.1843
  164DOPC   O2219826   0.641   1.770  16.005 -0.8239  0.1589  0.2880
  164DOPC   C2219827   0.559   1.994  16.013  0.3290 -0.2878 -0.8401
  164DOPC   H2R19828   0.637   2.000  16.091 -0.8589 -0.5552  0.4059
  164DOPC   H2S19829   0.465   2.040  16.052  0.7088 -0.5879  0.4886
  164DOPC    C319830   0.284   1.628  15.857 -0.3368  0.2982  0.2916
  164DOPC    HX19831   0.197   1.666  15.914 -1.7008  1.3365 -2.2938
  164DOPC    HY19832   0.278   1.518  15.841  2.3688  0.2666 -1.2010
  164DOPC   O3119833   0.298   1.700  15.734  0.4480 -0.1581  0.0209
  164DOPC   C3119834   0.224   1.639  15.638  0.2925 -0.7443 -0.3258
  164DOPC   O3219835   0.164   1.536  15.645  0.3824  0.4800  0.0596
  164DOPC   C3219836   0.210   1.721  15.515  0.4598  0.1748  1.3243
  164DOPC   H2X19837   0.106   1.698  15.482  0.6915 -0.0292  0.7132
  164DOPC   H2Y19838   0.224   1.829  15.534  1.0649  0.4880 -0.6534
  164DOPC   C2319839   0.610   2.065  15.891  0.1050  0.1705  1.1190
  164DOPC   H3R19840   0.713   2.036  15.863 -0.2283 -0.4963  0.5489
  164DOPC   H3S19841   0.630   2.169  15.923  0.9371  0.5696 -0.5954
  164DOPC   C2419842   0.512   2.057  15.774  0.1433  0.1534  0.0013
  164DOPC   H4R19843   0.411   2.089  15.808 -0.8455 -2.2443 -0.4116
  164DOPC   H4S19844   0.504   1.953  15.735  1.0503 -0.1127  0.4810
  164DOPC   C2519845   0.563   2.127  15.657 -0.4107 -0.7490 -0.0588
  164DOPC   H5R19846   0.489   2.094  15.582 -0.4495  0.3749 -0.5460
  164DOPC   H5S19847   0.664   2.092  15.626  0.3695 -0.2858  1.8239
  164DOPC   C2619848   0.556   2.285  15.669 -0.0255 -0.5749  0.2960
  164DOPC   H6R19849   0.603   2.331  15.580  0.9215 -0.4160  0.8647
  164DOPC   H6S19850   0.615   2.318  15.758 -1.0581  2.7480 -0.1141
  164DOPC   C2719851   0.422   2.359  15.679  0.2397 -0.2546 -0.0496
  164DOPC   H7R19852   0.376   2.333  15.776 -3.0103 -3.8836 -2.2382
  164DOPC   H7S19853   0.357   2.308  15.605  0.5358 -0.1143 -0.4105
  164DOPC   C2819854   0.422   2.509  15.649 -0.6441  0.2821  0.1750
  164DOPC   H8R19855   0.446   2.512  15.540 -1.1951 -1.9800 -0.0723
  164DOPC   H8S19856   0.510   2.544  15.706 -0.0979 -1.0575  0.2080
  164DOPC   C2919857   0.299   2.587  15.664  0.5235  0.2635 -0.0338
  164DOPC   H9R19858   0.258   2.565  15.764  0.7627 -2.1571 -0.3994
  164DOPC  C21019859   0.247   2.688  15.583  0.1514  0.0209 -0.8833
  164DOPC  H10R19860   0.149   2.733  15.606 -0.7116 -2.2365  0.1153
  164DOPC  C21119861   0.309   2.744  15.461  0.2019  0.8376 -0.2499
  164DOPC  H11R19862   0.395   2.682  15.427 -0.2467 -0.2894  0.6236
  164DOPC  H11S19863   0.368   2.837  15.481  3.0206 -0.4104 -2.0573
  164DOPC  C21219864   0.216   2.752  15.345  0.0967 -0.0185 -0.1698
  164DOPC  H12R19865   0.134   2.824  15.367  0.2478  0.1801 -0.2510
  164DOPC  H12S19866   0.167   2.653  15.329  1.7237 -0.7522 -0.7776
  164DOPC  C21319867   0.275   2.788  15.209  0.1768 -0.8353 -0.0946
  164DOPC  H13R19868   0.271   2.689  15.160 -0.0486 -0.4325 -0.9069
  164DOPC  H13S19869   0.374   2.836  15.223 -0.7090  0.9243  0.4501
  164DOPC  C21419870   0.190   2.883  15.126 -0.3962  0.0986  0.3505
  164DOPC  H14R19871   0.214   2.986  15.160  0.4022 -0.5143  1.7462
  164DOPC  H14S19872   0.082   2.865  15.145 -0.5685  0.6345 -0.0831
  164DOPC  C21519873   0.226   2.875  14.978  0.2383 -0.3138 -0.0706
  164DOPC  H15R19874   0.215   2.771  14.940  0.1404 -1.0724  1.8791
  164DOPC  H15S19875   0.335   2.880  14.960  0.1175  0.0863 -0.7103
  164DOPC  C21619876   0.158   2.978  14.893 -0.2586 -0.0477  0.2173
  164DOPC  H16R19877   0.178   3.082  14.927 -1.1249  0.1178  0.2302
  164DOPC  H16S19878   0.049   2.957  14.888  0.1419 -2.3569  0.3937
  164DOPC  C21719879   0.201   2.965  14.740 -0.3263 -0.1905  0.0139
  164DOPC  H17R19880   0.219   2.859  14.713  3.4944 -0.0175  1.3247
  164DOPC  H17S19881   0.294   3.022  14.720  0.6055 -0.8404  2.1861
  164DOPC  C21819882   0.086   3.013  14.654 -0.3677 -0.1989  0.1752
  164DOPC  H18R19883   0.001   2.941  14.652 -0.8929  0.3976  0.5494
  164DOPC  H18S19884   0.126   3.019  14.550 -0.1084 -1.0957  0.2203
  164DOPC  H18T19885   0.054   3.109  14.699 -0.5322 -0.1464 -0.0521
  164DOPC   C3319886   0.313   1.690  15.390 -0.5118 -0.3148 -0.4083
  164DOPC   H3X19887   0.331   1.581  15.380  1.7930  0.0245 -0.3057
  164DOPC   H3Y19888   0.411   1.738  15.408  0.3950 -2.4494  0.6981
  164DOPC   C3419889   0.267   1.733  15.253  0.3912  0.1362  0.4780
  164DOPC   H4X19890   0.228   1.834  15.277  0.5891  0.4793 -0.6021
  164DOPC   H4Y19891   0.176   1.679  15.220  0.0989  0.8625  0.0715
  164DOPC   C3519892   0.363   1.740  15.133 -0.2196  0.3788  0.1759
  164DOPC   H5X19893   0.414   1.643  15.116  0.1913  0.9682 -2.3531
  164DOPC   H5Y19894   0.439   1.816  15.159 -0.7986  0.7774  0.7471
  164DOPC   C3619895   0.290   1.781  15.002  0.5008  0.0847 -0.7350
  164DOPC   H6X19896   0.237   1.688  14.974  0.4321  0.5370 -2.1464
  164DOPC   H6Y19897   0.214   1.861  15.018  0.1802 -0.5295  1.0963
  164DOPC   C3719898   0.376   1.831  14.890 -0.1092  0.1836 -0.0150
  164DOPC   H7X19899   0.440   1.912  14.930  1.0859 -0.1244 -1.2339
  164DOPC   H7Y19900   0.437   1.750  14.844  0.4781 -0.3687  1.6774
  164DOPC   C3819901   0.293   1.883  14.769 -0.2858 -0.1153 -1.3176
  164DOPC   H8X19902   0.349   1.949  14.700 -1.6661  0.7068 -1.6998
  164DOPC   H8Y19903   0.216   1.951  14.811  1.2753  0.9058  0.0356
  164DOPC   C3919904   0.238   1.767  14.689  0.2981  0.7784  0.6422
  164DOPC   H9X19905   0.165   1.707  14.746  0.3382  0.5740  0.4770
  164DOPC  C31019906   0.258   1.738  14.562 -0.0302 -0.3693  0.1900
  164DOPC  H10X19907   0.208   1.656  14.508  0.2408 -0.1957 -0.3272
  164DOPC  C31119908   0.329   1.815  14.463  0.4641 -0.3066 -0.2061
  164DOPC  H11X19909   0.437   1.791  14.477  1.3452  1.9718 -2.3336
  164DOPC  H11Y19910   0.309   1.922  14.484 -2.2961 -0.5863 -0.9758
  164DOPC  C31219911   0.287   1.787  14.315 -0.0425 -0.8592  0.1308
  164DOPC  H12X19912   0.185   1.819  14.285  0.0552 -0.8751 -0.2186
  164DOPC  H12Y19913   0.293   1.677  14.296 -0.0813 -1.1016  1.4455
  164DOPC  C31319914   0.399   1.855  14.234  0.6519 -0.4054 -0.5528
  164DOPC  H13X19915   0.414   1.955  14.279  0.2205  1.0300 -3.3679
  164DOPC  H13Y19916   0.498   1.806  14.248  2.3640  2.3249 -2.1575
  164DOPC  C31419917   0.380   1.871  14.085 -0.4676 -0.3043  0.2538
  164DOPC  H14X19918   0.479   1.911  14.055 -0.2673 -0.8239  0.2013
  164DOPC  H14Y19919   0.300   1.947  14.070 -0.4083 -0.4692 -0.9410
  164DOPC  C31519920   0.356   1.737  14.008 -0.9222  0.3118  0.6683
  164DOPC  H15X19921   0.269   1.747  13.941  0.5764  1.5753 -1.1949
  164DOPC  H15Y19922   0.326   1.662  14.084 -0.4061 -0.2546  0.3262
  164DOPC  C31619923   0.481   1.702  13.929 -0.0727  0.2594  0.5696
  164DOPC  H16X19924   0.508   1.777  13.852 -1.9334  0.6485  0.2380
  164DOPC  H16Y19925   0.563   1.689  14.003 -0.5210  2.3304  1.4754
  164DOPC  C31719926   0.466   1.571  13.849  0.1549  0.0305 -0.0031
  164DOPC  H17X19927   0.412   1.505  13.920 -0.7073 -0.6261 -1.2334
  164DOPC  H17Y19928   0.393   1.586  13.767  0.2246 -0.4971 -0.1692
  164DOPC  C31819929   0.587   1.499  13.805  0.4895  0.5073  0.1637
  164DOPC  H18X19930   0.557   1.397  13.772 -1.5984  1.3098 -0.5833
  164DOPC  H18Y19931   0.621   1.552  13.713  2.5846 -1.5041 -0.3034
  164DOPC  H18Z19932   0.671   1.508  13.877 -0.0051  1.5499  0.6273
  165DOPC     N19933   4.049   0.803  16.272  0.0181 -0.2930 -0.1431
  165DOPC   C1219934   3.957   0.784  16.158 -0.0040  0.6577 -0.4309
  165DOPC  H12A19935   4.011   0.768  16.066 -0.0641  0.5964 -0.4564
  165DOPC  H12B19936   3.898   0.873  16.142 -2.1740 -0.6366 -0.1002
  165DOPC   C1319937   3.974   0.860  16.389 -0.4763  0.2662 -0.1627
  165DOPC  H13A19938   4.036   0.901  16.467 -0.1934 -1.8580  0.7767
  165DOPC  H13B19939   3.900   0.932  16.355 -0.2918 -0.9326 -3.4623
  165DOPC  H13C19940   3.913   0.782  16.431  0.3904 -0.7320 -0.7068
  165DOPC   C1419941   4.150   0.909  16.238 -0.2689  0.6020  0.2116
  165DOPC  H14A19942   4.228   0.915  16.312  0.9840 -0.1492 -1.0077
  165DOPC  H14B19943   4.213   0.866  16.162 -2.4654 -2.3145 -0.1563
  165DOPC  H14C19944   4.120   1.010  16.213  3.3038  1.6758 -0.3338
  165DOPC   C1519945   4.124   0.679  16.307 -0.0662 -0.2367  0.5006
  165DOPC  H15A19946   4.057   0.596  16.328 -2.5624  1.3808 -0.6280
  165DOPC  H15B19947   4.194   0.690  16.389  0.2623  1.3998  0.0238
  165DOPC  H15C19948   4.178   0.638  16.223  1.3023 -0.0393  1.2513
  165DOPC   C1119949   3.856   0.659  16.167 -0.5101 -0.3946 -0.0297
  165DOPC  H11A19950   3.806   0.663  16.266 -0.1536 -0.5828  0.1602
  165DOPC  H11B19951   3.777   0.661  16.090  0.0695  1.0280 -0.6169
  165DOPC     P19952   3.993   0.480  16.029  0.3396 -0.0608  0.1206
  165DOPC   O1319953   4.038   0.345  16.078  0.2283  0.1566 -0.1811
  165DOPC   O1419954   4.107   0.558  15.977 -0.1547  0.7472  0.3049
  165DOPC   O1219955   3.926   0.537  16.158  0.4528  0.2344  0.4921
  165DOPC   O1119956   3.868   0.479  15.944 -0.5004 -0.1650  0.1583
  165DOPC    C119957   3.773   0.367  15.953 -0.3755 -0.3080  0.3084
  165DOPC    HA19958   3.712   0.380  16.045 -0.9085  0.1940 -0.1029
  165DOPC    HB19959   3.829   0.272  15.957  1.9875  1.0006  0.2174
  165DOPC    C219960   3.676   0.359  15.833 -0.6772  0.0276 -0.0556
  165DOPC    HS19961   3.618   0.264  15.838 -0.0309 -0.4873 -1.8092
  165DOPC   O2119962   3.739   0.379  15.709  0.0571 -0.0601 -0.0691
  165DOPC   C2119963   3.817   0.273  15.678  0.5275  0.3291  0.1106
  165DOPC   O2219964   3.833   0.171  15.746 -0.0288  0.3246  0.7575
  165DOPC   C2219965   3.874   0.291  15.538 -0.2684 -0.0523  0.0637
  165DOPC   H2R19966   3.900   0.188  15.505 -3.3761 -1.1580  0.6908
  165DOPC   H2S19967   3.965   0.354  15.539  0.0581 -0.3898 -2.3404
  165DOPC    C319968   3.557   0.462  15.846  0.3708  0.0064  0.1998
  165DOPC    HX19969   3.604   0.553  15.888 -0.7297  0.3336  0.7721
  165DOPC    HY19970   3.499   0.414  15.928  1.4183  0.1909  1.0742
  165DOPC   O3119971   3.472   0.474  15.727  0.1362 -0.0401 -0.7182
  165DOPC   C3119972   3.501   0.576  15.652  0.1396 -0.2437 -0.3719
  165DOPC   O3219973   3.575   0.670  15.683  0.1984 -0.4919  0.6367
  165DOPC   C3219974   3.423   0.578  15.521 -0.5902  0.1802  0.8218
  165DOPC   H2X19975   3.322   0.551  15.560 -0.1510 -1.1367  1.0721
  165DOPC   H2Y19976   3.425   0.685  15.490  1.8107 -0.6039 -2.2372
  165DOPC   C2319977   3.770   0.338  15.429  0.2799  0.5973  0.9632
  165DOPC   H3R19978   3.788   0.444  15.400  2.8372 -0.0450 -0.1324
  165DOPC   H3S19979   3.668   0.324  15.469  0.5036 -2.5846  0.7018
  165DOPC   C2419980   3.796   0.256  15.297 -0.2783 -0.1978 -0.0552
  165DOPC   H4R19981   3.714   0.284  15.229  2.3418 -0.5571 -3.6523
  165DOPC   H4S19982   3.788   0.151  15.332 -0.1383  0.1778  1.1702
  165DOPC   C2519983   3.923   0.277  15.216 -0.2711 -0.3109  0.2424
  165DOPC   H5R19984   3.908   0.220  15.122  0.4085  1.4167 -0.9442
  165DOPC   H5S19985   4.003   0.219  15.267  0.3774  0.3516 -0.0200
  165DOPC   C2619986   3.966   0.418  15.194  0.3267  0.0364  0.0978
  165DOPC   H6R19987   4.061   0.415  15.137  1.2557  0.2791  1.5862
  165DOPC   H6S19988   3.992   0.467  15.291 -0.1039  2.6926 -1.0396
  165DOPC   C2719989   3.865   0.515  15.120  0.0799 -0.5651  0.3667
  165DOPC   H7R19990   3.928   0.602  15.090 -0.0529 -0.5871  0.0239
  165DOPC   H7S19991   3.788   0.542  15.195  0.9063  1.2415  0.6016
  165DOPC   C2819992   3.786   0.453  15.003  0.0849  0.1558  0.4221
  165DOPC   H8R19993   3.704   0.519  14.966  1.4540  1.5840 -0.2239
  165DOPC   H8S19994   3.728   0.371  15.050  1.2708 -0.3136  1.0891
  165DOPC   C2919995   3.860   0.419  14.877 -0.2354 -0.5681  0.5093
  165DOPC   H9R19996   3.948   0.355  14.881 -0.1101 -0.5039 -0.9442
  165DOPC  C21019997   3.823   0.464  14.761  0.2214 -0.1974  0.5181
  165DOPC  H10R19998   3.874   0.421  14.673 -1.0231  1.1003 -0.9140
  165DOPC  C21119999   3.704   0.543  14.717  0.2760 -0.6897  0.3185
  165DOPC  H11R20000   3.729   0.652  14.721  1.6259 -1.0042  2.2019
  165DOPC  H11S20001   3.627   0.531  14.797 -0.1935  2.9108  0.5736
  165DOPC  C21220002   3.650   0.509  14.571  0.9327  0.3559 -0.0034
  165DOPC  H12R20003   3.581   0.424  14.586  0.6374  0.4163 -0.9675
  165DOPC  H12S20004   3.729   0.474  14.501  0.2026 -1.9213  0.2445
  165DOPC  C21320005   3.569   0.624  14.505 -0.6212  0.5151  0.3525
  165DOPC  H13R20006   3.640   0.707  14.485  0.6607 -0.2089  1.6736
  165DOPC  H13S20007   3.481   0.658  14.564 -0.6713 -0.0984  0.6362
  165DOPC  C21420008   3.517   0.574  14.368  0.4558 -0.1994 -0.5960
  165DOPC  H14R20009   3.480   0.470  14.382  1.5000 -0.6116 -0.7895
  165DOPC  H14S20010   3.602   0.563  14.297  0.2916 -0.5984 -0.7356
  165DOPC  C21520011   3.409   0.672  14.317  0.6040 -0.3873 -0.1580
  165DOPC  H15R20012   3.450   0.768  14.281 -0.9205  0.6143  0.6537
  165DOPC  H15S20013   3.345   0.697  14.405  0.2384 -1.4531 -0.1077
  165DOPC  C21620014   3.311   0.629  14.205  0.1141 -0.8267 -0.0459
  165DOPC  H16R20015   3.223   0.585  14.256  1.1826  0.1396  2.8212
  165DOPC  H16S20016   3.356   0.557  14.133 -0.5636 -1.6159  0.3055
  165DOPC  C21720017   3.271   0.751  14.129  0.4872  0.0231  0.1405
  165DOPC  H17R20018   3.369   0.791  14.097  1.6672 -0.2288  3.1192
  165DOPC  H17S20019   3.220   0.833  14.184 -2.3333  0.4216 -2.7601
  165DOPC  C21820020   3.174   0.712  14.019 -0.0345 -1.1884  0.1649
  165DOPC  H18R20021   3.145   0.804  13.964 -0.6124 -1.6579 -0.3335
  165DOPC  H18S20022   3.080   0.669  14.061 -0.9120  2.0877  1.8453
  165DOPC  H18T20023   3.217   0.647  13.940 -0.5606  0.2505 -1.3584
  165DOPC   C3320024   3.463   0.477  15.414  0.3694  0.0466  0.3730
  165DOPC   H3X20025   3.465   0.376  15.460  1.0919 -0.0143  0.2218
  165DOPC   H3Y20026   3.565   0.497  15.375  0.5691 -1.3528  0.1327
  165DOPC   C3420027   3.371   0.455  15.292 -0.9028 -0.4219  0.3311
  165DOPC   H4X20028   3.359   0.556  15.247 -0.1533 -1.1799 -1.6393
  165DOPC   H4Y20029   3.268   0.427  15.323 -3.3045  2.9386 -3.5014
  165DOPC   C3520030   3.426   0.355  15.184 -0.1463  0.2509 -0.0250
  165DOPC   H5X20031   3.434   0.267  15.252  1.3448  0.5056  0.1649
  165DOPC   H5Y20032   3.525   0.384  15.143 -0.5219 -0.9514 -1.9117
  165DOPC   C3620033   3.323   0.326  15.078 -0.1427  0.5939  0.7480
  165DOPC   H6X20034   3.335   0.224  15.036  0.6187  1.1792 -0.4960
  165DOPC   H6Y20035   3.217   0.336  15.109 -0.4700 -1.8089  0.5523
  165DOPC   C3720036   3.352   0.408  14.950  0.0913 -0.0607 -0.3008
  165DOPC   H7X20037   3.459   0.387  14.926 -0.3794 -2.6615 -0.3931
  165DOPC   H7Y20038   3.328   0.515  14.968 -2.8613 -0.6373 -0.2935
  165DOPC   C3820039   3.272   0.362  14.828  0.5859 -0.0699  0.5532
  165DOPC   H8X20040   3.165   0.366  14.857  0.3630 -1.1153 -0.0410
  165DOPC   H8Y20041   3.301   0.262  14.789  0.4043  0.4699 -1.0421
  165DOPC   C3920042   3.286   0.467  14.719 -0.0486  0.6701 -0.1170
  165DOPC   H9X20043   3.363   0.543  14.741 -0.7416  0.7378  2.3809
  165DOPC  C31020044   3.212   0.475  14.605  0.4552 -0.3632 -0.2452
  165DOPC  H10X20045   3.240   0.540  14.521  0.9369 -1.6607 -1.1276
  165DOPC  C31120046   3.100   0.377  14.568  0.2498 -0.1959 -0.7090
  165DOPC  H11X20047   3.001   0.401  14.612  0.8693 -1.5418  1.5560
  165DOPC  H11Y20048   3.126   0.274  14.600  2.2568 -0.2411 -2.2593
  165DOPC  C31220049   3.083   0.369  14.417  0.5992 -0.1997  0.7246
  165DOPC  H12X20050   3.088   0.470  14.371  1.0455 -1.3618 -1.9516
  165DOPC  H12Y20051   2.988   0.314  14.406  0.4477 -0.5353  3.2324
  165DOPC  C31320052   3.194   0.289  14.344 -0.1011 -0.0379  0.1815
  165DOPC  H13X20053   3.294   0.336  14.357  0.2590 -0.4576 -0.9720
  165DOPC  H13Y20054   3.192   0.196  14.405 -0.2455  1.0471  1.9113
  165DOPC  C31420055   3.167   0.278  14.196 -0.3304 -0.4575  0.1656
  165DOPC  H14X20056   3.061   0.246  14.196 -0.5631 -0.2796  4.5957
  165DOPC  H14Y20057   3.178   0.375  14.141  2.6108 -0.1788  1.0497
  165DOPC  C31520058   3.243   0.166  14.125 -0.6839  0.6018  0.2289
  165DOPC  H15X20059   3.180   0.141  14.037 -0.0212 -0.5431  0.0510
  165DOPC  H15Y20060   3.237   0.073  14.186  1.6355  0.1320 -0.1647
  165DOPC  C31620061   3.390   0.194  14.098 -0.0561 -0.4348  0.0411
  165DOPC  H16X20062   3.412   0.274  14.024  2.6509 -0.3966  0.7825
  165DOPC  H16Y20063   3.446   0.231  14.187  1.5535  1.1363 -1.5178
  165DOPC  C31720064   3.462   0.061  14.059  0.2960 -0.5005 -0.5149
  165DOPC  H17X20065   3.437  -0.009  14.142  2.3372  1.1134  1.6066
  165DOPC  H17Y20066   3.406   0.038  13.966 -2.6525  2.7708  0.2233
  165DOPC  C31820067   3.613   0.054  14.050 -0.7740  0.1977  0.4564
  165DOPC  H18X20068   3.639   0.146  13.993  2.7507  1.5592  3.7684
  165DOPC  H18Y20069   3.673   0.063  14.144  2.1453  1.5947 -1.3937
  165DOPC  H18Z20070   3.638  -0.041  13.998 -4.0697 -0.4809 -0.0482
  166DOPC     N20071   5.201   2.696  16.837  0.2332  0.0012 -0.2516
  166DOPC   C1220072   5.130   2.644  16.715 -0.3884  0.2663  0.6183
  166DOPC  H12A20073   5.076   2.722  16.663 -1.0372 -1.4773 -1.4249
  166DOPC  H12B20074   5.057   2.573  16.749 -1.5195  0.5025 -1.2228
  166DOPC   C1320075   5.116   2.785  16.919  0.8335 -0.0894  0.3735
  166DOPC  H13A20076   5.158   2.820  17.012 -1.0209  1.0899  0.8185
  166DOPC  H13B20077   5.095   2.873  16.860  0.8824  0.0768  0.6035
  166DOPC  H13C20078   5.017   2.748  16.939  0.5946  0.5279  0.3583
  166DOPC   C1420079   5.324   2.773  16.794  0.5308  0.3024 -0.1569
  166DOPC  H14A20080   5.390   2.794  16.877 -0.5742  1.3326  0.4862
  166DOPC  H14B20081   5.383   2.723  16.719 -1.4392  0.9657 -2.2794
  166DOPC  H14C20082   5.306   2.871  16.752  2.3363 -0.0687 -1.9784
  166DOPC   C1520083   5.240   2.580  16.924 -0.0484 -0.0118  0.4605
  166DOPC  H15A20084   5.305   2.508  16.877 -0.6606 -0.6784  0.6136
  166DOPC  H15B20085   5.150   2.528  16.954  0.7311 -1.9477 -0.3737
  166DOPC  H15C20086   5.288   2.623  17.011  0.6382  0.8091 -0.3058
  166DOPC   C1120087   5.212   2.569  16.601 -0.1163 -0.1574 -0.2384
  166DOPC  H11A20088   5.252   2.476  16.647 -0.6783 -0.6026 -0.6263
  166DOPC  H11B20089   5.135   2.530  16.531 -0.5019 -2.0271  1.1445
  166DOPC     P20090   5.275   2.765  16.444 -0.0437 -0.1196  0.2088
  166DOPC   O1320091   5.397   2.836  16.400  0.5659  0.5344 -0.0769
  166DOPC   O1420092   5.157   2.834  16.488 -0.3011 -0.3373 -0.3732
  166DOPC   O1220093   5.315   2.644  16.543 -0.1255  0.1562  0.1578
  166DOPC   O1120094   5.230   2.683  16.317  0.3413  0.4819  1.0165
  166DOPC    C120095   5.325   2.641  16.222  0.1579 -0.3009 -0.1763
  166DOPC    HA20096   5.301   2.540  16.182 -0.5806 -0.8320  1.5235
  166DOPC    HB20097   5.429   2.627  16.259  0.7696 -1.3916 -2.1340
  166DOPC    C220098   5.328   2.730  16.093 -0.4455  0.3131 -0.1029
  166DOPC    HS20099   5.360   2.827  16.138 -2.2786  1.2819 -0.7991
  166DOPC   O2120100   5.201   2.726  16.031  0.6045  0.1814 -0.0080
  166DOPC   C2120101   5.137   2.840  16.030 -0.0096  0.0042  0.5411
  166DOPC   O2220102   5.180   2.952  16.060 -0.3355 -0.3878 -0.3134
  166DOPC   C2220103   4.998   2.819  15.972  0.7539  0.3390  0.0824
  166DOPC   H2R20104   4.931   2.845  16.057 -0.3108 -0.9954 -0.3082
  166DOPC   H2S20105   4.993   2.710  15.953 -0.3336  0.6005 -1.2507
  166DOPC    C320106   5.444   2.671  16.008 -0.4604  0.5246 -0.0130
  166DOPC    HX20107   5.441   2.560  16.008  0.1138  0.5058 -0.1782
  166DOPC    HY20108   5.537   2.708  16.056 -0.8498 -0.7393  1.8052
  166DOPC   O3120109   5.426   2.725  15.874 -0.3782 -0.8356 -0.0403
  166DOPC   C3120110   5.532   2.693  15.792  0.0315  0.1329 -0.5636
  166DOPC   O3220111   5.615   2.608  15.816 -0.0785 -0.2600 -0.0472
  166DOPC   C3220112   5.528   2.771  15.657 -0.1070  0.3483 -0.4264
  166DOPC   H2X20113   5.436   2.733  15.606  0.3382  0.1578 -1.1128
  166DOPC   H2Y20114   5.508   2.876  15.687 -1.5066 -0.4210  1.5380
  166DOPC   C2320115   4.977   2.918  15.862  0.3340 -0.5138 -0.5297
  166DOPC   H3R20116   5.003   3.023  15.888  0.1794 -0.3779 -0.9126
  166DOPC   H3S20117   4.869   2.921  15.836  0.1424  2.3308  0.2707
  166DOPC   C2420118   5.048   2.881  15.729  0.1235  0.3955 -0.1509
  166DOPC   H4R20119   5.152   2.848  15.752  0.8071  0.7845 -2.3574
  166DOPC   H4S20120   5.056   2.965  15.656 -1.8153  2.7381  2.1442
  166DOPC   C2520121   4.987   2.763  15.665  0.1139  0.1258  0.3436
  166DOPC   H5R20122   4.883   2.787  15.634  0.3060  0.9903  0.3539
  166DOPC   H5S20123   4.987   2.670  15.726  1.8654 -0.6684 -0.7760
  166DOPC   C2620124   5.041   2.724  15.525  0.4018 -0.6502  0.2883
  166DOPC   H6R20125   5.000   2.624  15.498  3.2666 -1.3569 -1.8798
  166DOPC   H6S20126   5.148   2.718  15.552  0.3103 -2.6279  0.3564
  166DOPC   C2720127   5.035   2.820  15.401 -0.5787  0.1419  0.1637
  166DOPC   H7R20128   5.036   2.923  15.442 -1.8318 -0.0971  0.8300
  166DOPC   H7S20129   4.937   2.819  15.347 -0.3568  1.7192 -0.3253
  166DOPC   C2820130   5.156   2.779  15.312 -0.3583 -1.2426 -0.3426
  166DOPC   H8R20131   5.131   2.678  15.273 -1.9221 -1.2455  0.5949
  166DOPC   H8S20132   5.256   2.760  15.358  0.5147 -1.6692 -2.2893
  166DOPC   C2920133   5.168   2.883  15.203 -0.4461  0.0376 -0.4019
  166DOPC   H9R20134   5.200   2.980  15.242  0.7262 -1.0782  1.6013
  166DOPC  C21020135   5.169   2.862  15.070 -0.1708 -0.4999 -0.1003
  166DOPC  H10R20136   5.157   2.942  14.995 -0.1315 -2.5610 -2.4124
  166DOPC  C21120137   5.150   2.726  15.012 -0.4330 -0.2016  0.1189
  166DOPC  H11R20138   5.126   2.652  15.091 -2.7036 -0.9265 -1.1578
  166DOPC  H11S20139   5.233   2.688  14.949 -1.2729 -2.6482  0.3912
  166DOPC  C21220140   5.034   2.708  14.916  0.0170  0.6236 -0.0263
  166DOPC  H12R20141   4.940   2.742  14.964  0.0354  0.9533 -0.2172
  166DOPC  H12S20142   5.024   2.598  14.910 -1.3716  0.7936 -1.8240
  166DOPC  C21320143   5.061   2.760  14.771  0.0934 -0.4343  0.2908
  166DOPC  H13R20144   5.096   2.674  14.711  0.7339 -0.0047  0.0367
  166DOPC  H13S20145   5.140   2.839  14.771  0.7178 -1.0168  1.7693
  166DOPC  C21420146   4.933   2.820  14.710 -0.4540 -0.0530  0.4490
  166DOPC  H14R20147   4.904   2.898  14.783  0.7009 -2.0719  3.2249
  166DOPC  H14S20148   4.852   2.744  14.706 -0.8056  0.3702 -1.6211
  166DOPC  C21520149   4.970   2.895  14.581  0.3149  0.1197  0.8551
  166DOPC  H15R20150   4.983   2.825  14.496 -2.9252 -0.9849  1.1152
  166DOPC  H15S20151   5.062   2.956  14.590 -0.0227  0.9181 -0.6410
  166DOPC  C21620152   4.855   2.993  14.538  0.0989  0.1602 -0.0270
  166DOPC  H16R20153   4.837   3.066  14.620 -1.8915 -0.7334  0.3931
  166DOPC  H16S20154   4.766   2.928  14.524 -0.6394  1.1455 -0.0354
  166DOPC  C21720155   4.886   3.081  14.405 -0.4225 -0.0518  0.2724
  166DOPC  H17R20156   4.985   3.130  14.415  0.3596 -0.7458 -2.9313
  166DOPC  H17S20157   4.825   3.174  14.408  0.8094  0.7616  1.1232
  166DOPC  C21820158   4.875   2.996  14.273 -0.4114  0.4961  0.2105
  166DOPC  H18R20159   4.911   3.057  14.187  0.7339 -1.4474 -0.7526
  166DOPC  H18S20160   4.767   2.980  14.249 -0.4151 -0.1657  0.6769
  166DOPC  H18T20161   4.930   2.900  14.271 -0.3079  0.5588 -0.0891
  166DOPC   C3320162   5.653   2.759  15.570 -0.1388 -0.0131  0.4251
  166DOPC   H3X20163   5.668   2.651  15.553  0.6589  0.4265 -2.0389
  166DOPC   H3Y20164   5.736   2.807  15.628  1.3406 -2.0073  0.0434
  166DOPC   C3420165   5.650   2.820  15.428 -0.3721 -0.7867 -0.0228
  166DOPC   H4X20166   5.758   2.837  15.404 -0.2705  1.5471  1.7616
  166DOPC   H4Y20167   5.606   2.922  15.423  0.6411 -0.3119  0.3651
  166DOPC   C3520168   5.594   2.726  15.319  0.0455  0.2748  0.7875
  166DOPC   H5X20169   5.487   2.709  15.344 -0.0358  2.1457  1.9300
  166DOPC   H5Y20170   5.651   2.631  15.313  0.1570  0.4219 -2.2967
  166DOPC   C3620171   5.589   2.810  15.188 -0.3195  0.9047 -0.2782
  166DOPC   H6X20172   5.501   2.878  15.195 -1.3866 -0.5152  0.6393
  166DOPC   H6Y20173   5.694   2.845  15.181  1.1151 -2.8994 -0.3900
  166DOPC   C3720174   5.555   2.713  15.071 -0.9409 -0.1642 -0.1884
  166DOPC   H7X20175   5.640   2.641  15.067 -2.0113 -1.6003  1.5425
  166DOPC   H7Y20176   5.462   2.659  15.097 -0.5628  0.4613  2.8337
  166DOPC   C3820177   5.548   2.780  14.928  0.3061 -0.2355  0.2448
  166DOPC   H8X20178   5.479   2.867  14.930 -0.4315 -0.8166  0.2361
  166DOPC   H8Y20179   5.499   2.704  14.863  2.9758 -0.9124 -1.1299
  166DOPC   C3920180   5.679   2.818  14.860  0.6214  0.3924 -0.0276
  166DOPC   H9X20181   5.755   2.838  14.937  0.5176 -3.5052  1.3338
  166DOPC  C31020182   5.707   2.817  14.731 -0.9261  0.7043  0.1963
  166DOPC  H10X20183   5.811   2.836  14.699 -1.5736  2.7238 -0.8383
  166DOPC  C31120184   5.617   2.782  14.615 -0.2991 -0.7625  0.6142
  166DOPC  H11X20185   5.512   2.784  14.652  0.2296  2.2458  2.2641
  166DOPC  H11Y20186   5.634   2.676  14.587 -0.2465 -0.5544 -0.1508
  166DOPC  C31220187   5.633   2.874  14.499 -0.2098  0.0338  0.4884
  166DOPC  H12X20188   5.737   2.913  14.491 -0.2466  0.3735  1.4952
  166DOPC  H12Y20189   5.572   2.967  14.506 -1.0124 -0.4443  0.0299
  166DOPC  C31320190   5.601   2.801  14.366 -0.2869  0.3978  0.4902
  166DOPC  H13X20191   5.673   2.716  14.362 -1.1235 -0.4322  2.1122
  166DOPC  H13Y20192   5.499   2.759  14.355 -0.2100  0.6131 -1.3475
  166DOPC  C31420193   5.627   2.889  14.241 -0.5564  0.0255 -0.1223
  166DOPC  H14X20194   5.573   2.983  14.264 -2.4380 -1.2767  1.0903
  166DOPC  H14Y20195   5.736   2.902  14.225 -0.1890  1.4273  2.7976
  166DOPC  C31520196   5.578   2.836  14.108  0.4951  0.1387  0.3745
  166DOPC  H15X20197   5.467   2.834  14.117  0.3708  2.0122 -0.4275
  166DOPC  H15Y20198   5.609   2.730  14.095 -0.4660 -0.1131  0.0296
  166DOPC  C31620199   5.621   2.921  13.989  0.2056  0.3624  0.9583
  166DOPC  H16X20200   5.554   3.009  13.987 -0.0797  0.1570  1.3503
  166DOPC  H16Y20201   5.728   2.952  13.995 -0.4151  2.2814  3.3272
  166DOPC  C31720202   5.602   2.846  13.855 -0.0560 -0.1908  0.5296
  166DOPC  H17X20203   5.633   2.909  13.770  0.0549 -0.6702  0.2085
  166DOPC  H17Y20204   5.677   2.765  13.853 -0.9097 -0.9941 -0.9349
  166DOPC  C31820205   5.458   2.784  13.830 -0.7917 -0.5979  0.3376
  166DOPC  H18X20206   5.450   2.699  13.902  0.5015 -1.2125 -0.2081
  166DOPC  H18Y20207   5.381   2.862  13.846 -0.8360 -0.2500 -1.3557
  166DOPC  H18Z20208   5.452   2.748  13.725 -1.8979 -0.2176  0.2603
  167DOPC     N20209   4.884   2.514  16.283 -0.4468  0.1039  0.4742
  167DOPC   C1220210   5.028   2.460  16.275 -0.3412  0.5217 -0.4175
  167DOPC  H12A20211   5.040   2.415  16.372  1.0465 -1.9261 -1.6275
  167DOPC  H12B20212   5.101   2.539  16.271 -0.9152  1.0458 -0.7338
  167DOPC   C1320213   4.880   2.629  16.371 -0.5287  0.3755  0.3202
  167DOPC  H13A20214   4.917   2.719  16.323  0.5480 -1.4907 -2.7035
  167DOPC  H13B20215   4.775   2.646  16.391 -0.1934  0.4270  2.2198
  167DOPC  H13C20216   4.928   2.614  16.466  0.8712 -0.9213 -0.5423
  167DOPC   C1420217   4.796   2.413  16.349  0.0561 -0.0072  0.6045
  167DOPC  H14A20218   4.694   2.447  16.358  0.5715  2.1646 -1.0211
  167DOPC  H14B20219   4.806   2.322  16.292 -0.9423  0.3692 -0.1995
  167DOPC  H14C20220   4.829   2.389  16.449  2.6152 -1.2833 -0.4496
  167DOPC   C1520221   4.831   2.551  16.145 -0.0158  0.1076  0.1357
  167DOPC  H15A20222   4.741   2.611  16.149  0.9492  1.6063 -0.0271
  167DOPC  H15B20223   4.813   2.469  16.077 -0.4392 -0.4461  0.9017
  167DOPC  H15C20224   4.897   2.626  16.105  0.0721  1.0750  1.9924
  167DOPC   C1120225   5.060   2.355  16.171  0.0046 -0.8055 -0.2634
  167DOPC  H11A20226   4.987   2.273  16.189 -1.4097  0.5206  0.1702
  167DOPC  H11B20227   5.042   2.392  16.068 -1.0145  0.6719  0.4143
  167DOPC     P20228   5.251   2.227  16.297  0.0380 -0.0422 -0.2149
  167DOPC   O1320229   5.161   2.223  16.422  0.2573  0.1045  0.0933
  167DOPC   O1420230   5.386   2.264  16.325  0.9590  0.0066 -0.5376
  167DOPC   O1220231   5.197   2.319  16.184  0.4134  0.5459  0.2898
  167DOPC   O1120232   5.239   2.082  16.225  0.1763 -0.1521  0.3978
  167DOPC    C120233   5.349   2.036  16.144 -0.1887  0.2751  0.1408
  167DOPC    HA20234   5.376   1.932  16.172  0.7902  0.0746 -1.4044
  167DOPC    HB20235   5.443   2.095  16.147  1.8847 -2.8581  0.4694
  167DOPC    C220236   5.317   2.035  15.990  0.0460  0.3081  0.2567
  167DOPC    HS20237   5.407   2.022  15.927  1.4931  0.4485  2.2107
  167DOPC   O2120238   5.236   2.144  15.956 -0.4962 -0.4601  0.5666
  167DOPC   C2120239   5.314   2.248  15.914  1.3248  0.3594  0.5454
  167DOPC   O2220240   5.432   2.243  15.918 -0.5449 -0.2414  0.9678
  167DOPC   C2220241   5.232   2.357  15.848 -0.6178  0.4809 -0.2406
  167DOPC   H2R20242   5.212   2.428  15.931 -1.0072 -1.5000  1.4357
  167DOPC   H2S20243   5.135   2.317  15.814 -1.2915  1.4192  0.5424
  167DOPC    C320244   5.231   1.903  15.957  0.0947  0.3705 -0.6467
  167DOPC    HX20245   5.144   1.903  16.027  0.0147 -0.9698 -0.7218
  167DOPC    HY20246   5.290   1.813  15.987 -0.3762  0.3536  0.2894
  167DOPC   O3120247   5.188   1.892  15.814 -0.2023  0.1675  0.2965
  167DOPC   C3120248   5.294   1.872  15.732 -0.5230 -0.7386  0.3224
  167DOPC   O3220249   5.406   1.859  15.767 -0.2799  0.6002 -0.2156
  167DOPC   C3220250   5.232   1.882  15.592 -0.2510  0.0458  0.4114
  167DOPC   H2X20251   5.158   1.802  15.569  0.4130 -0.8029  1.1290
  167DOPC   H2Y20252   5.193   1.986  15.586  2.7963  1.3756  1.5363
  167DOPC   C2320253   5.301   2.422  15.726  0.3141  0.7471  0.2896
  167DOPC   H3R20254   5.401   2.465  15.750 -0.0147  0.7468  1.7159
  167DOPC   H3S20255   5.232   2.504  15.696  1.2300  0.4694 -2.9594
  167DOPC   C2420256   5.311   2.327  15.607 -0.5696  0.2204  0.4784
  167DOPC   H4R20257   5.216   2.285  15.569 -0.5523  1.2185 -0.7638
  167DOPC   H4S20258   5.383   2.245  15.627 -1.3765 -0.2587  1.4897
  167DOPC   C2520259   5.393   2.401  15.497  0.5248 -0.0621 -0.6122
  167DOPC   H5R20260   5.497   2.413  15.534 -0.1646 -0.2693  1.5126
  167DOPC   H5S20261   5.358   2.507  15.490  2.8424  0.7931  0.0385
  167DOPC   C2620262   5.399   2.335  15.361  0.0515  0.3397  0.1058
  167DOPC   H6R20263   5.432   2.229  15.362  0.3330  0.4258  0.0244
  167DOPC   H6S20264   5.485   2.382  15.310 -1.6916  2.3267 -1.1929
  167DOPC   C2720265   5.271   2.348  15.275  0.2820 -0.4965 -0.5136
  167DOPC   H7R20266   5.249   2.456  15.262  0.1888 -0.6601 -1.7919
  167DOPC   H7S20267   5.191   2.301  15.337 -2.2230 -0.0134 -3.1642
  167DOPC   C2820268   5.280   2.280  15.135  1.0150  0.3514 -0.6801
  167DOPC   H8R20269   5.176   2.283  15.096  0.8895 -1.3752 -0.5333
  167DOPC   H8S20270   5.320   2.176  15.134 -0.5885 -0.2968 -2.3363
  167DOPC   C2920271   5.365   2.357  15.035  0.4043  0.2038 -0.5153
  167DOPC   H9R20272   5.462   2.390  15.075  1.5848  0.0051 -3.0073
  167DOPC  C21020273   5.330   2.392  14.908 -0.7483 -0.0934 -0.0857
  167DOPC  H10R20274   5.407   2.440  14.846 -0.3629 -1.3149 -0.5743
  167DOPC  C21120275   5.201   2.354  14.835 -0.0950 -0.0453  0.6925
  167DOPC  H11R20276   5.137   2.444  14.840 -0.8871 -0.4280 -1.4796
  167DOPC  H11S20277   5.139   2.276  14.883 -0.1031  0.7397  2.0035
  167DOPC  C21220278   5.228   2.312  14.683  0.1929 -0.2956 -0.0922
  167DOPC  H12R20279   5.288   2.219  14.675 -1.0380 -1.2255  1.0717
  167DOPC  H12S20280   5.127   2.287  14.644 -0.0733  1.3093 -0.4976
  167DOPC  C21320281   5.283   2.429  14.597  0.3778  0.6320 -0.8231
  167DOPC  H13R20282   5.367   2.381  14.542  0.9764  2.6607 -1.7916
  167DOPC  H13S20283   5.332   2.502  14.665  2.2041 -1.5920  0.4025
  167DOPC  C21420284   5.177   2.493  14.496  0.7887  0.0851 -0.3736
  167DOPC  H14R20285   5.121   2.572  14.551 -0.6070 -1.1095 -0.0312
  167DOPC  H14S20286   5.112   2.409  14.463 -1.6589  1.5866  0.3635
  167DOPC  C21520287   5.248   2.560  14.379  0.6716 -0.4188 -0.2916
  167DOPC  H15R20288   5.306   2.480  14.328 -0.0045 -3.1776  2.8934
  167DOPC  H15S20289   5.316   2.639  14.417 -0.8006 -0.5245  2.9538
  167DOPC  C21620290   5.156   2.642  14.293  0.4535  1.1217  0.1732
  167DOPC  H16R20291   5.136   2.743  14.335 -1.8888  0.0180  1.9300
  167DOPC  H16S20292   5.056   2.596  14.279  0.5766  1.6930 -3.7275
  167DOPC  C21720293   5.205   2.677  14.151 -0.0593 -0.0967  0.4524
  167DOPC  H17R20294   5.237   2.586  14.094  0.9245  1.0016 -0.8180
  167DOPC  H17S20295   5.302   2.724  14.178 -0.0622 -0.6979  1.5558
  167DOPC  C21820296   5.114   2.765  14.063  0.2892 -0.2600 -0.0158
  167DOPC  H18R20297   5.161   2.796  13.967  0.7457  0.3512  0.3948
  167DOPC  H18S20298   5.092   2.859  14.119  1.4496 -0.6085  1.0562
  167DOPC  H18T20299   5.019   2.715  14.036  0.6741 -1.0359  0.0527
  167DOPC   C3320300   5.330   1.856  15.473  0.1019  0.3324 -0.6295
  167DOPC   H3X20301   5.371   1.753  15.482 -0.0921  0.4107  1.9923
  167DOPC   H3Y20302   5.421   1.920  15.471  0.4052 -0.0077  0.8405
  167DOPC   C3420303   5.257   1.880  15.337  0.3875 -1.0235 -0.4263
  167DOPC   H4X20304   5.249   1.990  15.325  1.4753 -0.7906  0.6818
  167DOPC   H4Y20305   5.150   1.853  15.333 -0.3343  1.5990 -0.6728
  167DOPC   C3520306   5.332   1.831  15.220  0.6032  0.5131 -0.5717
  167DOPC   H5X20307   5.338   1.721  15.235 -1.9511  0.5926  1.7146
  167DOPC   H5Y20308   5.436   1.868  15.213  1.0154 -0.5729 -0.4587
  167DOPC   C3620309   5.285   1.876  15.084  0.6954  0.0418 -1.3930
  167DOPC   H6X20310   5.186   1.829  15.064  1.0383 -0.4240 -2.0683
  167DOPC   H6Y20311   5.277   1.986  15.089  2.1316  0.1516  3.4179
  167DOPC   C3720312   5.366   1.816  14.970 -0.1071  0.0250 -1.0192
  167DOPC   H7X20313   5.471   1.851  14.980 -0.8534  1.8552  0.9970
  167DOPC   H7Y20314   5.371   1.705  14.965  2.2549  0.1392 -2.8448
  167DOPC   C3820315   5.320   1.871  14.837 -0.7406  0.0418  0.3094
  167DOPC   H8X20316   5.335   1.980  14.822  1.3635 -0.2721 -0.1617
  167DOPC   H8Y20317   5.212   1.854  14.817 -0.6118  3.0129 -4.6217
  167DOPC   C3920318   5.395   1.813  14.717  0.6595 -0.1100  0.4238
  167DOPC   H9X20319   5.487   1.754  14.735  0.9885 -0.2720 -1.5754
  167DOPC  C31020320   5.372   1.841  14.586 -1.0483  0.0075  0.2884
  167DOPC  H10X20321   5.425   1.775  14.516 -1.1163  0.4179 -0.1543
  167DOPC  C31120322   5.265   1.934  14.534  0.1144 -1.0152 -0.0682
  167DOPC  H11X20323   5.240   2.018  14.603  0.0049 -1.2797  0.2164
  167DOPC  H11Y20324   5.167   1.883  14.521  0.1513 -0.7083 -1.7319
  167DOPC  C31220325   5.304   2.007  14.403  0.1266 -0.0527 -0.8293
  167DOPC  H12X20326   5.408   2.044  14.413 -0.3551  1.6065 -1.7034
  167DOPC  H12Y20327   5.236   2.092  14.382 -1.6663 -1.7255 -2.2923
  167DOPC  C31320328   5.287   1.916  14.288  0.1271  0.0471  0.3696
  167DOPC  H13X20329   5.344   1.824  14.315  0.0864  0.3800  1.6723
  167DOPC  H13Y20330   5.180   1.886  14.291 -0.4910  2.1572  0.6411
  167DOPC  C31420331   5.332   1.978  14.155  0.2874 -0.2928 -0.0241
  167DOPC  H14X20332   5.283   2.076  14.140  2.0641  0.3519 -2.1542
  167DOPC  H14Y20333   5.440   2.003  14.157  0.1766  0.1824  0.0900
  167DOPC  C31520334   5.311   1.903  14.023  0.1470  0.1671  0.0969
  167DOPC  H15X20335   5.201   1.894  14.011  0.0583 -1.1778  1.5969
  167DOPC  H15Y20336   5.344   1.798  14.022  0.3057  0.2150  0.3781
  167DOPC  C31620337   5.374   1.977  13.907 -0.3218 -0.8271 -0.7418
  167DOPC  H16X20338   5.334   2.081  13.907  1.9903  0.2209  2.0858
  167DOPC  H16Y20339   5.483   1.993  13.923 -0.8227  1.7800  0.5810
  167DOPC  C31720340   5.344   1.914  13.772  0.1961  0.1770  0.2002
  167DOPC  H17X20341   5.404   1.970  13.697  1.7068 -2.0149 -0.3329
  167DOPC  H17Y20342   5.381   1.811  13.757 -0.4933  0.0074 -0.3940
  167DOPC  C31820343   5.203   1.924  13.717  0.2338  0.9844  0.3977
  167DOPC  H18X20344   5.208   1.879  13.616  3.9013  0.0868  0.8248
  167DOPC  H18Y20345   5.131   1.862  13.775  0.6929 -0.4476 -0.5170
  167DOPC  H18Z20346   5.157   2.024  13.703 -0.6707  0.6160  0.6915
  168DOPC     N20347   0.055   0.982  16.116 -0.2659  0.0062 -0.1848
  168DOPC   C1220348   0.137   1.035  16.232  0.3216 -0.1357  0.5000
  168DOPC  H12A20349   0.097   1.005  16.328  0.6300 -2.0796  0.0695
  168DOPC  H12B20350   0.131   1.143  16.233  2.6012  0.0313  1.2748
  168DOPC   C1320351   0.097   1.042  15.981  0.0245  0.5516 -0.6018
  168DOPC  H13A20352   0.032   1.007  15.902  0.1934  2.7727 -1.8147
  168DOPC  H13B20353   0.096   1.150  15.994 -0.5168  0.5661 -0.7322
  168DOPC  H13C20354   0.198   1.024  15.945 -0.4476  1.2253 -2.3951
  168DOPC   C1420355  -0.083   1.014  16.151  0.5786  0.4628  0.7163
  168DOPC  H14A20356  -0.144   0.978  16.069  0.2509  0.6999  0.8529
  168DOPC  H14B20357  -0.114   0.961  16.240 -0.0876  0.9232  0.7711
  168DOPC  H14C20358  -0.107   1.118  16.136 -2.2295 -0.5077 -3.1616
  168DOPC   C1520359   0.064   0.834  16.109  0.2419  0.1525  0.4829
  168DOPC  H15A20360   0.045   0.800  16.209  0.3632  0.9247  0.7797
  168DOPC  H15B20361   0.165   0.809  16.081 -0.0692 -2.8041  1.6853
  168DOPC  H15C20362   0.002   0.791  16.031  1.6408 -0.5697 -0.2664
  168DOPC   C1120363   0.286   1.001  16.233  0.3860 -0.6310  0.2356
  168DOPC  H11A20364   0.341   1.058  16.155 -0.0071 -0.5168  0.0424
  168DOPC  H11B20365   0.312   1.058  16.325  0.9214  0.5140 -0.5973
  168DOPC     P20366   0.401   0.804  16.358  0.0673 -0.4770 -0.4948
  168DOPC   O1320367   0.460   0.678  16.305  0.3338  0.1225 -0.3419
  168DOPC   O1420368   0.293   0.790  16.462 -0.3641  0.3535 -0.4093
  168DOPC   O1220369   0.321   0.864  16.235 -0.0260 -0.0929  0.1271
  168DOPC   O1120370   0.514   0.907  16.413 -0.6504  0.1800  0.3817
  168DOPC    C120371   0.660   0.893  16.376  0.4285 -0.3297 -0.5126
  168DOPC    HA20372   0.687   0.787  16.361  0.6453 -0.0412 -2.3106
  168DOPC    HB20373   0.710   0.921  16.471 -2.8122 -2.1748  1.9581
  168DOPC    C220374   0.691   0.970  16.250 -0.9934 -0.8874  0.1351
  168DOPC    HS20375   0.656   1.074  16.267 -1.7960 -1.1108 -0.0897
  168DOPC   O2120376   0.628   0.905  16.142 -0.3041 -0.1796  0.3998
  168DOPC   C2120377   0.599   0.999  16.040 -0.3630 -0.2709 -0.0868
  168DOPC   O2220378   0.614   1.117  16.050  0.8646  0.0746  0.0203
  168DOPC   C2220379   0.572   0.920  15.910  0.3581  0.2104  0.1166
  168DOPC   H2R20380   0.515   0.827  15.932 -0.8900  0.5957 -1.2694
  168DOPC   H2S20381   0.672   0.897  15.868  0.1283 -2.7496  0.9950
  168DOPC    C320382   0.845   0.961  16.234  0.0785 -0.7920 -0.0677
  168DOPC    HX20383   0.862   0.852  16.220  1.6181 -0.5402 -0.4404
  168DOPC    HY20384   0.888   1.000  16.329 -0.5284 -0.5452  0.1084
  168DOPC   O3120385   0.885   1.041  16.115  0.1505 -0.0041  0.3885
  168DOPC   C3120386   1.014   1.024  16.096 -0.3805 -0.3317  0.8761
  168DOPC   O3220387   1.088   0.970  16.174  0.3001  0.1022  0.5283
  168DOPC   C3220388   1.058   1.084  15.956  0.5555  0.0920 -0.4054
  168DOPC   H2X20389   1.131   1.166  15.974 -0.0414  0.5296  0.0458
  168DOPC   H2Y20390   1.104   1.003  15.895 -0.3240 -0.9619  0.3154
  168DOPC   C2320391   0.483   1.009  15.826 -0.4476  0.2150  0.2803
  168DOPC   H3R20392   0.523   1.112  15.816 -1.5293  0.4918 -1.5952
  168DOPC   H3S20393   0.386   1.016  15.881 -0.0499 -0.1131  1.0495
  168DOPC   C2420394   0.440   0.940  15.698  0.4255 -0.2084 -0.1985
  168DOPC   H4R20395   0.394   1.026  15.645 -1.4392 -0.9762  0.0577
  168DOPC   H4S20396   0.362   0.864  15.721  0.9699 -0.4902  0.7526
  168DOPC   C2520397   0.554   0.878  15.625 -0.3647 -0.7678 -0.4045
  168DOPC   H5R20398   0.568   0.773  15.658  1.2946  0.2321  2.4611
  168DOPC   H5S20399   0.649   0.932  15.648 -0.7321 -0.1128 -0.3811
  168DOPC   C2620400   0.524   0.898  15.483 -0.4376 -0.4323 -0.0498
  168DOPC   H6R20401   0.531   1.005  15.455  1.0902 -0.5106 -0.0757
  168DOPC   H6S20402   0.424   0.853  15.468 -0.4196 -0.1985 -0.9230
  168DOPC   C2720403   0.634   0.830  15.401 -0.3001  0.8799  0.2540
  168DOPC   H7R20404   0.662   0.739  15.458 -2.2888  0.8440  1.2950
  168DOPC   H7S20405   0.727   0.890  15.405 -0.2245  0.7362  0.7167
  168DOPC   C2820406   0.589   0.796  15.259 -0.5091 -0.6085  0.5459
  168DOPC   H8R20407   0.504   0.726  15.270  0.8962 -2.1407  2.2705
  168DOPC   H8S20408   0.669   0.738  15.208  0.6150  0.3305  1.1946
  168DOPC   C2920409   0.543   0.913  15.173 -0.4201 -0.2883  0.4084
  168DOPC   H9R20410   0.562   1.015  15.209 -2.1052  0.2282 -0.0459
  168DOPC  C21020411   0.480   0.916  15.056  0.4583 -0.1584 -0.3013
  168DOPC  H10R20412   0.443   1.008  15.008 -1.8330 -0.1750  1.2856
  168DOPC  C21120413   0.452   0.787  14.983 -0.4407 -0.0621  0.9927
  168DOPC  H11R20414   0.349   0.788  14.943  0.0962  0.3133 -0.4496
  168DOPC  H11S20415   0.449   0.697  15.047 -1.2992  2.3790  4.6773
  168DOPC  C21220416   0.539   0.769  14.859  0.8748  0.2448  0.2373
  168DOPC  H12R20417   0.503   0.692  14.788  1.0239 -0.2816  0.7261
  168DOPC  H12S20418   0.640   0.738  14.896  0.4341  1.6809  2.8805
  168DOPC  C21320419   0.544   0.899  14.768 -0.3584 -0.2109 -0.1103
  168DOPC  H13R20420   0.621   0.957  14.823 -0.5002 -0.2220  0.0984
  168DOPC  H13S20421   0.444   0.946  14.780  0.2954  0.7319  2.1288
  168DOPC  C21420422   0.583   0.859  14.622  0.2328 -0.1700 -0.2493
  168DOPC  H14R20423   0.516   0.781  14.582  2.0939 -0.2056 -3.7343
  168DOPC  H14S20424   0.689   0.825  14.626  0.8345  1.6855  1.8012
  168DOPC  C21520425   0.571   0.978  14.518 -0.0827 -0.3385 -0.3349
  168DOPC  H15R20426   0.623   1.070  14.551 -0.1799  0.0973 -1.3751
  168DOPC  H15S20427   0.461   0.991  14.515 -0.0150  1.3871  1.8277
  168DOPC  C21620428   0.627   0.941  14.377  0.1263 -0.1971 -0.0593
  168DOPC  H16R20429   0.731   0.903  14.385  0.4204  0.6381  0.1773
  168DOPC  H16S20430   0.624   1.029  14.309 -0.9683 -1.1307 -1.2733
  168DOPC  C21720431   0.530   0.837  14.313 -0.4389  0.7225 -0.1043
  168DOPC  H17R20432   0.433   0.890  14.305 -0.9850 -0.4577 -1.6722
  168DOPC  H17S20433   0.522   0.743  14.370  0.2298  1.9240  2.0845
  168DOPC  C21820434   0.573   0.797  14.174 -0.2050  0.4673 -0.2461
  168DOPC  H18R20435   0.657   0.725  14.170 -1.9980 -2.0439  2.5129
  168DOPC  H18S20436   0.598   0.884  14.109  0.8650 -0.3599 -0.9547
  168DOPC  H18T20437   0.490   0.742  14.126  0.2761  1.0926 -1.8601
  168DOPC   C3320438   0.936   1.143  15.877 -0.7650  0.3610  0.8814
  168DOPC   H3X20439   0.875   1.211  15.940 -4.2186 -0.5129 -1.2719
  168DOPC   H3Y20440   0.867   1.060  15.850  2.2976 -1.7887 -0.9847
  168DOPC   C3420441   0.979   1.207  15.745 -0.7626 -0.2363 -0.7835
  168DOPC   H4X20442   0.889   1.206  15.680 -1.9130  0.1512  0.7627
  168DOPC   H4Y20443   1.065   1.166  15.688 -0.9905  0.5098 -1.6777
  168DOPC   C3520444   1.030   1.351  15.774 -0.2870 -0.1743  0.4011
  168DOPC   H5X20445   1.111   1.354  15.850  2.4915 -0.5973 -2.3310
  168DOPC   H5Y20446   0.954   1.431  15.785  1.3446  1.6592 -0.9081
  168DOPC   C3620447   1.096   1.388  15.638  0.1668 -0.9309  0.8447
  168DOPC   H6X20448   1.146   1.484  15.663 -2.2263  0.6241  0.0785
  168DOPC   H6Y20449   1.178   1.315  15.623  1.6549  0.9017 -0.4970
  168DOPC   C3720450   1.014   1.411  15.508  0.7210  0.7127 -0.4158
  168DOPC   H7X20451   0.956   1.320  15.484  1.1819  0.8661 -2.2781
  168DOPC   H7Y20452   0.934   1.482  15.539 -0.0237 -0.8745  1.5163
  168DOPC   C3820453   1.093   1.468  15.389  0.4387  0.0047  0.2553
  168DOPC   H8X20454   1.147   1.564  15.405  0.0684  0.0472  1.3597
  168DOPC   H8Y20455   1.027   1.498  15.305  1.2048 -0.4760 -0.5290
  168DOPC   C3920456   1.183   1.362  15.329 -0.0074  0.3164 -0.3226
  168DOPC   H9X20457   1.252   1.317  15.401 -0.6345  1.4102  1.0072
  168DOPC  C31020458   1.180   1.318  15.203 -0.6018 -0.6924 -0.5332
  168DOPC  H10X20459   1.259   1.248  15.172 -0.2541 -0.1519 -0.8992
  168DOPC  C31120460   1.105   1.373  15.092 -0.0392 -0.1759  0.0200
  168DOPC  H11X20461   1.086   1.482  15.101  0.2111 -0.0024 -1.2907
  168DOPC  H11Y20462   1.014   1.313  15.072 -0.7339  0.6037  0.8074
  168DOPC  C31220463   1.192   1.369  14.955  0.4086 -0.7024  0.0757
  168DOPC  H12X20464   1.209   1.262  14.928  0.2053 -0.5663 -0.5951
  168DOPC  H12Y20465   1.284   1.424  14.985 -1.2622  1.8655  0.7850
  168DOPC  C31320466   1.116   1.433  14.839 -0.2872  0.6291  0.2201
  168DOPC  H13X20467   1.022   1.378  14.818  0.6790  0.0045 -2.9855
  168DOPC  H13Y20468   1.101   1.538  14.874  1.5224  0.9912  0.0002
  168DOPC  C31420469   1.198   1.444  14.707 -0.2121 -0.6945 -0.3381
  168DOPC  H14X20470   1.137   1.499  14.632  0.1920  0.3337  0.0678
  168DOPC  H14Y20471   1.294   1.496  14.725 -0.6363 -0.3443  0.9682
  168DOPC  C31520472   1.235   1.301  14.654  0.3966  0.3108 -0.3099
  168DOPC  H15X20473   1.247   1.231  14.740 -1.3338  1.3069  0.8319
  168DOPC  H15Y20474   1.328   1.304  14.594  0.5209  1.6640 -0.0897
  168DOPC  C31620475   1.132   1.237  14.559  0.6707 -0.0310  0.1160
  168DOPC  H16X20476   1.171   1.136  14.534  0.2358 -0.1179 -0.2230
  168DOPC  H16Y20477   1.032   1.226  14.605 -0.2774  1.3407 -1.5221
  168DOPC  C31720478   1.116   1.313  14.426 -0.0998 -0.5243 -0.2582
  168DOPC  H17X20479   1.123   1.424  14.424 -2.6352 -0.3037 -1.9232
  168DOPC  H17Y20480   1.202   1.274  14.368  0.7067 -1.3079  1.3985
  168DOPC  C31820481   0.989   1.272  14.353 -0.3671  0.8661 -0.1037
  168DOPC  H18X20482   0.898   1.281  14.416  1.0544  1.3551  1.9785
  168DOPC  H18Y20483   0.966   1.337  14.265 -3.2302 -2.2842 -1.9187
  168DOPC  H18Z20484   1.000   1.166  14.322  0.3178  1.3131 -1.4449
  169DOPC     N20485   5.972   1.666  16.537 -0.6716  0.0604  0.5580
  169DOPC   C1220486   6.022   1.711  16.397  0.3032  0.2548  0.5641
  169DOPC  H12A20487   6.053   1.815  16.399 -1.8881  0.9539  0.6969
  169DOPC  H12B20488   5.928   1.709  16.343  0.7772 -1.0198 -0.2600
  169DOPC   C1320489   6.097   1.636  16.623  0.2888 -0.4095  0.2858
  169DOPC  H13A20490   6.155   1.725  16.643  1.2438 -0.6656 -1.1953
  169DOPC  H13B20491   6.079   1.594  16.721  2.4329 -0.4960  0.6907
  169DOPC  H13C20492   6.162   1.568  16.570  1.0458  1.0484 -0.7380
  169DOPC   C1420493   5.892   1.538  16.529 -1.0935 -0.1495 -0.3418
  169DOPC  H14A20494   5.872   1.496  16.626 -2.3163  0.8254 -0.1357
  169DOPC  H14B20495   5.800   1.558  16.476 -0.2785 -0.3643 -1.8915
  169DOPC  H14C20496   5.943   1.458  16.478  1.1598  0.5477  0.6958
  169DOPC   C1520497   5.890   1.771  16.596  0.5129 -0.0190 -0.2720
  169DOPC  H15A20498   5.948   1.857  16.626 -0.6462  0.2550  1.2892
  169DOPC  H15B20499   5.851   1.733  16.689  0.1551  1.7890  0.3672
  169DOPC  H15C20500   5.805   1.802  16.537  1.7069  2.3354 -0.9076
  169DOPC   C1120501   6.120   1.615  16.331  0.0537  0.2175  0.2471
  169DOPC  H11A20502   6.086   1.510  16.341  0.6109 -0.1644 -1.4854
  169DOPC  H11B20503   6.112   1.620  16.220  1.5200 -0.7296  0.0618
  169DOPC     P20504   6.320   1.768  16.302 -0.2451 -0.1523 -0.1071
  169DOPC   O1320505   6.455   1.785  16.363 -0.6204  0.1800  0.7821
  169DOPC   O1420506   6.224   1.881  16.308  0.5054  0.5184 -0.2914
  169DOPC   O1220507   6.256   1.642  16.371 -0.1943  0.2924  0.2198
  169DOPC   O1120508   6.340   1.725  16.152 -0.3713 -0.1573  0.6412
  169DOPC    C120509   6.400   1.599  16.111  0.4191  0.0723 -0.4432
  169DOPC    HA20510   6.329   1.542  16.047  0.2098 -0.6119  0.3790
  169DOPC    HB20511   6.422   1.540  16.202 -0.3609  1.6371  0.8144
  169DOPC    C220512   6.533   1.622  16.033  0.3306 -0.1860 -0.4706
  169DOPC    HS20513   6.605   1.666  16.105 -2.6049  0.2957  2.4209
  169DOPC   O2120514   6.511   1.715  15.927  0.1253 -0.1117 -0.9404
  169DOPC   C2120515   6.620   1.755  15.867 -0.2209  0.0679  0.3196
  169DOPC   O2220516   6.736   1.724  15.887 -0.0380  0.0729  0.2189
  169DOPC   C2220517   6.561   1.855  15.755 -0.1734  0.4864  0.8022
  169DOPC   H2R20518   6.560   1.957  15.798 -0.3213  1.2187 -0.8623
  169DOPC   H2S20519   6.452   1.838  15.742 -0.2641  2.6965 -2.8593
  169DOPC    C320520   6.587   1.484  15.993 -0.1576  0.1420 -0.0899
  169DOPC    HX20521   6.579   1.421  16.084 -0.9411 -1.5282 -1.2662
  169DOPC    HY20522   6.695   1.492  15.969  0.4172 -1.0501  1.8626
  169DOPC   O3120523   6.512   1.420  15.889 -0.0112  0.4067  0.1675
  169DOPC   C3120524   6.415   1.339  15.917 -0.3341  0.8653  0.2462
  169DOPC   O3220525   6.384   1.301  16.032  0.0001  0.1978  0.5827
  169DOPC   C3220526   6.346   1.300  15.778 -0.8332 -0.1821 -0.2603
  169DOPC   H2X20527   6.264   1.230  15.805  0.1355 -0.7793  1.2769
  169DOPC   H2Y20528   6.292   1.391  15.744 -0.1973  0.0836 -0.5750
  169DOPC   C2320529   6.626   1.823  15.616 -0.4384 -0.0059 -0.0952
  169DOPC   H3R20530   6.623   1.713  15.596 -1.4351 -0.0982  0.5117
  169DOPC   H3S20531   6.729   1.866  15.621 -1.0298  1.3541  0.8804
  169DOPC   C2420532   6.553   1.886  15.488  0.2980 -0.1350 -0.2612
  169DOPC   H4R20533   6.536   1.992  15.517 -0.5483 -0.2411 -0.3365
  169DOPC   H4S20534   6.453   1.841  15.468  0.2890 -0.2230 -0.0196
  169DOPC   C2520535   6.646   1.873  15.369 -0.3785  0.2777 -0.1348
  169DOPC   H5R20536   6.622   1.771  15.332 -2.5983  0.3526  0.8764
  169DOPC   H5S20537   6.753   1.891  15.389  0.0303  0.5357 -2.3128
  169DOPC   C2620538   6.608   1.974  15.255  0.2863 -0.5230  0.2111
  169DOPC   H6R20539   6.604   2.080  15.285  2.5282 -0.5721  0.8723
  169DOPC   H6S20540   6.503   1.950  15.227  1.0412  0.2364 -3.9027
  169DOPC   C2720541   6.689   1.946  15.131 -0.0532 -0.1655 -0.4691
  169DOPC   H7R20542   6.678   1.836  15.120 -2.2388 -0.2731  1.8733
  169DOPC   H7S20543   6.797   1.962  15.152 -0.3954  2.5538 -0.4090
  169DOPC   C2820544   6.647   2.029  15.010 -0.2205 -1.1032  0.8410
  169DOPC   H8R20545   6.731   2.036  14.938 -2.4752  1.7886 -1.8154
  169DOPC   H8S20546   6.629   2.133  15.045 -2.3067 -1.0370 -0.2491
  169DOPC   C2920547   6.520   1.971  14.948  0.0015 -0.2802 -0.0141
  169DOPC   H9R20548   6.431   1.958  15.012  0.8104  1.7038  1.6491
  169DOPC  C21020549   6.512   1.931  14.822 -0.7165 -0.7967  0.2244
  169DOPC  H10R20550   6.410   1.923  14.780 -0.0083 -0.7010 -1.6042
  169DOPC  C21120551   6.629   1.924  14.723  0.1339 -0.0636  0.4398
  169DOPC  H11R20552   6.628   1.832  14.661  0.5905  0.3415 -0.1810
  169DOPC  H11S20553   6.729   1.917  14.771  1.0184  2.2451 -0.8946
  169DOPC  C21220554   6.647   2.055  14.639  0.3539 -0.1698  0.4819
  169DOPC  H12R20555   6.638   2.151  14.694 -0.3028  0.7194 -1.0967
  169DOPC  H12S20556   6.560   2.055  14.570  1.3184 -4.3817 -1.0156
  169DOPC  C21320557   6.777   2.052  14.564 -0.4991 -0.4390  0.0028
  169DOPC  H13R20558   6.807   1.948  14.540 -3.0789 -1.7141  1.7518
  169DOPC  H13S20559   6.858   2.086  14.633  0.0791 -0.6120 -0.5831
  169DOPC  C21420560   6.791   2.144  14.441 -0.1245 -0.9624  0.7815
  169DOPC  H14R20561   6.896   2.147  14.404 -0.5189  2.3187 -0.4062
  169DOPC  H14S20562   6.756   2.247  14.465  0.6935 -0.3550 -0.4919
  169DOPC  C21520563   6.699   2.090  14.325 -0.1732 -0.1557 -0.6137
  169DOPC  H15R20564   6.590   2.110  14.337 -0.3446 -1.2892 -0.1439
  169DOPC  H15S20565   6.701   1.979  14.325 -1.8616 -0.4368  4.3402
  169DOPC  C21620566   6.731   2.145  14.189  0.7876 -0.1820 -0.0267
  169DOPC  H16R20567   6.829   2.109  14.151  0.3013 -2.4154  0.6980
  169DOPC  H16S20568   6.733   2.256  14.199  3.1268 -0.3061  1.6018
  169DOPC  C21720569   6.627   2.096  14.084 -0.1780 -0.4861  0.6023
  169DOPC  H17R20570   6.526   2.137  14.106 -0.0073  0.1205  0.2839
  169DOPC  H17S20571   6.631   1.985  14.084  1.9287 -0.5636 -2.9821
  169DOPC  C21820572   6.667   2.145  13.950 -0.3760 -0.4684  0.5387
  169DOPC  H18R20573   6.662   2.256  13.953  1.4024 -0.3118 -0.4765
  169DOPC  H18S20574   6.601   2.103  13.871  1.8223 -0.5019 -1.4391
  169DOPC  H18T20575   6.773   2.121  13.925  0.3301  2.3695  0.4880
  169DOPC   C3320576   6.443   1.256  15.663  0.1432  0.6208 -0.4427
  169DOPC   H3X20577   6.384   1.192  15.593  1.6175 -2.5222  1.0126
  169DOPC   H3Y20578   6.518   1.196  15.718 -0.5263 -0.3488 -0.5679
  169DOPC   C3420579   6.510   1.367  15.589  0.2342 -0.9553  0.0630
  169DOPC   H4X20580   6.562   1.427  15.666 -2.1161 -0.9121  1.7094
  169DOPC   H4Y20581   6.433   1.427  15.537 -0.7961 -1.3820  1.0561
  169DOPC   C3520582   6.605   1.320  15.480 -0.9442 -0.2409  0.0683
  169DOPC   H5X20583   6.557   1.241  15.419 -0.1523  0.2545 -1.2372
  169DOPC   H5Y20584   6.699   1.287  15.530 -0.5040  0.0143 -0.5716
  169DOPC   C3620585   6.636   1.433  15.387 -0.3924 -0.2717  0.1770
  169DOPC   H6X20586   6.535   1.469  15.359 -0.9856 -0.6716  1.6983
  169DOPC   H6Y20587   6.689   1.506  15.452  0.7908 -0.2449 -0.7867
  169DOPC   C3720588   6.718   1.377  15.264  0.1322  0.0608 -0.7259
  169DOPC   H7X20589   6.817   1.356  15.310  0.3231  1.6675 -0.3273
  169DOPC   H7Y20590   6.663   1.290  15.223 -0.6521 -0.2724  0.9734
  169DOPC   C3820591   6.728   1.470  15.141  0.1282 -0.1379 -0.1998
  169DOPC   H8X20592   6.786   1.413  15.066  0.9323 -0.7867  0.8877
  169DOPC   H8Y20593   6.775   1.568  15.166 -1.5240  0.3718  1.0738
  169DOPC   C3920594   6.591   1.501  15.092  0.0661  0.3394  0.2278
  169DOPC   H9X20595   6.510   1.478  15.163  1.4158 -1.2129  1.3511
  169DOPC  C31020596   6.565   1.546  14.970 -0.2889 -0.2107 -0.0356
  169DOPC  H10X20597   6.459   1.555  14.940  0.1663  0.6988 -1.4909
  169DOPC  C31120598   6.670   1.551  14.855  0.4972 -1.4067 -0.3099
  169DOPC  H11X20599   6.774   1.531  14.889 -0.0875 -1.2608  1.7040
  169DOPC  H11Y20600   6.665   1.652  14.808  1.1061 -0.2059  2.0739
  169DOPC  C31220601   6.639   1.437  14.752 -0.4326  0.2041 -0.5133
  169DOPC  H12X20602   6.578   1.358  14.801 -1.7466  0.3243 -1.8623
  169DOPC  H12Y20603   6.733   1.398  14.708 -1.0362 -0.5159 -1.2156
  169DOPC  C31320604   6.554   1.482  14.630 -0.2558  0.9923  0.0238
  169DOPC  H13X20605   6.517   1.390  14.581 -3.5248  1.4938  1.3369
  169DOPC  H13Y20606   6.470   1.541  14.671 -0.2329  1.1461 -0.1501
  169DOPC  C31420607   6.626   1.550  14.524 -0.1323 -0.4064 -0.0427
  169DOPC  H14X20608   6.712   1.609  14.561  0.3242  0.7942 -2.7630
  169DOPC  H14Y20609   6.681   1.485  14.452 -0.1915  1.3340 -1.7309
  169DOPC  C31520610   6.534   1.647  14.456  0.2994 -0.9652  0.6592
  169DOPC  H15X20611   6.498   1.727  14.525  3.0803 -0.7415  1.9987
  169DOPC  H15Y20612   6.447   1.593  14.414 -0.0420 -1.2008  1.6403
  169DOPC  C31620613   6.598   1.721  14.339  0.1785 -0.3771  0.4407
  169DOPC  H16X20614   6.527   1.792  14.290  1.6358  1.8024  1.3149
  169DOPC  H16Y20615   6.686   1.775  14.381  0.2264 -1.9507  2.4891
  169DOPC  C31720616   6.671   1.627  14.242 -0.5691 -0.0635  0.2799
  169DOPC  H17X20617   6.775   1.617  14.281  0.2771  0.5529 -1.6907
  169DOPC  H17Y20618   6.626   1.526  14.232 -2.8559  0.7752  1.3180
  169DOPC  C31820619   6.694   1.682  14.100  0.2992 -0.4468  1.2137
  169DOPC  H18X20620   6.802   1.706  14.088 -0.2063  2.3688  1.5553
  169DOPC  H18Y20621   6.664   1.613  14.018  0.1712  1.2998 -0.2791
  169DOPC  H18Z20622   6.637   1.776  14.085 -1.5203 -1.7837 -1.0864
  170DOPC     N20623   5.273   0.336  16.178 -0.5360 -0.2825  0.2506
  170DOPC   C1220624   5.299   0.448  16.074 -0.3987 -0.8957  0.8795
  170DOPC  H12A20625   5.274   0.546  16.112  3.7197  0.6497  0.0639
  170DOPC  H12B20626   5.238   0.418  15.989 -0.3636 -1.6790  1.1187
  170DOPC   C1320627   5.352   0.371  16.303 -0.5850 -0.2722  0.2777
  170DOPC  H13A20628   5.349   0.299  16.383 -1.7597 -0.9371 -0.3370
  170DOPC  H13B20629   5.456   0.370  16.276 -0.3833  0.8511  0.9446
  170DOPC  H13C20630   5.328   0.470  16.338 -2.4249 -1.1388  1.6768
  170DOPC   C1420631   5.321   0.203  16.123 -1.0486 -0.2097  0.4308
  170DOPC  H14A20632   5.279   0.176  16.027 -0.9988  0.6718  0.1533
  170DOPC  H14B20633   5.427   0.221  16.113 -1.3068  2.9254  2.1896
  170DOPC  H14C20634   5.298   0.127  16.196  2.4191 -2.1147 -0.2244
  170DOPC   C1520635   5.128   0.326  16.222 -0.9632 -0.8420  0.5927
  170DOPC  H15A20636   5.101   0.423  16.262 -2.0669 -1.3445  1.1305
  170DOPC  H15B20637   5.118   0.245  16.292  0.1191  0.0958  1.8796
  170DOPC  H15C20638   5.064   0.318  16.135  1.5611  0.4205 -1.5188
  170DOPC   C1120639   5.449   0.465  16.022 -0.0332  0.2446 -0.7176
  170DOPC  H11A20640   5.479   0.376  15.963  0.6391  0.0718 -0.1346
  170DOPC  H11B20641   5.445   0.554  15.956 -1.6113 -0.0296 -1.0202
  170DOPC     P20642   5.687   0.462  16.118  0.2520  0.2104  0.0662
  170DOPC   O1320643   5.690   0.318  16.145 -0.3081  0.0668  0.5597
  170DOPC   O1420644   5.788   0.544  16.195  0.6065  0.4612  0.2053
  170DOPC   O1220645   5.535   0.492  16.132 -0.2184 -0.1776 -0.0940
  170DOPC   O1120646   5.716   0.477  15.957  0.0728  0.7298  0.1145
  170DOPC    C120647   5.743   0.605  15.909  0.7602  0.5762  0.3246
  170DOPC    HA20648   5.834   0.652  15.952  3.0077 -1.1416 -2.2014
  170DOPC    HB20649   5.662   0.674  15.938 -1.2208 -0.7119 -1.8252
  170DOPC    C220650   5.754   0.622  15.754 -0.1690  0.2542  0.6544
  170DOPC    HS20651   5.759   0.730  15.728  0.2696  0.2492  0.7109
  170DOPC   O2120652   5.663   0.551  15.669 -0.2361  0.1256 -0.4911
  170DOPC   C2120653   5.537   0.581  15.679  0.0350  0.1507 -0.4314
  170DOPC   O2220654   5.495   0.685  15.725 -0.1003  0.3076 -0.0104
  170DOPC   C2220655   5.449   0.470  15.623 -0.4548  0.9394  0.3056
  170DOPC   H2R20656   5.385   0.439  15.708 -2.4717  2.2440 -0.6563
  170DOPC   H2S20657   5.505   0.381  15.586 -1.2510  1.3179 -1.9798
  170DOPC    C320658   5.893   0.582  15.702 -0.9033  0.3280  0.2541
  170DOPC    HX20659   5.915   0.476  15.728 -3.4297 -0.5687 -0.9958
  170DOPC    HY20660   5.965   0.651  15.751 -1.3198 -0.1067  1.5188
  170DOPC   O3120661   5.897   0.590  15.561  0.1877  0.5447 -0.5999
  170DOPC   C3120662   6.018   0.593  15.512 -0.3985 -0.1429  0.6586
  170DOPC   O3220663   6.122   0.591  15.575 -0.1946  0.3484  0.1104
  170DOPC   C3220664   6.016   0.585  15.359 -0.5424  0.3322 -0.3117
  170DOPC   H2X20665   5.977   0.487  15.327 -0.0966  0.0516 -0.0168
  170DOPC   H2Y20666   5.946   0.667  15.332 -0.3315  1.1166  1.3518
  170DOPC   C2320667   5.350   0.531  15.519 -0.1541  0.1069 -0.9166
  170DOPC   H3R20668   5.313   0.634  15.536 -0.1650 -0.3591  2.6312
  170DOPC   H3S20669   5.265   0.459  15.510 -1.5443  1.6793 -0.7564
  170DOPC   C2420670   5.424   0.533  15.385  0.1263 -0.1586 -0.1831
  170DOPC   H4R20671   5.490   0.444  15.373  0.9114  0.4282 -0.3375
  170DOPC   H4S20672   5.488   0.624  15.376 -2.7147  1.9875 -0.0172
  170DOPC   C2520673   5.323   0.542  15.266  0.1862 -0.1748  0.1789
  170DOPC   H5R20674   5.234   0.482  15.296 -1.0012  1.0158 -0.8660
  170DOPC   H5S20675   5.373   0.485  15.185  1.0280 -0.9043  1.1777
  170DOPC   C2620676   5.285   0.681  15.219  0.2500  0.2447  0.4519
  170DOPC   H6R20677   5.277   0.751  15.304 -2.3273  0.6250 -0.0268
  170DOPC   H6S20678   5.184   0.662  15.179  0.5199 -1.9260  0.7035
  170DOPC   C2720679   5.365   0.743  15.107  0.6184 -0.3947 -0.0363
  170DOPC   H7R20680   5.398   0.665  15.035  0.5997 -1.2925  0.8966
  170DOPC   H7S20681   5.453   0.791  15.156 -0.6189  1.5358  0.4113
  170DOPC   C2820682   5.278   0.850  15.036  0.1673  0.6034 -0.2679
  170DOPC   H8R20683   5.249   0.923  15.115 -2.5737 -1.4102  0.7543
  170DOPC   H8S20684   5.176   0.820  15.006 -0.4164  0.2358  1.9275
  170DOPC   C2920685   5.346   0.929  14.932  0.2870  0.0097 -0.0400
  170DOPC   H9R20686   5.415   1.005  14.973  0.1203  0.0714  0.1305
  170DOPC  C21020687   5.323   0.925  14.801  0.2363 -0.4170 -0.3005
  170DOPC  H10R20688   5.361   1.014  14.750  1.5652  0.6617  2.4036
  170DOPC  C21120689   5.233   0.838  14.716 -0.4238 -0.4547  0.4694
  170DOPC  H11R20690   5.171   0.920  14.676  0.9174  0.5888  0.4384
  170DOPC  H11S20691   5.170   0.774  14.782 -0.7249 -2.1683 -1.3977
  170DOPC  C21220692   5.296   0.757  14.605  0.4035 -0.0646 -0.7456
  170DOPC  H12R20693   5.338   0.670  14.660 -1.2211  0.0430  0.7936
  170DOPC  H12S20694   5.379   0.803  14.549  0.2894  0.3901 -0.5465
  170DOPC  C21320695   5.185   0.726  14.509  0.4302 -0.2650 -0.4301
  170DOPC  H13R20696   5.120   0.815  14.491  0.8985  0.4360  1.2025
  170DOPC  H13S20697   5.126   0.642  14.551  1.1443 -0.9553 -0.7781
  170DOPC  C21420698   5.244   0.688  14.371 -0.0246  0.7044 -0.3808
  170DOPC  H14R20699   5.282   0.584  14.379 -0.1663  0.7389  1.1683
  170DOPC  H14S20700   5.333   0.752  14.357 -0.2905  1.6408  1.7896
  170DOPC  C21520701   5.163   0.704  14.246  0.4789  0.3196 -0.8532
  170DOPC  H15R20702   5.108   0.798  14.267 -3.3674 -1.9646  0.4706
  170DOPC  H15S20703   5.082   0.628  14.235  2.0283 -1.4893 -0.3923
  170DOPC  C21620704   5.245   0.707  14.123 -0.1625 -0.4466 -0.0758
  170DOPC  H16R20705   5.301   0.611  14.117 -0.6707 -0.6876 -1.2099
  170DOPC  H16S20706   5.324   0.785  14.123 -0.1066 -0.4485 -2.0802
  170DOPC  C21720707   5.158   0.716  13.994  0.1319 -0.1281  0.0292
  170DOPC  H17R20708   5.120   0.819  13.978 -1.0949 -0.9349 -3.0183
  170DOPC  H17S20709   5.068   0.651  13.993 -0.0603  0.0758 -2.2584
  170DOPC  C21820710   5.233   0.678  13.873 -0.0225  0.0272  0.4108
  170DOPC  H18R20711   5.279   0.578  13.887 -1.3963 -0.6090  0.5466
  170DOPC  H18S20712   5.303   0.762  13.853 -0.9501  0.4953 -1.0240
  170DOPC  H18T20713   5.162   0.684  13.788  0.6068  0.0503 -0.1204
  170DOPC   C3320714   6.157   0.609  15.293 -0.4549 -0.0447  0.5986
  170DOPC   H3X20715   6.217   0.515  15.289 -0.8427 -0.2605 -0.4592
  170DOPC   H3Y20716   6.227   0.676  15.347 -0.1512 -0.2787  0.5023
  170DOPC   C3420717   6.145   0.667  15.153 -0.4426  0.1356 -0.0454
  170DOPC   H4X20718   6.249   0.681  15.115  1.3677 -0.2367  4.1438
  170DOPC   H4Y20719   6.102   0.769  15.166  1.3669  1.1316 -1.3301
  170DOPC   C3520720   6.068   0.579  15.060  0.5681 -0.0128  0.4942
  170DOPC   H5X20721   5.960   0.566  15.082  0.6461 -0.2973  0.7189
  170DOPC   H5Y20722   6.116   0.479  15.055  0.8213  0.1917 -2.3757
  170DOPC   C3620723   6.078   0.634  14.911 -0.6069 -0.3150 -0.0570
  170DOPC   H6X20724   6.184   0.637  14.881  0.7180 -3.3502  3.4319
  170DOPC   H6Y20725   6.024   0.564  14.843  2.9186 -3.4133 -0.0201
  170DOPC   C3720726   6.014   0.772  14.897  0.1774 -0.4648 -0.1291
  170DOPC   H7X20727   5.910   0.779  14.935 -0.1808 -0.7923 -1.0162
  170DOPC   H7Y20728   6.079   0.838  14.957 -0.5241  1.3458 -1.2947
  170DOPC   C3820729   6.001   0.825  14.760  0.6177 -0.0525  0.5002
  170DOPC   H8X20730   5.950   0.922  14.775  0.3007 -0.1016 -0.2234
  170DOPC   H8Y20731   5.933   0.759  14.701  2.2290 -1.4534  0.1038
  170DOPC   C3920732   6.125   0.861  14.677  0.0832 -0.0873 -0.3250
  170DOPC   H9X20733   6.205   0.908  14.736 -0.7653  1.3148 -0.2454
  170DOPC  C31020734   6.162   0.794  14.566  0.7125 -1.0325 -0.2800
  170DOPC  H10X20735   6.262   0.824  14.530  0.5889  1.2735  1.0791
  170DOPC  C31120736   6.083   0.692  14.482  0.1874  0.0641 -0.0438
  170DOPC  H11X20737   5.975   0.693  14.511  0.3642  3.3241  0.8423
  170DOPC  H11Y20738   6.133   0.593  14.483  1.7680  0.8287  1.5250
  170DOPC  C31220739   6.093   0.734  14.336 -0.4824 -0.1287 -0.4326
  170DOPC  H12X20740   6.062   0.641  14.284 -2.6151  0.8821 -1.1160
  170DOPC  H12Y20741   6.194   0.761  14.300 -0.0390 -0.3901  0.5920
  170DOPC  C31320742   5.983   0.848  14.301 -0.0657  0.0728 -0.3045
  170DOPC  H13X20743   5.880   0.807  14.298  0.0204 -0.0634 -2.2641
  170DOPC  H13Y20744   5.987   0.922  14.384 -0.2028 -0.9183  0.6135
  170DOPC  C31420745   6.024   0.915  14.173 -0.0685  0.4222  0.6051
  170DOPC  H14X20746   5.971   1.012  14.166  1.5629  1.3195 -0.0193
  170DOPC  H14Y20747   6.133   0.941  14.171 -0.0097  0.1219 -0.2265
  170DOPC  C31520748   5.990   0.830  14.046  0.2558 -0.7270 -0.4469
  170DOPC  H15X20749   5.908   0.762  14.076  1.1220 -2.2913 -1.4633
  170DOPC  H15Y20750   6.071   0.754  14.036 -0.6170 -2.5417  3.8368
  170DOPC  C31620751   5.967   0.897  13.911  0.3196  0.6918  0.2586
  170DOPC  H16X20752   5.866   0.941  13.926  0.0272 -0.7947  3.4880
  170DOPC  H16Y20753   6.039   0.981  13.914  1.2732  0.0560 -2.1105
  170DOPC  C31720754   5.996   0.808  13.786  0.1621 -0.5374  0.2327
  170DOPC  H17X20755   6.087   0.745  13.784  0.4308 -0.2067  1.3691
  170DOPC  H17Y20756   5.912   0.738  13.767 -1.5538  1.8259 -1.3802
  170DOPC  C31820757   5.998   0.891  13.650  0.0622 -0.2400 -0.4660
  170DOPC  H18X20758   6.041   0.989  13.679 -0.3913 -0.5578  1.4087
  170DOPC  H18Y20759   6.061   0.833  13.579 -1.3849 -1.1100 -1.0865
  170DOPC  H18Z20760   5.901   0.913  13.600  0.0121  0.1617 -0.1981
  171DOPC     N20761   2.275   4.593  11.196 -0.0460 -0.0664  0.4737
  171DOPC   C1220762   2.153   4.648  11.124  0.0714  0.6587  0.3727
  171DOPC  H12A20763   2.105   4.719  11.190  0.1424  0.4914  0.6075
  171DOPC  H12B20764   2.089   4.568  11.090 -0.4028  1.1376  0.1321
  171DOPC   C1320765   2.383   4.532  11.105 -0.0559  0.0292 -0.1366
  171DOPC  H13A20766   2.337   4.464  11.035  1.9036 -0.9248 -0.5866
  171DOPC  H13B20767   2.437   4.617  11.068  0.0474  1.1541  2.3712
  171DOPC  H13C20768   2.448   4.472  11.168  1.5148  3.1603  1.4349
  171DOPC   C1420769   2.246   4.497  11.298  0.2441 -0.4405 -0.3080
  171DOPC  H14A20770   2.219   4.402  11.254 -0.5120 -0.2247 -0.3320
  171DOPC  H14B20771   2.335   4.492  11.359  0.7942 -0.8097 -1.1249
  171DOPC  H14C20772   2.163   4.521  11.363 -2.6316 -1.5222 -3.3133
  171DOPC   C1520773   2.340   4.709  11.271  1.0021  0.5235  0.2226
  171DOPC  H15A20774   2.265   4.740  11.343 -1.5769 -1.2296 -1.5198
  171DOPC  H15B20775   2.361   4.782  11.194  2.0016 -1.3121 -1.3535
  171DOPC  H15C20776   2.427   4.677  11.327  0.5451 -1.2265 -0.0069
  171DOPC   C1120777   2.171   4.745  10.998 -0.1953 -0.1413 -0.6647
  171DOPC  H11A20778   2.251   4.699  10.936  0.5587 -0.7859  0.7472
  171DOPC  H11B20779   2.081   4.757  10.935 -2.0009  2.2657  2.0978
  171DOPC     P20780   2.132   4.971  11.116  0.2520  0.2455  0.3019
  171DOPC   O1320781   2.011   4.990  11.038  0.2818 -0.4071  0.0654
  171DOPC   O1420782   2.219   5.088  11.136 -0.0147  0.6185  0.3452
  171DOPC   O1220783   2.219   4.874  11.042  0.6829  0.4732  0.1940
  171DOPC   O1120784   2.100   4.900  11.250 -0.0451 -0.6135 -0.2954
  171DOPC    C120785   2.024   4.971  11.352  0.0443 -0.3133  0.7094
  171DOPC    HA20786   1.990   4.888  11.417  1.5807 -2.5666 -1.1752
  171DOPC    HB20787   1.933   5.016  11.307  0.9281  0.0217 -0.8401
  171DOPC    C220788   2.107   5.078  11.427 -0.4929 -0.4565 -0.0000
  171DOPC    HS20789   2.145   5.147  11.349 -0.1304 -0.0150  0.5571
  171DOPC   O2120790   2.214   5.013  11.498 -0.3359  0.6405 -0.1138
  171DOPC   C2120791   2.308   5.097  11.543 -0.7637  0.4610  0.3200
  171DOPC   O2220792   2.301   5.216  11.536 -0.4351  0.2158 -0.0597
  171DOPC   C2220793   2.420   5.025  11.593 -0.2283  0.3162 -0.2324
  171DOPC   H2R20794   2.512   5.039  11.532  1.1945 -1.5137  1.3315
  171DOPC   H2S20795   2.392   4.917  11.588  0.1254  0.2750 -1.8644
  171DOPC    C320796   2.016   5.150  11.526  0.1348 -0.1129 -0.2569
  171DOPC    HX20797   2.058   5.247  11.561 -0.5474 -0.2981  1.1328
  171DOPC    HY20798   2.000   5.082  11.612  0.1407 -1.2561 -1.1452
  171DOPC   O3120799   1.882   5.170  11.484  0.5204  0.2879 -0.6756
  171DOPC   C3120800   1.844   5.274  11.423  0.6778  0.0961  0.5827
  171DOPC   O3220801   1.908   5.370  11.386  0.2158  0.0848 -1.0004
  171DOPC   C3220802   1.690   5.264  11.406 -0.0103  0.0898  0.4622
  171DOPC   H2X20803   1.660   5.256  11.300 -2.1395 -0.9675  1.0897
  171DOPC   H2Y20804   1.635   5.184  11.460  0.6092 -1.4617 -1.1188
  171DOPC   C2320805   2.431   5.059  11.745  0.0481 -0.8288  0.1775
  171DOPC   H3R20806   2.431   5.169  11.761 -1.8171 -0.8006  0.2400
  171DOPC   H3S20807   2.538   5.035  11.761  0.3072 -0.2199 -0.5701
  171DOPC   C2420808   2.333   4.982  11.830 -0.1763 -0.0262 -0.2830
  171DOPC   H4R20809   2.294   4.894  11.773  0.6021 -0.0375 -0.8174
  171DOPC   H4S20810   2.251   5.051  11.859  0.1372  0.6573 -0.9863
  171DOPC   C2520811   2.393   4.931  11.957 -0.0656 -0.2063  0.5914
  171DOPC   H5R20812   2.463   4.848  11.933 -0.5068 -0.2340 -0.6646
  171DOPC   H5S20813   2.313   4.875  12.009  0.8897 -1.5708  0.6626
  171DOPC   C2620814   2.447   5.037  12.057 -0.0917  0.2592  0.3408
  171DOPC   H6R20815   2.365   5.102  12.094 -0.3069  0.4985 -0.5258
  171DOPC   H6S20816   2.513   5.117  12.016 -2.2583  2.1998  0.3882
  171DOPC   C2720817   2.499   4.971  12.183 -0.0937  0.0776  0.6816
  171DOPC   H7R20818   2.574   4.894  12.155  1.9056  1.1588  2.7696
  171DOPC   H7S20819   2.419   4.915  12.235 -0.8771  0.3244 -0.2168
  171DOPC   C2820820   2.556   5.074  12.284 -0.1486  0.1171  0.0595
  171DOPC   H8R20821   2.474   5.147  12.304 -0.3204  0.0811 -0.5098
  171DOPC   H8S20822   2.639   5.136  12.245 -0.2107 -0.7311 -1.4816
  171DOPC   C2920823   2.589   5.000  12.406 -0.2777 -0.5229 -0.4013
  171DOPC   H9R20824   2.659   4.916  12.397  1.0969  0.3678  1.3536
  171DOPC  C21020825   2.542   5.029  12.527 -0.8275 -0.2017 -0.2552
  171DOPC  H10R20826   2.581   4.975  12.614  0.8495  1.3589  0.0222
  171DOPC  C21120827   2.452   5.150  12.569 -0.1357  0.7213  0.1570
  171DOPC  H11R20828   2.347   5.132  12.536 -0.3959  2.3501  0.0257
  171DOPC  H11S20829   2.477   5.243  12.513  2.4229  1.3930  2.2288
  171DOPC  C21220830   2.468   5.192  12.720  0.0208  0.5653  0.4389
  171DOPC  H12R20831   2.437   5.298  12.731 -2.7051  0.1401 -2.0769
  171DOPC  H12S20832   2.574   5.184  12.752  0.3527 -0.8167 -0.9221
  171DOPC  C21320833   2.392   5.101  12.827 -0.1768  0.0003  0.0537
  171DOPC  H13R20834   2.412   4.993  12.809 -0.8399  0.0704 -1.3008
  171DOPC  H13S20835   2.282   5.115  12.822 -0.1207  0.8329  0.9685
  171DOPC  C21420836   2.444   5.129  12.970  0.1806 -0.0115 -0.2904
  171DOPC  H14R20837   2.437   5.236  12.995  0.1888 -0.1545  0.3297
  171DOPC  H14S20838   2.551   5.099  12.960  0.1618 -0.1393 -0.1092
  171DOPC  C21520839   2.365   5.057  13.077  0.7381 -0.1621  0.4388
  171DOPC  H15R20840   2.375   4.947  13.073  0.5998 -0.1501 -2.0250
  171DOPC  H15S20841   2.257   5.080  13.064  0.3275 -2.1065  0.1574
  171DOPC  C21620842   2.413   5.101  13.219  0.0891  0.2889 -0.9510
  171DOPC  H16R20843   2.412   5.212  13.228  1.9756  0.4903 -2.4962
  171DOPC  H16S20844   2.521   5.074  13.218 -0.4497 -2.0653 -1.2348
  171DOPC  C21720845   2.354   5.033  13.342  0.1564 -0.5705 -0.4342
  171DOPC  H17R20846   2.401   5.071  13.435 -1.2754  1.6149 -0.5330
  171DOPC  H17S20847   2.366   4.923  13.349  0.5507 -0.4243  2.0198
  171DOPC  C21820848   2.209   5.073  13.355  0.2568 -0.0382 -0.4551
  171DOPC  H18R20849   2.195   5.177  13.391 -2.3921 -0.6911  0.7319
  171DOPC  H18S20850   2.153   5.014  13.431  2.7032 -0.1138  1.3982
  171DOPC  H18T20851   2.139   5.063  13.269 -1.6724  0.3098  0.9821
  171DOPC   C3320852   1.612   5.394  11.447  0.6255  0.2417 -0.1993
  171DOPC   H3X20853   1.504   5.382  11.421 -0.3872  3.1904  2.0848
  171DOPC   H3Y20854   1.645   5.484  11.391  1.9394 -0.0974 -0.0032
  171DOPC   C3420855   1.623   5.435  11.591  0.0315 -0.1276  0.1652
  171DOPC   H4X20856   1.583   5.538  11.601 -0.7241 -0.4680  0.8096
  171DOPC   H4Y20857   1.719   5.431  11.647  0.2668 -1.6605 -0.2917
  171DOPC   C3520858   1.525   5.356  11.683 -0.3288 -0.2928  0.7642
  171DOPC   H5X20859   1.553   5.252  11.708 -0.6318 -0.2719  1.2114
  171DOPC   H5Y20860   1.434   5.351  11.620 -0.6894  0.2361  1.2290
  171DOPC   C3620861   1.495   5.436  11.809  0.0877 -0.1329  0.3146
  171DOPC   H6X20862   1.473   5.542  11.788 -4.3295 -0.5204  1.9783
  171DOPC   H6Y20863   1.411   5.389  11.865  0.0239  1.6040  1.7523
  171DOPC   C3720864   1.603   5.435  11.921  1.2604  0.1096  0.6665
  171DOPC   H7X20865   1.639   5.331  11.938 -1.4116 -0.6348  2.3393
  171DOPC   H7Y20866   1.687   5.495  11.878  1.6673 -1.8858 -1.5610
  171DOPC   C3820867   1.566   5.493  12.055 -0.6457  0.8654 -0.1003
  171DOPC   H8X20868   1.560   5.600  12.029 -0.8710  1.1140  0.9146
  171DOPC   H8Y20869   1.653   5.478  12.122  0.5225  2.8620 -1.1024
  171DOPC   C3920870   1.436   5.450  12.117  0.0466  0.8810  0.2922
  171DOPC   H9X20871   1.346   5.483  12.064  0.5751  1.6733 -0.1279
  171DOPC  C31020872   1.433   5.362  12.221 -1.0999 -0.4636  0.1379
  171DOPC  H10X20873   1.338   5.324  12.260 -0.1372 -1.9885  1.1185
  171DOPC  C31120874   1.558   5.303  12.282  0.1916 -0.2522  0.2135
  171DOPC  H11X20875   1.616   5.380  12.337  1.5839  0.4728 -2.1181
  171DOPC  H11Y20876   1.623   5.287  12.193 -0.2562  3.4986 -0.9815
  171DOPC  C31220877   1.554   5.165  12.348  0.5200  0.1000 -0.1343
  171DOPC  H12X20878   1.649   5.156  12.405  0.3139  2.4556  0.6835
  171DOPC  H12Y20879   1.536   5.085  12.272 -1.3631  1.2694 -0.9874
  171DOPC  C31320880   1.438   5.156  12.452  0.1599  0.1884  1.0296
  171DOPC  H13X20881   1.341   5.174  12.401  1.2883  0.3084 -1.2245
  171DOPC  H13Y20882   1.445   5.055  12.498 -2.7413  0.1142  1.4429
  171DOPC  C31420883   1.452   5.260  12.571 -0.1501 -0.1193 -0.0029
  171DOPC  H14X20884   1.555   5.258  12.612  0.1972  4.2058 -0.1503
  171DOPC  H14Y20885   1.445   5.366  12.536 -2.2282 -0.1698  0.1418
  171DOPC  C31520886   1.353   5.241  12.688  0.1141  0.7804  0.2047
  171DOPC  H15X20887   1.315   5.138  12.670 -0.4447  0.5210  2.5992
  171DOPC  H15Y20888   1.260   5.301  12.696 -1.5004 -1.6638  0.7027
  171DOPC  C31620889   1.414   5.237  12.834 -0.0802 -0.7121  0.2550
  171DOPC  H16X20890   1.519   5.201  12.826  0.6190  1.1278  0.6599
  171DOPC  H16Y20891   1.410   5.344  12.863 -1.3976 -0.7726  0.3552
  171DOPC  C31720892   1.323   5.155  12.915 -0.2012 -1.0756  0.4979
  171DOPC  H17X20893   1.219   5.190  12.896  0.7208 -0.1182 -3.7088
  171DOPC  H17Y20894   1.326   5.057  12.863  0.0980  0.0707 -1.7625
  171DOPC  C31820895   1.348   5.146  13.065 -0.6617 -0.3917 -0.0554
  171DOPC  H18X20896   1.439   5.084  13.073 -0.5770 -0.4699 -1.3800
  171DOPC  H18Y20897   1.376   5.236  13.124  0.6567 -0.5553 -0.3964
  171DOPC  H18Z20898   1.267   5.097  13.122 -2.6537  3.3540  0.6936
  172DOPC     N20899   1.105   5.852  10.473  0.4140 -0.3188 -0.0239
  172DOPC   C1220900   1.252   5.871  10.501  0.3364 -0.2650 -0.0064
  172DOPC  H12A20901   1.286   5.947  10.432  0.6439 -0.5673 -0.1921
  172DOPC  H12B20902   1.304   5.778  10.482  0.1827 -0.1761 -0.8719
  172DOPC   C1320903   1.051   5.739  10.547 -0.5266  0.0593 -0.1972
  172DOPC  H13A20904   1.098   5.737  10.644  1.6313  0.4250 -1.1722
  172DOPC  H13B20905   0.946   5.726  10.569 -0.3445 -0.1200  0.5761
  172DOPC  H13C20906   1.089   5.652  10.496  3.2014  2.1657 -1.4562
  172DOPC   C1420907   1.088   5.816  10.327 -0.0327 -0.5291 -0.5257
  172DOPC  H14A20908   0.986   5.784  10.309  0.1053 -0.5027 -1.3742
  172DOPC  H14B20909   1.102   5.900  10.261 -0.3972  1.1494  1.4227
  172DOPC  H14C20910   1.150   5.731  10.305  1.9423  0.4696  0.8473
  172DOPC   C1520911   1.030   5.976  10.492  0.5837  0.1278 -0.2732
  172DOPC  H15A20912   1.017   6.017  10.591  1.0958  2.2591 -1.0293
  172DOPC  H15B20913   0.940   5.980  10.433  1.0660  1.9412 -0.9448
  172DOPC  H15C20914   1.088   6.051  10.440  2.2976 -1.0202 -0.1041
  172DOPC   C1120915   1.294   5.921  10.644 -0.4966 -0.0115 -0.1405
  172DOPC  H11A20916   1.404   5.932  10.631 -0.5305 -0.1819 -0.6201
  172DOPC  H11B20917   1.249   6.023  10.649  1.0534  0.7049 -0.2822
  172DOPC     P20918   1.354   5.750  10.833  0.3569  0.0793  0.1564
  172DOPC   O1320919   1.497   5.791  10.811 -0.8255 -0.3013  0.3064
  172DOPC   O1420920   1.309   5.611  10.803  0.2445 -0.0736  0.1847
  172DOPC   O1220921   1.258   5.832  10.748 -0.2209  0.7450  0.1209
  172DOPC   O1120922   1.305   5.787  10.980 -0.0470  0.7624 -0.3459
  172DOPC    C120923   1.311   5.931  11.011  0.1077  0.4874  0.4292
  172DOPC    HA20924   1.214   5.956  11.059 -1.4836 -2.2859 -1.0688
  172DOPC    HB20925   1.315   5.994  10.919  1.8889 -1.5286 -0.9498
  172DOPC    C220926   1.430   5.967  11.104 -0.1213 -1.3408 -0.1880
  172DOPC    HS20927   1.518   5.950  11.038 -1.2950 -1.4193 -1.7896
  172DOPC   O2120928   1.435   5.879  11.215  0.0451  0.5561 -0.0390
  172DOPC   C2120929   1.553   5.880  11.285  0.0271  0.2120  0.1469
  172DOPC   O2220930   1.651   5.943  11.242 -0.1587 -0.0636 -0.3087
  172DOPC   C2220931   1.542   5.794  11.419 -0.7515  0.1510  0.2139
  172DOPC   H2R20932   1.645   5.761  11.445 -0.7984 -0.9912 -0.9957
  172DOPC   H2S20933   1.485   5.701  11.395  2.0752 -2.4313  2.6284
  172DOPC    C320934   1.428   6.116  11.145  0.0283 -0.0650  0.1628
  172DOPC    HX20935   1.437   6.174  11.050  3.1020  0.0061  0.3712
  172DOPC    HY20936   1.523   6.141  11.198  0.1709  2.3675 -1.0679
  172DOPC   O3120937   1.315   6.143  11.235  0.2358 -0.6808 -0.4156
  172DOPC   C3120938   1.310   6.281  11.247 -0.3073  0.3234 -0.4477
  172DOPC   O3220939   1.384   6.359  11.193  0.4026  0.1575 -0.1802
  172DOPC   C3220940   1.196   6.322  11.329 -0.0837  0.2584  0.3038
  172DOPC   H2X20941   1.133   6.380  11.259 -1.4835 -1.2255  0.2577
  172DOPC   H2Y20942   1.141   6.234  11.370  1.9287  0.2896  3.3695
  172DOPC   C2320943   1.480   5.880  11.530 -0.0359  0.0604 -0.6261
  172DOPC   H3R20944   1.526   5.981  11.532  0.3423 -0.1229  0.7325
  172DOPC   H3S20945   1.508   5.837  11.628 -1.8021  0.5398  0.1399
  172DOPC   C2420946   1.327   5.898  11.524  0.7039  0.7562 -0.5167
  172DOPC   H4R20947   1.290   5.796  11.498  3.7029 -0.4347 -0.5706
  172DOPC   H4S20948   1.306   5.966  11.438  0.6291  1.3270 -0.0516
  172DOPC   C2520949   1.242   5.958  11.646 -0.5091  0.1159  0.0029
  172DOPC   H5R20950   1.138   5.934  11.617  0.1127 -0.8876 -1.5808
  172DOPC   H5S20951   1.249   6.068  11.660 -0.2144  0.2918 -1.3085
  172DOPC   C2620952   1.271   5.890  11.776  0.2134  0.0789 -0.2007
  172DOPC   H6R20953   1.355   5.933  11.835  0.9292  1.3687 -2.0790
  172DOPC   H6S20954   1.290   5.781  11.764 -3.5835 -0.6875 -0.4464
  172DOPC   C2720955   1.152   5.898  11.872 -0.3859 -0.2041 -0.2823
  172DOPC   H7R20956   1.060   5.890  11.810 -1.0126  2.0016  0.2690
  172DOPC   H7S20957   1.142   5.998  11.919 -1.6800 -0.3509 -0.2193
  172DOPC   C2820958   1.150   5.780  11.976 -0.6930 -0.3064  0.2013
  172DOPC   H8R20959   1.152   5.682  11.924  0.5835 -0.6255  0.8230
  172DOPC   H8S20960   1.052   5.783  12.028 -0.6944  0.4902  0.1595
  172DOPC   C2920961   1.256   5.796  12.078 -0.0723 -0.5885 -0.0542
  172DOPC   H9R20962   1.346   5.734  12.070  1.7180  1.7468  0.6875
  172DOPC  C21020963   1.246   5.884  12.174  0.8195 -0.4675  0.1164
  172DOPC  H10R20964   1.326   5.884  12.250 -0.1078 -1.4679  1.1299
  172DOPC  C21120965   1.133   5.975  12.211  0.3907 -0.6551  0.1307
  172DOPC  H11R20966   1.082   6.017  12.121  2.0242  3.1561  0.7745
  172DOPC  H11S20967   1.178   6.062  12.265 -0.2734 -0.2903  0.1067
  172DOPC  C21220968   1.044   5.905  12.314 -0.0044 -0.2091  0.2480
  172DOPC  H12R20969   1.013   5.803  12.284 -0.1381  0.3370 -1.5983
  172DOPC  H12S20970   0.957   5.973  12.329 -0.2901 -0.4698 -0.1912
  172DOPC  C21320971   1.104   5.916  12.457 -0.4758 -0.3266 -0.3942
  172DOPC  H13R20972   1.144   6.018  12.475 -1.1266 -0.0000 -0.7663
  172DOPC  H13S20973   1.190   5.846  12.466 -0.1638  0.2244  1.2437
  172DOPC  C21420974   0.991   5.885  12.557 -0.2739 -0.2422  0.3816
  172DOPC  H14R20975   0.953   5.782  12.540  0.5727 -0.6115  0.6484
  172DOPC  H14S20976   0.914   5.964  12.549 -0.3110 -0.2412  0.7570
  172DOPC  C21520977   1.045   5.909  12.695 -0.9588 -0.4163 -0.2903
  172DOPC  H15R20978   1.083   6.014  12.692  0.7606 -1.0312 -1.9337
  172DOPC  H15S20979   1.133   5.844  12.715 -0.0017  0.4550 -1.4551
  172DOPC  C21620980   0.938   5.917  12.807 -0.3152  0.0412  0.1404
  172DOPC  H16R20981   0.993   5.931  12.903  1.3177  2.3776 -1.0638
  172DOPC  H16S20982   0.875   5.826  12.814 -1.5677  0.9312  0.6559
  172DOPC  C21720983   0.835   6.030  12.802 -0.3094  0.0605 -0.2705
  172DOPC  H17R20984   0.774   6.020  12.710 -0.0202  0.0636 -0.4676
  172DOPC  H17S20985   0.889   6.127  12.802 -0.8005  0.3392 -0.6701
  172DOPC  C21820986   0.732   6.030  12.914  0.6696  0.1567 -0.1517
  172DOPC  H18R20987   0.666   5.943  12.894  0.0636  1.0754 -2.4758
  172DOPC  H18S20988   0.671   6.123  12.909 -0.8652 -0.7947  0.2098
  172DOPC  H18T20989   0.774   6.022  13.016 -1.6932  0.7919  0.9404
  172DOPC   C3320990   1.238   6.407  11.450 -0.1682  0.1159 -0.3316
  172DOPC   H3X20991   1.151   6.468  11.481 -1.4143 -1.5616 -0.3497
  172DOPC   H3Y20992   1.325   6.468  11.419  2.6741 -1.4220  3.7471
  172DOPC   C3420993   1.270   6.321  11.574  0.0281  0.0540  0.7601
  172DOPC   H4X20994   1.359   6.256  11.568  1.3163  1.6199  1.8311
  172DOPC   H4Y20995   1.176   6.263  11.585 -0.2361  0.0504 -1.1801
  172DOPC   C3520996   1.310   6.410  11.692 -0.9588  0.1194 -0.0703
  172DOPC   H5X20997   1.217   6.426  11.751 -0.4277  0.8335  0.5959
  172DOPC   H5Y20998   1.358   6.504  11.657 -0.3987  0.6098  1.8922
  172DOPC   C3620999   1.416   6.350  11.790 -0.1044  0.1717  0.1631
  172DOPC   H6X21000   1.406   6.241  11.810  1.0079  0.1935  0.8830
  172DOPC   H6Y21001   1.510   6.370  11.734 -2.2391  1.1604 -3.4578
  172DOPC   C3721002   1.424   6.428  11.919  0.2997  0.6332 -0.3323
  172DOPC   H7X21003   1.527   6.423  11.962 -0.9717  0.4602  3.0454
  172DOPC   H7Y21004   1.398   6.534  11.902  1.6341  0.9215 -0.6644
  172DOPC   C3821005   1.330   6.373  12.030  0.3732  0.4088 -0.0922
  172DOPC   H8X21006   1.234   6.390  11.976  0.2818  1.1930  0.2964
  172DOPC   H8Y21007   1.327   6.444  12.116 -1.6337  1.4419 -0.9392
  172DOPC   C3921008   1.360   6.234  12.083 -0.1839 -0.4808 -0.3144
  172DOPC   H9X21009   1.304   6.149  12.040 -0.5285  1.0645 -3.1422
  172DOPC  C31021010   1.442   6.210  12.188  0.4118  0.2625 -0.2096
  172DOPC  H10X21011   1.445   6.115  12.243 -1.3651  0.7898  0.8665
  172DOPC  C31121012   1.525   6.316  12.249 -0.1820 -0.2342 -0.3286
  172DOPC  H11X21013   1.519   6.412  12.195  0.1604 -0.6311 -1.0916
  172DOPC  H11Y21014   1.629   6.284  12.228  0.8025  1.8234  1.0774
  172DOPC  C31221015   1.496   6.322  12.399  0.5980 -0.4801  0.2681
  172DOPC  H12X21016   1.389   6.345  12.415  0.3794 -1.6586  0.5852
  172DOPC  H12Y21017   1.564   6.401  12.439  1.0797  0.4220 -2.1420
  172DOPC  C31321018   1.530   6.188  12.465 -0.4916  0.0189 -0.3290
  172DOPC  H13X21019   1.475   6.096  12.436 -0.7015  0.0231  0.0341
  172DOPC  H13Y21020   1.639   6.171  12.452 -0.0516  1.5437  1.0346
  172DOPC  C31421021   1.516   6.199  12.616  0.1664 -0.4998 -0.1308
  172DOPC  H14X21022   1.538   6.094  12.645 -0.5241  0.0335  2.5682
  172DOPC  H14Y21023   1.602   6.241  12.671 -1.1834 -0.1966  1.8587
  172DOPC  C31521024   1.375   6.231  12.665  0.1065  0.1636 -0.2448
  172DOPC  H15X21025   1.305   6.171  12.603  0.5957 -0.8528  0.1508
  172DOPC  H15Y21026   1.352   6.337  12.641 -1.1241  0.0106  0.2230
  172DOPC  C31621027   1.368   6.206  12.816  0.3378  0.5186  0.3769
  172DOPC  H16X21028   1.373   6.097  12.834  2.1483  0.3436 -0.9529
  172DOPC  H16Y21029   1.462   6.244  12.860  0.7686 -0.5394  0.3941
  172DOPC  C31721030   1.244   6.265  12.889 -1.2487  0.1452  0.6443
  172DOPC  H17X21031   1.259   6.375  12.891 -1.4942  0.2004 -0.0961
  172DOPC  H17Y21032   1.157   6.231  12.828 -1.2382 -0.4146  0.9348
  172DOPC  C31821033   1.214   6.213  13.032 -0.6583 -0.1830  0.1437
  172DOPC  H18X21034   1.256   6.111  13.042 -0.9006 -0.1347  2.0747
  172DOPC  H18Y21035   1.280   6.270  13.100 -0.9483 -0.1700  0.4186
  172DOPC  H18Z21036   1.106   6.218  13.059 -0.0862 -0.2034  2.6877
  173DOPC     N21037   0.413   4.803  11.247 -0.1961 -0.3984 -0.0486
  173DOPC   C1221038   0.422   4.649  11.258  1.1754  0.0906  0.3488
  173DOPC  H12A21039   0.435   4.603  11.161  1.5855  0.1921  0.3531
  173DOPC  H12B21040   0.334   4.608  11.305  2.2451 -0.2369  2.1281
  173DOPC   C1321041   0.361   4.842  11.114 -0.0136  0.4182 -0.4817
  173DOPC  H13A21042   0.267   4.795  11.086  0.3362  0.1073 -1.1470
  173DOPC  H13B21043   0.353   4.949  11.105 -0.0550  0.2570 -2.9935
  173DOPC  H13C21044   0.429   4.809  11.037 -1.5290  2.3447 -2.7878
  173DOPC   C1421045   0.545   4.867  11.269 -0.2816 -0.0297 -0.5837
  173DOPC  H14A21046   0.533   4.974  11.272  1.0630  0.1854 -1.9153
  173DOPC  H14B21047   0.578   4.842  11.369 -0.5413  1.8469  0.0080
  173DOPC  H14C21048   0.623   4.846  11.198  2.2572  1.0808  1.6939
  173DOPC   C1521049   0.314   4.842  11.360  0.6293  0.0955 -0.0025
  173DOPC  H15A21050   0.220   4.796  11.335 -1.1894  2.6735  1.6235
  173DOPC  H15B21051   0.300   4.949  11.370  1.9651  0.4044 -1.0699
  173DOPC  H15C21052   0.341   4.810  11.460 -0.3282  1.7990  0.8558
  173DOPC   C1121053   0.540   4.596  11.336 -0.3075  0.1733  0.5607
  173DOPC  H11A21054   0.538   4.487  11.317 -0.0164  0.2564  0.0301
  173DOPC  H11B21055   0.636   4.632  11.293 -0.8377 -0.0887 -0.8995
  173DOPC     P21056   0.624   4.566  11.577 -0.3602 -0.4355  0.2204
  173DOPC   O1321057   0.755   4.644  11.585  0.0012  0.2746 -0.0616
  173DOPC   O1421058   0.632   4.422  11.541 -0.2772  0.3143  0.1135
  173DOPC   O1221059   0.534   4.638  11.476  0.0305 -0.1075  0.1114
  173DOPC   O1121060   0.549   4.578  11.717  0.4264  0.2285  0.2352
  173DOPC    C121061   0.476   4.692  11.754 -0.5480 -0.0622  1.0068
  173DOPC    HA21062   0.366   4.674  11.750 -0.4524 -0.9695  2.1095
  173DOPC    HB21063   0.493   4.775  11.682  1.2870 -1.1990  0.0495
  173DOPC    C221064   0.513   4.738  11.899 -0.2334 -0.6073  0.3023
  173DOPC    HS21065   0.452   4.830  11.917  1.7732  1.3499 -2.0247
  173DOPC   O2121066   0.660   4.751  11.906  0.5377 -0.0823 -0.7869
  173DOPC   C2121067   0.700   4.872  11.885  0.6417 -0.7195 -0.0597
  173DOPC   O2221068   0.627   4.974  11.876  0.6187 -0.3764 -0.0318
  173DOPC   C2221069   0.853   4.879  11.859  0.2409 -0.0423 -0.5772
  173DOPC   H2R21070   0.885   4.976  11.814 -0.9842  0.4818 -0.3626
  173DOPC   H2S21071   0.866   4.798  11.785  1.2648  0.2989 -0.7943
  173DOPC    C321072   0.470   4.638  12.010  0.0749  0.1229 -0.2698
  173DOPC    HX21073   0.538   4.552  11.989 -1.2509 -1.5924  2.0480
  173DOPC    HY21074   0.365   4.604  11.995 -0.4271  1.4841  0.0471
  173DOPC   O3121075   0.498   4.697  12.142 -0.3091 -0.2478 -0.3767
  173DOPC   C3121076   0.390   4.747  12.214 -0.1051  0.2612 -0.1737
  173DOPC   O3221077   0.277   4.749  12.169 -0.2903  0.0871  0.2504
  173DOPC   C3221078   0.434   4.780  12.355 -0.1270  0.0455 -0.0023
  173DOPC   H2X21079   0.524   4.844  12.344 -0.6100  0.9679  1.1982
  173DOPC   H2Y21080   0.350   4.835  12.403  0.1770 -0.1456  0.7758
  173DOPC   C2321081   0.934   4.847  11.991 -0.4544  0.2629 -0.5759
  173DOPC   H3R21082   1.041   4.867  11.966 -0.4915  1.3209  0.0182
  173DOPC   H3S21083   0.929   4.745  12.033 -2.1951  0.6652  0.2679
  173DOPC   C2421084   0.896   4.954  12.105 -0.0698  0.3766  0.5123
  173DOPC   H4R21085   0.804   4.928  12.161 -0.7129 -0.2073 -0.7926
  173DOPC   H4S21086   0.864   5.045  12.049  0.2699 -0.4645 -1.1060
  173DOPC   C2521087   1.010   4.989  12.199 -0.0906 -0.1540  0.2110
  173DOPC   H5R21088   0.987   5.081  12.256 -0.2615  1.0422 -1.7077
  173DOPC   H5S21089   1.106   5.009  12.146 -0.0726  1.4580  0.7976
  173DOPC   C2621090   1.060   4.883  12.296 -0.5345  0.3354 -0.4324
  173DOPC   H6R21091   1.119   4.810  12.237  0.0755 -1.0222  1.7505
  173DOPC   H6S21092   0.982   4.828  12.353  2.3622 -2.6250  0.9746
  173DOPC   C2721093   1.149   4.942  12.403 -0.1187 -0.3968  0.4109
  173DOPC   H7R21094   1.112   5.042  12.432  0.4737  0.0196 -0.2272
  173DOPC   H7S21095   1.241   4.975  12.350  0.5474 -0.2110  1.6664
  173DOPC   C2821096   1.160   4.852  12.528  0.2232 -0.4825  0.4959
  173DOPC   H8R21097   1.056   4.835  12.565  0.1284  0.7374  0.8329
  173DOPC   H8S21098   1.222   4.916  12.595 -0.4441  0.3077  0.3712
  173DOPC   C2921099   1.238   4.726  12.505 -0.1887 -0.8589  0.3740
  173DOPC   H9R21100   1.214   4.681  12.408  1.7301  2.9415 -2.0836
  173DOPC  C21021101   1.345   4.682  12.567 -0.7461 -1.0229 -0.5061
  173DOPC  H10R21102   1.383   4.584  12.536 -1.1283 -2.4127  2.9038
  173DOPC  C21121103   1.419   4.743  12.687  0.2907 -0.5706 -1.1034
  173DOPC  H11R21104   1.446   4.851  12.677  1.5019 -0.6898  0.3790
  173DOPC  H11S21105   1.521   4.699  12.698  0.2427 -0.6177 -0.8341
  173DOPC  C21221106   1.335   4.715  12.821 -0.8577 -0.4932 -1.2906
  173DOPC  H12R21107   1.311   4.609  12.843 -0.2051 -0.3055  0.5427
  173DOPC  H12S21108   1.244   4.778  12.823 -0.2005  0.7467  3.2464
  173DOPC  C21321109   1.418   4.767  12.945 -0.3267 -0.4148 -0.0720
  173DOPC  H13R21110   1.461   4.865  12.912  1.9714 -0.7811  1.5784
  173DOPC  H13S21111   1.503   4.701  12.972 -0.8563 -1.1923 -0.2799
  173DOPC  C21421112   1.337   4.754  13.070  0.2078  0.9111  0.1966
  173DOPC  H14R21113   1.323   4.643  13.072 -0.7213  1.0246  0.6651
  173DOPC  H14S21114   1.240   4.808  13.072 -1.5839 -2.0949  1.0685
  173DOPC  C21521115   1.407   4.791  13.197  0.2370 -0.0386  0.3568
  173DOPC  H15R21116   1.406   4.902  13.205  0.6841 -0.0845  1.2245
  173DOPC  H15S21117   1.516   4.769  13.202  0.6331  2.0447  2.6490
  173DOPC  C21621118   1.347   4.723  13.317 -0.2509  0.2158  0.1901
  173DOPC  H16R21119   1.412   4.744  13.405 -0.2009 -3.2997  1.1272
  173DOPC  H16S21120   1.345   4.612  13.308  1.6216 -0.0630  2.3053
  173DOPC  C21721121   1.201   4.756  13.340 -0.1350 -0.2008 -0.0725
  173DOPC  H17R21122   1.159   4.700  13.426 -0.9398  1.5343  0.7200
  173DOPC  H17S21123   1.141   4.719  13.254  0.1791  0.2215 -0.4834
  173DOPC  C21821124   1.174   4.913  13.356  0.1180 -0.2713  0.3221
  173DOPC  H18R21125   1.063   4.922  13.355  0.0365 -1.1396  0.5548
  173DOPC  H18S21126   1.212   4.983  13.279 -2.1501 -0.6398 -1.2373
  173DOPC  H18T21127   1.219   4.949  13.451  0.3455 -0.3215  0.2347
  173DOPC   C3321128   0.457   4.659  12.446 -0.2122  0.5886 -0.0399
  173DOPC   H3X21129   0.539   4.595  12.407 -0.8195  1.4424 -2.9615
  173DOPC   H3Y21130   0.366   4.597  12.447 -0.5675  0.8989 -3.0005
  173DOPC   C3421131   0.505   4.697  12.590  0.7751  0.3189 -0.2908
  173DOPC   H4X21132   0.595   4.763  12.590  0.6751  0.4627  0.4329
  173DOPC   H4Y21133   0.536   4.598  12.630 -0.2995 -0.6282 -1.7057
  173DOPC   C3521134   0.393   4.744  12.689  0.0624 -0.0398 -0.4785
  173DOPC   H5X21135   0.302   4.682  12.676  0.0576 -0.3662  0.9770
  173DOPC   H5Y21136   0.370   4.851  12.671 -0.5341  0.1285  1.1735
  173DOPC   C3621137   0.432   4.720  12.838  0.6569 -0.0583 -0.5803
  173DOPC   H6X21138   0.469   4.618  12.859  2.5499  0.9474  1.2950
  173DOPC   H6Y21139   0.505   4.798  12.868 -0.3346  1.0707 -1.0258
  173DOPC   C3721140   0.306   4.730  12.937  0.7119 -0.2712  0.7091
  173DOPC   H7X21141   0.262   4.827  12.970 -0.0167 -0.4808  0.3943
  173DOPC   H7Y21142   0.225   4.688  12.873  2.1872 -0.3270 -1.2241
  173DOPC   C3821143   0.328   4.645  13.062 -0.1817  0.1386 -0.4936
  173DOPC   H8X21144   0.372   4.548  13.031  2.0118  1.6690 -2.5735
  173DOPC   H8Y21145   0.231   4.622  13.111 -0.1462 -1.5085 -1.1488
  173DOPC   C3921146   0.429   4.700  13.160 -0.4418 -0.3592 -0.0655
  173DOPC   H9X21147   0.532   4.702  13.121 -0.8063 -1.5634 -1.1648
  173DOPC  C31021148   0.396   4.732  13.287 -0.4494 -0.2235  0.0904
  173DOPC  H10X21149   0.471   4.777  13.355 -1.2126  0.8853  0.2213
  173DOPC  C31121150   0.252   4.741  13.340  0.3515 -0.4554  0.4401
  173DOPC  H11X21151   0.253   4.748  13.451 -1.9753  2.8998  0.3619
  173DOPC  H11Y21152   0.191   4.652  13.313 -0.4767  0.6159 -1.3925
  173DOPC  C31221153   0.169   4.859  13.293  0.2204 -0.5978  0.6636
  173DOPC  H12X21154   0.160   4.872  13.183  1.7015 -1.4896  0.4051
  173DOPC  H12Y21155   0.227   4.951  13.315 -2.4518  1.3574  0.0371
  173DOPC  C31321156   0.033   4.873  13.369  1.0238  0.9245 -0.1233
  173DOPC  H13X21157   0.055   4.853  13.476  0.1116  0.4916 -0.0050
  173DOPC  H13Y21158  -0.003   4.977  13.351 -0.6107  0.7289  1.7061
  173DOPC  C31421159  -0.077   4.785  13.314 -0.0109  0.1751 -0.0761
  173DOPC  H14X21160  -0.109   4.814  13.212 -1.4764 -3.6985 -0.8987
  173DOPC  H14Y21161  -0.037   4.682  13.303  1.1538  0.7288 -1.3207
  173DOPC  C31521162  -0.206   4.778  13.405 -0.4519 -0.0230  0.5807
  173DOPC  H15X21163  -0.270   4.700  13.359  0.3333 -2.2044  2.9984
  173DOPC  H15Y21164  -0.254   4.878  13.409  0.1114  0.2072  1.7454
  173DOPC  C31621165  -0.175   4.737  13.549  0.1815  0.4397 -0.2978
  173DOPC  H16X21166  -0.117   4.823  13.590 -1.4683  2.3926 -1.8155
  173DOPC  H16Y21167  -0.268   4.737  13.608  0.0136  0.1772 -0.5581
  173DOPC  C31721168  -0.109   4.602  13.570 -0.6476  0.3253 -0.8388
  173DOPC  H17X21169  -0.160   4.522  13.512  0.3629 -1.2461  0.3598
  173DOPC  H17Y21170  -0.009   4.601  13.522  0.4206 -0.1187  1.3083
  173DOPC  C31821171  -0.071   4.573  13.713 -0.1310 -0.3293 -0.0003
  173DOPC  H18X21172  -0.003   4.646  13.762 -1.6702 -0.0187  1.7736
  173DOPC  H18Y21173  -0.159   4.576  13.780 -0.7099 -1.0487 -0.7050
  173DOPC  H18Z21174  -0.023   4.474  13.729  3.3711  1.2974  0.6138
  174DOPC     N21175   2.908   4.622  11.257 -0.0949 -0.9955 -0.2045
  174DOPC   C1221176   2.968   4.739  11.344 -0.0237  0.3562  0.2612
  174DOPC  H12A21177   2.994   4.704  11.443 -0.8614  0.9964  0.7281
  174DOPC  H12B21178   2.895   4.818  11.357 -1.6358 -0.9373 -0.6081
  174DOPC   C1321179   2.872   4.674  11.118  0.1460  0.7064  1.0334
  174DOPC  H13A21180   2.952   4.723  11.065 -1.8845  0.2402 -2.8217
  174DOPC  H13B21181   2.847   4.591  11.054  1.2156  1.9232 -1.0634
  174DOPC  H13C21182   2.784   4.735  11.122 -0.4741 -0.2095  2.6163
  174DOPC   C1421183   2.785   4.569  11.333  0.1916 -0.6347  0.4071
  174DOPC  H14A21184   2.748   4.481  11.282  2.1707 -1.6438  0.5883
  174DOPC  H14B21185   2.811   4.515  11.423  1.5802 -2.0023 -0.7404
  174DOPC  H14C21186   2.713   4.647  11.349  0.5829 -0.3139  0.5966
  174DOPC   C1521187   2.997   4.509  11.250  0.2714 -0.0261  0.4439
  174DOPC  H15A21188   3.094   4.540  11.214 -0.6704  2.9607  0.2352
  174DOPC  H15B21189   2.956   4.431  11.188  2.4521  0.7280 -2.1287
  174DOPC  H15C21190   3.009   4.460  11.346 -0.6248 -0.6753  0.2383
  174DOPC   C1121191   3.102   4.795  11.289 -0.0069 -0.7407  0.7719
  174DOPC  H11A21192   3.077   4.826  11.185  2.5990  0.8516  0.5146
  174DOPC  H11B21193   3.134   4.888  11.341  1.2925  0.0350 -1.2627
  174DOPC     P21194   3.302   4.679  11.396 -0.3094 -0.3963 -0.3516
  174DOPC   O1321195   3.408   4.779  11.358 -0.2125  0.2416 -0.5458
  174DOPC   O1421196   3.351   4.541  11.410 -0.0900  0.0814 -0.5800
  174DOPC   O1221197   3.200   4.689  11.284  0.7170 -0.6145  0.5935
  174DOPC   O1121198   3.232   4.721  11.533  0.7795  0.0094 -0.1655
  174DOPC    C121199   3.298   4.805  11.630  0.1429  0.2843  0.2001
  174DOPC    HA21200   3.230   4.890  11.649 -1.2188 -0.4968 -0.9986
  174DOPC    HB21201   3.394   4.845  11.591 -0.0022  1.2471  0.8094
  174DOPC    C221202   3.334   4.729  11.761 -0.3424 -0.0759  0.1320
  174DOPC    HS21203   3.417   4.664  11.725 -0.4839 -0.0731 -0.2007
  174DOPC   O2121204   3.222   4.653  11.806 -0.0471 -0.1619  0.2519
  174DOPC   C2121205   3.245   4.535  11.850 -0.0563  0.0300  0.3273
  174DOPC   O2221206   3.355   4.483  11.842 -0.2060  0.2114 -0.0998
  174DOPC   C2221207   3.116   4.486  11.920 -0.7419  0.0951  0.2566
  174DOPC   H2R21208   3.040   4.456  11.845 -2.0477  1.1032  1.1344
  174DOPC   H2S21209   3.076   4.576  11.971 -0.1129 -0.7605  2.3826
  174DOPC    C321210   3.382   4.828  11.866 -0.4703  0.1826  0.0669
  174DOPC    HX21211   3.312   4.912  11.883  2.7528  3.0872  0.1652
  174DOPC    HY21212   3.464   4.878  11.810  1.1448 -2.1420  0.1827
  174DOPC   O3121213   3.412   4.760  11.992  0.2878 -0.5903 -0.3295
  174DOPC   C3121214   3.536   4.747  12.018  0.0746 -0.2907  0.3782
  174DOPC   O3221215   3.629   4.785  11.945 -0.7396 -0.8869 -0.1858
  174DOPC   C3221216   3.550   4.675  12.157  0.3372 -0.8243  0.6162
  174DOPC   H2X21217   3.483   4.722  12.233  0.2054  0.8904 -0.5046
  174DOPC   H2Y21218   3.538   4.565  12.150 -1.5801 -0.5841 -1.3141
  174DOPC   C2321219   3.147   4.369  12.014 -0.1649 -0.0866 -0.6424
  174DOPC   H3R21220   3.212   4.286  11.978  0.4643  0.4846 -0.8435
  174DOPC   H3S21221   3.057   4.311  12.042 -0.1879  1.4500  2.9544
  174DOPC   C2421222   3.207   4.416  12.145  0.0399  0.1415  0.0460
  174DOPC   H4R21223   3.155   4.513  12.161  2.1121  1.7636 -2.4026
  174DOPC   H4S21224   3.318   4.424  12.144  0.1049 -0.7524 -0.6016
  174DOPC   C2521225   3.154   4.326  12.256  0.2568  0.0127 -0.0260
  174DOPC   H5R21226   3.177   4.219  12.242 -2.4059 -0.3328 -3.1955
  174DOPC   H5S21227   3.044   4.328  12.236 -0.2412 -2.8982  1.7803
  174DOPC   C2621228   3.171   4.385  12.394 -0.0735  0.0731  0.6816
  174DOPC   H6R21229   3.112   4.479  12.409 -0.7551 -0.3072  0.4298
  174DOPC   H6S21230   3.278   4.413  12.400  0.2819 -0.9162 -0.5559
  174DOPC   C2721231   3.144   4.275  12.499  0.4302 -0.6122  0.7831
  174DOPC   H7R21232   3.178   4.182  12.449  1.2705  1.9050 -3.9057
  174DOPC   H7S21233   3.035   4.258  12.515  0.4150  0.1824  1.5783
  174DOPC   C2821234   3.205   4.309  12.630 -0.1715  0.3938 -1.4658
  174DOPC   H8R21235   3.157   4.404  12.661 -1.4672  0.0174 -2.2393
  174DOPC   H8S21236   3.315   4.319  12.623  0.1788 -1.5927  0.3364
  174DOPC   C2921237   3.181   4.201  12.735 -0.0954  0.2802 -0.2104
  174DOPC   H9R21238   3.177   4.095  12.706  0.0576 -0.2383  1.5537
  174DOPC  C21021239   3.152   4.229  12.864 -0.8286  0.1158  0.3031
  174DOPC  H10R21240   3.125   4.146  12.932 -1.4516  0.5495  0.5943
  174DOPC  C21121241   3.145   4.364  12.926 -0.0706 -0.5844  0.3128
  174DOPC  H11R21242   3.127   4.448  12.856 -0.4988 -0.4396  0.5905
  174DOPC  H11S21243   3.239   4.385  12.981  0.5620 -1.3298 -0.4560
  174DOPC  C21221244   3.039   4.379  13.038  0.4732 -0.2617 -0.5131
  174DOPC  H12R21245   2.940   4.336  13.011  0.4578 -0.3753 -0.2799
  174DOPC  H12S21246   3.024   4.489  13.049  1.1909 -0.1598 -0.4912
  174DOPC  C21321247   3.068   4.321  13.175 -0.5770 -0.2129 -0.0710
  174DOPC  H13R21248   3.131   4.397  13.226 -1.0923 -0.6598  1.2794
  174DOPC  H13S21249   3.127   4.227  13.167 -1.2000 -0.5993 -0.1895
  174DOPC  C21421250   2.940   4.294  13.259  0.0559  0.2243 -0.4002
  174DOPC  H14R21251   2.907   4.205  13.202  0.2924  1.9225 -3.3850
  174DOPC  H14S21252   2.869   4.378  13.241 -0.2817  0.5855  2.1914
  174DOPC  C21521253   2.953   4.277  13.412 -0.3399 -0.1530  0.0452
  174DOPC  H15R21254   3.026   4.195  13.424  0.3182  0.3856 -0.2026
  174DOPC  H15S21255   2.857   4.246  13.459  1.0258 -0.3463  2.8913
  174DOPC  C21621256   2.995   4.399  13.491 -0.7926  0.3498 -0.3252
  174DOPC  H16R21257   2.921   4.477  13.463 -1.4440 -0.4027 -0.7372
  174DOPC  H16S21258   3.094   4.431  13.452 -0.5651  0.1948  0.1146
  174DOPC  C21721259   2.997   4.372  13.638  0.0493  0.0244  0.5641
  174DOPC  H17R21260   3.073   4.293  13.655  0.7444  0.8122  1.1541
  174DOPC  H17S21261   2.895   4.344  13.675 -0.8227 -0.8878 -2.2410
  174DOPC  C21821262   3.039   4.491  13.721  0.4915  0.7404  0.9078
  174DOPC  H18R21263   3.034   4.479  13.831  1.4699 -0.8812  0.8064
  174DOPC  H18S21264   2.991   4.584  13.682 -1.5314  0.5963  2.8122
  174DOPC  H18T21265   3.148   4.497  13.705  0.5544  0.3820  1.1848
  174DOPC   C3321266   3.688   4.700  12.225 -0.6008  0.2103  0.0267
  174DOPC   H3X21267   3.724   4.803  12.203  0.9260 -0.8819 -3.2141
  174DOPC   H3Y21268   3.766   4.632  12.186  1.5286  1.3356  2.1069
  174DOPC   C3421269   3.678   4.682  12.372  0.3444 -0.1182  0.2519
  174DOPC   H4X21270   3.601   4.753  12.409 -1.1934 -1.4959 -0.1828
  174DOPC   H4Y21271   3.767   4.724  12.423  1.5215 -2.0563 -0.1215
  174DOPC   C3521272   3.652   4.542  12.424 -0.7214 -0.5183 -1.1195
  174DOPC   H5X21273   3.730   4.476  12.381  0.7907 -0.1719  0.9779
  174DOPC   H5Y21274   3.557   4.497  12.388 -0.3044 -2.1739 -0.2344
  174DOPC   C3621275   3.662   4.548  12.577  0.0078 -0.0664 -0.7427
  174DOPC   H6X21276   3.754   4.603  12.606 -1.9554  2.2211  1.6338
  174DOPC   H6Y21277   3.583   4.623  12.599  1.5436  1.0071  1.5067
  174DOPC   C3721278   3.620   4.431  12.664  0.2091  0.1170 -0.0909
  174DOPC   H7X21279   3.534   4.384  12.613  0.9047 -0.0991 -1.1006
  174DOPC   H7Y21280   3.699   4.353  12.672  1.4217  1.2839 -0.3112
  174DOPC   C3821281   3.569   4.475  12.805  0.2128 -1.2029  0.3909
  174DOPC   H8X21282   3.526   4.396  12.870 -0.9702 -0.3539  0.6818
  174DOPC   H8Y21283   3.479   4.534  12.775  1.1500  1.1751  2.0089
  174DOPC   C3921284   3.667   4.551  12.893  0.0659  0.3851  0.5876
  174DOPC   H9X21285   3.703   4.645  12.852  0.5368 -0.2950 -0.6006
  174DOPC  C31021286   3.708   4.516  13.021 -0.0008 -0.0182 -0.0123
  174DOPC  H10X21287   3.796   4.569  13.061  0.5911 -1.0501  0.0795
  174DOPC  C31121288   3.659   4.407  13.110 -0.3031  0.1703 -0.7650
  174DOPC  H11X21289   3.747   4.358  13.157 -1.3318 -1.1581 -0.1671
  174DOPC  H11Y21290   3.612   4.326  13.049  0.9411 -2.2121  1.2332
  174DOPC  C31221291   3.558   4.431  13.225 -0.1799  0.1797  0.0379
  174DOPC  H12X21292   3.478   4.505  13.201  0.1233  0.0664 -1.4109
  174DOPC  H12Y21293   3.620   4.490  13.295 -2.2130  1.0796  1.1853
  174DOPC  C31321294   3.503   4.300  13.294 -0.1854  0.5521  0.2982
  174DOPC  H13X21295   3.420   4.336  13.358 -1.9010 -0.5883 -1.1866
  174DOPC  H13Y21296   3.445   4.234  13.226 -2.6381  3.9345 -1.2003
  174DOPC  C31421297   3.617   4.237  13.378 -0.1889  0.4052  0.1337
  174DOPC  H14X21298   3.702   4.204  13.314 -0.7751 -0.7963 -0.0391
  174DOPC  H14Y21299   3.665   4.316  13.441 -1.0265  0.5653  0.5772
  174DOPC  C31521300   3.558   4.124  13.466  0.3701 -0.7818  0.7136
  174DOPC  H15X21301   3.508   4.042  13.410 -0.8167 -0.2691  0.9878
  174DOPC  H15Y21302   3.484   4.155  13.543 -0.6606 -1.9549  0.2344
  174DOPC  C31621303   3.673   4.062  13.547 -0.3957  0.7187 -0.7158
  174DOPC  H16X21304   3.702   3.968  13.494 -0.1213  0.7708 -0.6596
  174DOPC  H16Y21305   3.767   4.119  13.534  0.0322  0.2719  0.3669
  174DOPC  C31721306   3.654   4.046  13.698 -0.3942  0.1691 -0.3469
  174DOPC  H17X21307   3.624   4.142  13.745 -0.3099  1.0288 -1.9783
  174DOPC  H17Y21308   3.578   3.966  13.705 -0.6432  0.0881 -2.8597
  174DOPC  C31821309   3.780   3.994  13.766  0.6485 -0.2000 -0.4142
  174DOPC  H18X21310   3.750   3.940  13.859 -0.0766  0.7459 -0.0765
  174DOPC  H18Y21311   3.835   3.927  13.696 -1.1238 -1.5088 -0.6497
  174DOPC  H18Z21312   3.836   4.079  13.810 -2.3657  0.8778  1.7048
  175DOPC     N21313   0.165   1.078  11.544  0.2996  0.0176  0.6090
  175DOPC   C1221314   0.245   1.143  11.654 -0.2892 -0.7661  0.0962
  175DOPC  H12A21315   0.348   1.109  11.646 -0.5537 -1.3732 -0.8366
  175DOPC  H12B21316   0.198   1.108  11.745  0.5065  1.3201  1.3828
  175DOPC   C1321317   0.178   0.932  11.536 -0.5063  0.2468 -0.1460
  175DOPC  H13A21318   0.115   0.884  11.463  0.7225  0.3770 -1.3274
  175DOPC  H13B21319   0.282   0.910  11.516 -0.6695  0.0705 -0.8437
  175DOPC  H13C21320   0.151   0.896  11.634  0.7313  1.2748  0.6082
  175DOPC   C1421321   0.199   1.145  11.415 -0.9920  0.6730  0.6330
  175DOPC  H14A21322   0.112   1.148  11.351 -0.8145 -0.2507  0.3497
  175DOPC  H14B21323   0.224   1.250  11.429 -0.5531  0.7486 -0.6045
  175DOPC  H14C21324   0.283   1.100  11.366 -0.9564  1.9509 -0.5585
  175DOPC   C1521325   0.017   1.098  11.577 -0.3119  0.2480  1.0999
  175DOPC  H15A21326  -0.006   1.046  11.669 -3.7807 -1.4819 -0.5599
  175DOPC  H15B21327  -0.052   1.049  11.509  0.3769 -1.0469  1.3231
  175DOPC  H15C21328  -0.002   1.205  11.570 -0.3149  0.1462 -1.0886
  175DOPC   C1121329   0.244   1.298  11.654 -0.5109 -0.6597 -0.6120
  175DOPC  H11A21330   0.143   1.341  11.641 -0.3005 -0.4804 -1.7831
  175DOPC  H11B21331   0.272   1.336  11.754  0.7370 -0.3730 -1.0506
  175DOPC     P21332   0.483   1.340  11.554  0.1264 -0.1088  0.0339
  175DOPC   O1321333   0.542   1.477  11.560  0.5639 -0.1488 -0.0048
  175DOPC   O1421334   0.528   1.261  11.440 -0.5251 -0.3548  0.2110
  175DOPC   O1221335   0.328   1.348  11.549 -0.0200 -0.3637  0.1373
  175DOPC   O1121336   0.517   1.260  11.684 -0.4850  0.2330  0.7339
  175DOPC    C121337   0.646   1.214  11.713 -0.3178  0.2961  0.6786
  175DOPC    HA21338   0.723   1.250  11.641 -3.8168  3.2157 -1.9619
  175DOPC    HB21339   0.646   1.103  11.707  2.5540  0.2385  0.2410
  175DOPC    C221340   0.696   1.267  11.856  0.0312 -0.1618 -0.3524
  175DOPC    HS21341   0.764   1.190  11.898 -1.4373 -0.4261  1.6711
  175DOPC   O2121342   0.588   1.285  11.950 -0.0508  0.2904  0.2949
  175DOPC   C2121343   0.518   1.180  11.986 -0.1087  0.2083  0.4862
  175DOPC   O2221344   0.542   1.070  11.949  0.4138 -0.0206  0.4323
  175DOPC   C2221345   0.401   1.225  12.067  0.3479  0.3729 -1.0304
  175DOPC   H2R21346   0.333   1.144  12.100  1.5654 -0.1368  0.3288
  175DOPC   H2S21347   0.347   1.286  11.992 -0.5062  0.9692  0.0375
  175DOPC    C321348   0.766   1.398  11.851 -0.8269  0.0894 -0.8131
  175DOPC    HX21349   0.708   1.485  11.815 -0.9192  0.6750  0.6706
  175DOPC    HY21350   0.851   1.378  11.783 -0.3286 -2.1018  0.3637
  175DOPC   O3121351   0.805   1.448  11.980 -0.9086 -0.2823 -0.0585
  175DOPC   C3121352   0.902   1.390  12.051  0.1656  0.1882 -0.6394
  175DOPC   O3221353   0.977   1.301  12.016 -0.0564  0.3218 -0.0803
  175DOPC   C3221354   0.911   1.442  12.190 -0.1077 -0.0232  0.3721
  175DOPC   H2X21355   0.992   1.518  12.197 -1.1606  0.9898  1.9242
  175DOPC   H2Y21356   0.814   1.490  12.214 -0.8017  0.1839 -2.4771
  175DOPC   C2321357   0.437   1.320  12.185  0.2755  0.4908  0.8583
  175DOPC   H3R21358   0.338   1.347  12.228 -0.3492 -0.4532  0.0475
  175DOPC   H3S21359   0.494   1.408  12.148 -0.3068  0.0537 -1.1945
  175DOPC   C2421360   0.505   1.248  12.306 -0.1068 -0.9671 -0.9245
  175DOPC   H4R21361   0.608   1.215  12.277  0.0924 -0.8169 -0.3892
  175DOPC   H4S21362   0.445   1.159  12.332 -0.3830 -0.9838 -1.5834
  175DOPC   C2521363   0.515   1.342  12.428  0.3690 -0.2746 -0.4172
  175DOPC   H5R21364   0.412   1.374  12.457 -1.0254 -1.7901 -3.2762
  175DOPC   H5S21365   0.564   1.441  12.414 -0.6741  0.4286  0.6568
  175DOPC   C2621366   0.593   1.281  12.544 -0.2788  0.4169 -0.4175
  175DOPC   H6R21367   0.623   1.365  12.609 -1.5675 -0.0193  0.7843
  175DOPC   H6S21368   0.684   1.227  12.509  0.8170  2.7174 -1.3586
  175DOPC   C2721369   0.512   1.189  12.633 -0.2700 -0.3818  0.5947
  175DOPC   H7R21370   0.515   1.089  12.586  0.2425  0.9088 -2.3248
  175DOPC   H7S21371   0.412   1.239  12.637  1.5634  3.7037  0.4840
  175DOPC   C2821372   0.538   1.182  12.788 -0.8780 -0.5756  0.6321
  175DOPC   H8R21373   0.453   1.118  12.822 -0.1823 -2.4598 -1.0003
  175DOPC   H8S21374   0.514   1.281  12.833  1.4816  0.7922 -0.9613
  175DOPC   C2921375   0.676   1.133  12.830 -0.8450 -1.1972 -1.2312
  175DOPC   H9R21376   0.759   1.148  12.759 -0.2856  0.0333 -0.3583
  175DOPC  C21021377   0.706   1.068  12.946 -0.0860  0.6034  0.4409
  175DOPC  H10R21378   0.810   1.043  12.974  0.0289  0.7741  0.1663
  175DOPC  C21121379   0.602   1.042  13.056 -0.0461 -0.6993  0.9253
  175DOPC  H11R21380   0.591   0.931  13.050  1.7467 -0.8267 -1.4697
  175DOPC  H11S21381   0.504   1.093  13.046 -0.6056 -1.8723  0.1245
  175DOPC  C21221382   0.669   1.077  13.192  1.1838  0.8769  0.2556
  175DOPC  H12R21383   0.701   1.182  13.202  1.3601  0.6593  2.3782
  175DOPC  H12S21384   0.761   1.015  13.197  0.3523 -0.3272  4.1563
  175DOPC  C21321385   0.598   1.035  13.328 -0.2523 -0.1626 -0.0615
  175DOPC  H13R21386   0.683   1.008  13.394 -1.2939 -3.9371 -0.0202
  175DOPC  H13S21387   0.536   0.945  13.310  2.7489 -2.2689 -0.6314
  175DOPC  C21421388   0.523   1.144  13.389  0.3277  0.1233 -0.2762
  175DOPC  H14R21389   0.443   1.171  13.316  0.2685  1.3316  0.1966
  175DOPC  H14S21390   0.588   1.232  13.409  1.9553 -0.7752 -1.3906
  175DOPC  C21521391   0.467   1.081  13.514 -0.0782 -0.5429  0.2430
  175DOPC  H15R21392   0.550   1.055  13.583  1.1207 -1.6896 -1.5325
  175DOPC  H15S21393   0.405   0.991  13.493 -0.4151 -0.1645 -0.4124
  175DOPC  C21621394   0.378   1.183  13.595 -0.1057 -0.9220 -0.0436
  175DOPC  H16R21395   0.278   1.202  13.550 -0.3222  1.5315  1.3034
  175DOPC  H16S21396   0.429   1.281  13.608 -0.6078 -0.7989  1.1251
  175DOPC  C21721397   0.356   1.139  13.741 -0.5703 -0.2815  0.0286
  175DOPC  H17R21398   0.339   1.226  13.809  0.4537  0.4626 -0.6448
  175DOPC  H17S21399   0.444   1.093  13.791 -1.4804 -0.4433  1.5545
  175DOPC  C21821400   0.235   1.040  13.766 -0.0141  1.0040  0.6490
  175DOPC  H18R21401   0.162   1.053  13.683  1.3011  1.7095 -0.4385
  175DOPC  H18S21402   0.195   1.055  13.869 -0.1154 -0.7663  0.9069
  175DOPC  H18T21403   0.273   0.936  13.753  0.2346  1.2782 -1.0850
  175DOPC   C3321404   0.940   1.328  12.292 -0.0605 -0.4738 -0.2543
  175DOPC   H3X21405   1.017   1.258  12.254 -0.8861 -1.2969 -0.4395
  175DOPC   H3Y21406   0.839   1.283  12.300 -1.1188  1.8525  0.3847
  175DOPC   C3421407   0.976   1.380  12.433  0.1447  0.3419  0.3919
  175DOPC   H4X21408   0.906   1.456  12.473  0.8367  1.9366 -1.2453
  175DOPC   H4Y21409   1.081   1.416  12.434  1.3177 -2.7773 -0.3064
  175DOPC   C3521410   0.983   1.260  12.533 -0.6118 -0.0447  0.6927
  175DOPC   H5X21411   1.046   1.176  12.496 -1.2639 -0.2633  0.0450
  175DOPC   H5Y21412   0.884   1.216  12.561 -1.1706  0.9077  0.2631
  175DOPC   C3621413   1.055   1.294  12.667  0.6600  0.1431  1.0261
  175DOPC   H6X21414   1.141   1.363  12.650  1.7241 -1.7551 -2.3166
  175DOPC   H6Y21415   0.986   1.334  12.744 -2.2392 -0.2596 -1.1577
  175DOPC   C3721416   1.118   1.171  12.731 -0.3559  0.2912  0.7707
  175DOPC   H7X21417   1.031   1.103  12.725 -0.1384  0.1384 -1.5796
  175DOPC   H7Y21418   1.202   1.118  12.682 -0.2224 -2.9984  4.0920
  175DOPC   C3821419   1.165   1.200  12.883 -0.0764  0.0430  0.6860
  175DOPC   H8X21420   1.075   1.228  12.943 -0.1496 -1.9906  1.5998
  175DOPC   H8Y21421   1.238   1.283  12.890  0.7239 -0.6245  0.4570
  175DOPC   C3921422   1.223   1.074  12.943  0.1809  1.0413  0.7730
  175DOPC   H9X21423   1.314   1.058  12.883  0.7188  0.3034  1.7591
  175DOPC  C31021424   1.174   1.001  13.044 -0.0226 -0.4800  0.4786
  175DOPC  H10X21425   1.229   0.914  13.082  1.2560  0.4364  0.8171
  175DOPC  C31121426   1.055   1.024  13.134 -0.3015  0.1226 -0.0033
  175DOPC  H11X21427   0.979   0.948  13.105  0.3546 -0.2187 -0.8781
  175DOPC  H11Y21428   1.016   1.126  13.115 -2.3298 -0.6808 -0.3368
  175DOPC  C31221429   1.093   1.019  13.281 -0.3126 -0.2717 -0.0023
  175DOPC  H12X21430   1.122   0.914  13.300 -0.2082 -0.6147 -1.9220
  175DOPC  H12Y21431   0.999   1.033  13.339  0.2194  0.4572  0.7311
  175DOPC  C31321432   1.188   1.128  13.329 -0.0471 -0.6287  0.1168
  175DOPC  H13X21433   1.290   1.131  13.286 -0.7587 -0.7861 -1.6790
  175DOPC  H13Y21434   1.131   1.220  13.305 -1.3364 -1.0578  1.3289
  175DOPC  C31421435   1.210   1.134  13.478  0.3469  0.2952 -0.1114
  175DOPC  H14X21436   1.231   1.242  13.495 -0.9677  0.6100 -0.3719
  175DOPC  H14Y21437   1.118   1.102  13.531  0.8861 -0.4412  0.3971
  175DOPC  C31521438   1.321   1.041  13.528 -0.4772 -0.3667 -0.3872
  175DOPC  H15X21439   1.422   1.069  13.492  0.3585 -1.3835  1.0451
  175DOPC  H15Y21440   1.309   0.936  13.492 -1.3582 -0.4807  0.1949
  175DOPC  C31621441   1.324   1.027  13.683 -0.6426 -0.0947 -0.1678
  175DOPC  H16X21442   1.430   1.029  13.718 -1.1742 -0.2430  1.5490
  175DOPC  H16Y21443   1.284   1.128  13.706 -1.0916 -0.0153 -1.2361
  175DOPC  C31721444   1.239   0.917  13.745  0.4782 -0.2596 -0.1999
  175DOPC  H17X21445   1.173   0.949  13.828  2.2755  0.3569  1.0375
  175DOPC  H17Y21446   1.169   0.873  13.670  0.2233  1.6227 -1.1442
  175DOPC  C31821447   1.322   0.802  13.787 -0.3185  0.7545  0.8478
  175DOPC  H18X21448   1.263   0.710  13.805 -0.1100  0.8244  1.9757
  175DOPC  H18Y21449   1.393   0.770  13.708 -1.3955 -1.9209  0.8559
  175DOPC  H18Z21450   1.378   0.812  13.882  0.7204  2.3559  0.1066
  176DOPC     N21451   1.960   2.512  10.933 -0.2466  0.3544 -0.3283
  176DOPC   C1221452   1.845   2.559  11.018 -0.0287 -0.1191 -0.2068
  176DOPC  H12A21453   1.831   2.492  11.101  2.0078 -0.5948 -0.2050
  176DOPC  H12B21454   1.750   2.549  10.967 -0.4732 -1.0906  0.7840
  176DOPC   C1321455   2.090   2.501  11.010  0.7716 -0.6698  0.4972
  176DOPC  H13A21456   2.095   2.415  11.075  1.2539  1.0391  2.8295
  176DOPC  H13B21457   2.179   2.491  10.950  0.2836 -1.5545 -0.0983
  176DOPC  H13C21458   2.102   2.591  11.068  2.8403 -0.1883 -0.6156
  176DOPC   C1421459   1.963   2.601  10.812 -0.1747  0.7858  0.3036
  176DOPC  H14A21460   2.020   2.560  10.730 -0.6377  1.0929 -0.1847
  176DOPC  H14B21461   1.866   2.610  10.764 -0.6350 -2.6375  0.3253
  176DOPC  H14C21462   2.016   2.693  10.831  1.8953 -0.2344 -0.2424
  176DOPC   C1521463   1.930   2.368  10.897 -0.5143 -0.9777 -0.0927
  176DOPC  H15A21464   2.001   2.339  10.821  2.3144  0.1185  1.9506
  176DOPC  H15B21465   1.828   2.359  10.861 -0.2272 -0.4847 -1.0602
  176DOPC  H15C21466   1.946   2.298  10.978  0.0535 -2.5410 -1.4974
  176DOPC   C1121467   1.842   2.701  11.077 -0.2021  0.2078  0.1295
  176DOPC  H11A21468   1.834   2.772  10.992  0.4002  0.6572  0.4385
  176DOPC  H11B21469   1.749   2.716  11.136 -0.0867  1.8521 -0.0677
  176DOPC     P21470   2.031   2.855  11.182  0.4131  0.2277 -0.2536
  176DOPC   O1321471   1.967   2.946  11.278  0.1309 -0.1165 -0.2303
  176DOPC   O1421472   2.056   2.912  11.049 -0.1080 -0.0740 -0.4714
  176DOPC   O1221473   1.954   2.722  11.165  0.2307  0.5120  0.1634
  176DOPC   O1121474   2.173   2.812  11.247  0.4990 -0.6930  0.0525
  176DOPC    C121475   2.182   2.699  11.328 -0.1513  0.0567 -0.3470
  176DOPC    HA21476   2.289   2.695  11.359  0.6733  2.7018 -2.4431
  176DOPC    HB21477   2.161   2.606  11.271 -1.6047  0.7916 -1.0572
  176DOPC    C221478   2.095   2.702  11.459 -0.2951  0.4018 -0.6119
  176DOPC    HS21479   1.985   2.708  11.446 -0.2998  2.1169 -0.0864
  176DOPC   O2121480   2.150   2.814  11.524 -0.2558 -0.4492 -0.0136
  176DOPC   C2121481   2.061   2.886  11.584  0.1550  0.3092 -0.6697
  176DOPC   O2221482   1.943   2.855  11.598  0.1147 -0.7101 -0.9780
  176DOPC   C2221483   2.121   3.006  11.655 -0.0719 -0.0794 -1.0250
  176DOPC   H2R21484   2.036   3.073  11.682  0.2300  0.3381 -1.0974
  176DOPC   H2S21485   2.173   3.063  11.575 -1.0288  2.1494 -0.1574
  176DOPC    C321486   2.102   2.571  11.549 -0.3300 -0.7256 -0.4426
  176DOPC    HX21487   2.205   2.530  11.559  0.3912  0.9247 -0.8192
  176DOPC    HY21488   2.048   2.498  11.486 -0.9688 -1.0576  0.4554
  176DOPC   O3121489   2.043   2.599  11.679 -0.1843  0.3313 -0.4694
  176DOPC   C3121490   1.929   2.542  11.698 -0.3334  0.3094  0.3999
  176DOPC   O3221491   1.861   2.476  11.623 -0.0518 -0.1119  0.1493
  176DOPC   C3221492   1.877   2.590  11.835  0.1618 -0.1962  0.1549
  176DOPC   H2X21493   1.960   2.574  11.907  0.3146 -2.0367 -0.3926
  176DOPC   H2Y21494   1.851   2.698  11.826  0.4723  0.0233  1.6085
  176DOPC   C2321495   2.212   2.967  11.769 -0.6090  0.9721 -0.1133
  176DOPC   H3R21496   2.255   3.060  11.811  1.2031  0.5741 -0.9671
  176DOPC   H3S21497   2.297   2.911  11.724 -1.6671  0.2517 -1.2678
  176DOPC   C2421498   2.147   2.878  11.876 -0.5198 -0.4291 -0.5425
  176DOPC   H4R21499   2.229   2.860  11.948 -1.7453 -1.5213  0.6355
  176DOPC   H4S21500   2.125   2.777  11.835  0.5811 -2.2175  2.8616
  176DOPC   C2521501   2.024   2.951  11.935  0.0770 -0.5344 -0.4313
  176DOPC   H5R21502   1.958   2.966  11.847  1.3509  0.3158 -1.2882
  176DOPC   H5S21503   2.043   3.053  11.972  1.4555 -1.1414  0.6418
  176DOPC   C2621504   1.970   2.875  12.056 -0.8658  0.2652  0.4102
  176DOPC   H6R21505   1.971   2.768  12.029 -2.6415  0.5189 -0.8822
  176DOPC   H6S21506   1.861   2.897  12.066 -1.3241 -1.1332 -1.0425
  176DOPC   C2721507   2.023   2.910  12.198 -0.2261  0.2492  0.0823
  176DOPC   H7R21508   2.024   3.020  12.217  2.9162  0.4861 -0.9132
  176DOPC   H7S21509   2.128   2.877  12.211 -0.5761 -2.1836 -2.4145
  176DOPC   C2821510   1.934   2.837  12.300 -1.2588  0.2824 -0.5398
  176DOPC   H8R21511   1.968   2.732  12.316 -0.2424  0.5585 -0.7947
  176DOPC   H8S21512   1.832   2.844  12.256 -1.5477  0.1302  0.1020
  176DOPC   C2921513   1.930   2.911  12.427  0.0118 -0.0849  0.1865
  176DOPC   H9R21514   1.838   2.972  12.431 -0.4792 -0.6879 -1.2414
  176DOPC  C21021515   2.011   2.909  12.530  0.2442 -1.2057 -0.3482
  176DOPC  H10R21516   1.991   2.966  12.622  1.1976 -0.1398 -0.7866
  176DOPC  C21121517   2.133   2.828  12.548 -0.1928 -0.0942 -0.2655
  176DOPC  H11R21518   2.229   2.883  12.559 -0.2754  0.3007 -1.4082
  176DOPC  H11S21519   2.145   2.760  12.461 -1.3025  1.5547 -1.7672
  176DOPC  C21221520   2.129   2.734  12.663  0.3514 -0.0340 -0.9337
  176DOPC  H12R21521   2.213   2.663  12.647 -1.6336 -2.5824 -0.6990
  176DOPC  H12S21522   2.038   2.671  12.656  0.3183 -0.0779 -0.1445
  176DOPC  C21321523   2.146   2.801  12.800 -0.3511  0.0501 -0.3973
  176DOPC  H13R21524   2.049   2.853  12.810  0.5965  2.0441 -0.9519
  176DOPC  H13S21525   2.232   2.871  12.812 -0.9966  0.4991  2.3311
  176DOPC  C21421526   2.168   2.699  12.909  0.8217  1.3057  0.3567
  176DOPC  H14R21527   2.268   2.652  12.897 -0.4185 -1.3304 -0.5609
  176DOPC  H14S21528   2.092   2.617  12.903 -0.0560  2.1265  0.0151
  176DOPC  C21521529   2.141   2.748  13.051 -0.3290 -0.3008  0.2596
  176DOPC  H15R21530   2.035   2.775  13.070 -0.0614  1.0633 -0.0403
  176DOPC  H15S21531   2.197   2.844  13.049  0.8168 -0.9460  0.4003
  176DOPC  C21621532   2.215   2.674  13.171 -0.3915  0.2805  0.4352
  176DOPC  H16R21533   2.325   2.688  13.171 -0.6010  2.5571  1.9216
  176DOPC  H16S21534   2.204   2.567  13.142  0.5922  0.1420  0.5505
  176DOPC  C21721535   2.149   2.694  13.303 -0.2102  0.0573 -0.0460
  176DOPC  H17R21536   2.040   2.675  13.289 -0.2290 -1.7092  1.9621
  176DOPC  H17S21537   2.159   2.801  13.331 -0.9331  0.6843 -1.9802
  176DOPC  C21821538   2.212   2.608  13.413  0.0972  0.3367  0.2160
  176DOPC  H18R21539   2.146   2.610  13.503 -0.5303  1.1074 -0.2444
  176DOPC  H18S21540   2.310   2.654  13.436  0.5618  1.0869 -2.8472
  176DOPC  H18T21541   2.215   2.500  13.385 -0.4282  0.1896  0.7038
  176DOPC   C3321542   1.750   2.526  11.898  0.2065 -0.2127  0.2437
  176DOPC   H3X21543   1.740   2.417  11.879  1.5024 -0.4938  0.9668
  176DOPC   H3Y21544   1.664   2.578  11.853  0.6988 -1.4294 -2.2792
  176DOPC   C3421545   1.736   2.542  12.056  0.1757  0.9155 -0.9181
  176DOPC   H4X21546   1.636   2.494  12.071  0.4010  0.9968  1.1886
  176DOPC   H4Y21547   1.750   2.647  12.090  2.6113 -0.0109  1.2743
  176DOPC   C3521548   1.841   2.461  12.134  0.2181 -0.2153  0.3868
  176DOPC   H5X21549   1.939   2.513  12.128  0.7811 -1.3525 -0.7196
  176DOPC   H5Y21550   1.854   2.361  12.087  0.6000  0.2003 -0.4278
  176DOPC   C3621551   1.804   2.462  12.285  0.7513 -0.1345 -0.1982
  176DOPC   H6X21552   1.797   2.570  12.311  1.0696  0.5876 -2.7689
  176DOPC   H6Y21553   1.703   2.419  12.302  1.4430 -1.0797  1.8498
  176DOPC   C3721554   1.892   2.388  12.382 -0.0179 -0.5425  0.8402
  176DOPC   H7X21555   1.873   2.278  12.382 -1.2843 -0.3500 -0.0550
  176DOPC   H7Y21556   1.994   2.409  12.344 -0.0544 -0.6400  0.6862
  176DOPC   C3821557   1.891   2.437  12.528 -0.6319  0.8065 -0.0797
  176DOPC   H8X21558   1.793   2.415  12.576  0.5001  0.3411  2.1456
  176DOPC   H8Y21559   1.914   2.545  12.535 -0.2998  0.6412  2.0091
  176DOPC   C3921560   1.980   2.341  12.605 -0.0111  0.6578  0.2333
  176DOPC   H9X21561   2.064   2.309  12.542 -2.4623 -1.5642 -2.1338
  176DOPC  C31021562   1.968   2.285  12.720  0.7443  0.6836  0.7182
  176DOPC  H10X21563   2.048   2.220  12.759  0.2743 -0.1697  0.2887
  176DOPC  C31121564   1.855   2.305  12.815 -0.0761 -0.0718  0.4475
  176DOPC  H11X21565   1.808   2.206  12.833  1.1252 -0.6290  0.6547
  176DOPC  H11Y21566   1.778   2.375  12.776  2.6062  4.0741  1.9155
  176DOPC  C31221567   1.893   2.374  12.952 -0.2036 -0.2320 -0.1990
  176DOPC  H12X21568   1.806   2.390  13.019  1.1099  1.2343  1.2454
  176DOPC  H12Y21569   1.938   2.475  12.938 -2.3535  1.0065  1.2112
  176DOPC  C31321570   1.988   2.277  13.042  0.5796  0.2755  0.5538
  176DOPC  H13X21571   1.953   2.172  13.043  1.6852 -0.1277  2.9840
  176DOPC  H13Y21572   2.085   2.277  12.989  0.1435 -0.0292 -0.2712
  176DOPC  C31421573   2.012   2.322  13.184  0.8612  0.4208  0.3025
  176DOPC  H14X21574   2.095   2.262  13.228  0.5046 -1.1039 -1.0412
  176DOPC  H14Y21575   2.041   2.430  13.178 -0.0319  0.6565  0.1873
  176DOPC  C31521576   1.889   2.305  13.274  1.8620 -0.1572  0.7774
  176DOPC  H15X21577   1.806   2.233  13.260  0.7984  0.5849  2.7404
  176DOPC  H15Y21578   1.832   2.399  13.253  2.2328  0.1025  0.9182
  176DOPC  C31621579   1.920   2.302  13.432  0.2023 -0.4127  0.7891
  176DOPC  H16X21580   1.994   2.223  13.455 -1.6822 -3.1380 -1.7698
  176DOPC  H16Y21581   1.965   2.397  13.470  1.4713  0.0247 -1.5832
  176DOPC  C31721582   1.790   2.273  13.511 -0.6410 -1.2032 -0.2887
  176DOPC  H17X21583   1.728   2.365  13.504 -0.7816 -1.1300  1.4498
  176DOPC  H17Y21584   1.720   2.201  13.464 -3.1149  1.1480 -0.4711
  176DOPC  C31821585   1.804   2.255  13.666 -0.4847 -0.0889  0.3123
  176DOPC  H18X21586   1.851   2.156  13.689  0.2273 -0.3376 -1.9532
  176DOPC  H18Y21587   1.865   2.329  13.721 -0.1637 -0.6111  0.6755
  176DOPC  H18Z21588   1.700   2.246  13.704 -0.6273  1.4202  0.3267
  177DOPC     N21589   2.460   0.646  10.984 -0.2810 -0.2720 -0.7140
  177DOPC   C1221590   2.549   0.632  11.109  0.2995 -0.6104 -0.2670
  177DOPC  H12A21591   2.574   0.729  11.149 -1.1108 -0.4817  0.3826
  177DOPC  H12B21592   2.643   0.587  11.081 -0.4570 -1.8959 -0.8124
  177DOPC   C1321593   2.446   0.518  10.910  0.4764 -0.4269  0.0359
  177DOPC  H13A21594   2.379   0.524  10.826 -3.6239 -1.5694  2.8994
  177DOPC  H13B21595   2.547   0.482  10.893  0.5246 -0.4323  0.3272
  177DOPC  H13C21596   2.401   0.441  10.972 -0.8049 -1.0134 -1.5664
  177DOPC   C1421597   2.527   0.743  10.896 -0.2001  0.1914 -0.6131
  177DOPC  H14A21598   2.487   0.757  10.796 -4.4732  0.8992  0.9678
  177DOPC  H14B21599   2.523   0.839  10.945 -1.3465  0.2003 -0.6960
  177DOPC  H14C21600   2.628   0.713  10.874  0.9852  4.4436 -1.9766
  177DOPC   C1521601   2.325   0.703  11.009 -0.3464 -0.3058 -0.4478
  177DOPC  H15A21602   2.271   0.640  11.078 -1.2561 -0.1236 -0.9785
  177DOPC  H15B21603   2.263   0.714  10.921  1.4331 -1.0923 -1.8770
  177DOPC  H15C21604   2.341   0.795  11.062 -2.4272  0.3542 -0.8872
  177DOPC   C1121605   2.499   0.535  11.228 -0.2945 -0.3366  0.3189
  177DOPC  H11A21606   2.579   0.541  11.306  0.3027  0.5623 -0.3419
  177DOPC  H11B21607   2.411   0.578  11.280  0.1342  1.3616 -0.3036
  177DOPC     P21608   2.613   0.304  11.176  0.1664 -0.1810 -0.3317
  177DOPC   O1321609   2.718   0.387  11.126 -0.2526 -0.2434 -0.9957
  177DOPC   O1421610   2.585   0.186  11.094  0.1768  0.0463  0.1074
  177DOPC   O1221611   2.483   0.395  11.188  0.4616 -0.2728 -0.7948
  177DOPC   O1121612   2.646   0.260  11.322  0.1684 -0.4136  0.2990
  177DOPC    C121613   2.650   0.136  11.387  0.6683 -0.3645 -0.3477
  177DOPC    HA21614   2.645   0.052  11.315  0.8476 -1.7365  1.1731
  177DOPC    HB21615   2.569   0.121  11.462  2.1618 -0.4813  1.3206
  177DOPC    C221616   2.773   0.115  11.475 -0.1687 -0.1140  0.2705
  177DOPC    HS21617   2.768   0.013  11.519  0.7520 -0.9556 -1.4482
  177DOPC   O2121618   2.803   0.210  11.581 -0.4505  0.0887  0.4432
  177DOPC   C2121619   2.718   0.200  11.682 -0.7936  0.3954  0.9002
  177DOPC   O2221620   2.623   0.119  11.687 -0.0627 -0.5052  0.1617
  177DOPC   C2221621   2.750   0.311  11.784 -0.3136  0.4855  0.0814
  177DOPC   H2R21622   2.652   0.363  11.795  0.3904  1.9383 -0.2279
  177DOPC   H2S21623   2.827   0.380  11.744  0.5802  0.9338  2.4124
  177DOPC    C321624   2.902   0.092  11.384 -0.0517  0.2129  0.2976
  177DOPC    HX21625   2.907   0.174  11.310  3.1206  0.6591  0.8466
  177DOPC    HY21626   2.888  -0.006  11.334 -0.4257  0.3703  0.0986
  177DOPC   O3121627   3.027   0.087  11.460 -0.4275  0.2728  0.4722
  177DOPC   C3121628   3.092   0.199  11.468  0.2542 -0.3175  0.8741
  177DOPC   O3221629   3.066   0.306  11.411  0.4571 -0.5120  0.1357
  177DOPC   C3221630   3.211   0.183  11.568  0.3535 -0.5352  0.8857
  177DOPC   H2X21631   3.247   0.078  11.569  0.8643 -0.4057 -1.0012
  177DOPC   H2Y21632   3.297   0.241  11.527  1.0952 -1.8294  0.5394
  177DOPC   C2321633   2.800   0.261  11.923  0.3271  0.0151  0.4542
  177DOPC   H3R21634   2.909   0.239  11.926  0.3381  0.0360  0.1744
  177DOPC   H3S21635   2.748   0.173  11.966 -0.9443  0.5987  0.1515
  177DOPC   C2421636   2.786   0.380  12.016  0.2968 -0.4016 -0.0805
  177DOPC   H4R21637   2.685   0.424  12.031  0.2727 -0.7055  0.7094
  177DOPC   H4S21638   2.839   0.464  11.967 -2.4368  1.3841 -0.1735
  177DOPC   C2521639   2.849   0.343  12.155 -0.4731 -0.9043  0.4384
  177DOPC   H5R21640   2.958   0.355  12.142 -0.6363  0.9923  0.5911
  177DOPC   H5S21641   2.827   0.235  12.172 -1.2233 -0.2715  4.3920
  177DOPC   C2621642   2.796   0.435  12.259  0.1362 -0.3040  0.1941
  177DOPC   H6R21643   2.686   0.423  12.265  0.0010  1.0333  0.9093
  177DOPC   H6S21644   2.823   0.541  12.236  1.1807 -0.4560  0.6602
  177DOPC   C2721645   2.838   0.391  12.400  0.3897  0.0525 -0.7164
  177DOPC   H7R21646   2.816   0.283  12.417  2.0184 -0.1785  0.1616
  177DOPC   H7S21647   2.777   0.445  12.475  2.0030  1.5397 -0.4262
  177DOPC   C2821648   2.992   0.405  12.434 -0.3532  0.4058 -0.7028
  177DOPC   H8R21649   3.053   0.357  12.355  0.1091 -0.5606  0.2160
  177DOPC   H8S21650   3.018   0.351  12.527 -1.7295  0.6207 -0.1739
  177DOPC   C2921651   3.039   0.550  12.445  0.3596  0.0853 -0.0768
  177DOPC   H9R21652   3.019   0.611  12.355 -0.2602 -1.2187 -0.8574
  177DOPC  C21021653   3.105   0.596  12.556  0.2040 -0.2749 -0.3986
  177DOPC  H10R21654   3.151   0.695  12.544  2.5829 -1.1380  1.0123
  177DOPC  C21121655   3.146   0.526  12.679 -0.0370  0.7968 -0.0414
  177DOPC  H11R21656   3.232   0.580  12.725  0.8944 -1.2748  0.7640
  177DOPC  H11S21657   3.176   0.421  12.658 -0.7515  0.8933 -1.6543
  177DOPC  C21221658   3.042   0.525  12.793  0.5785  0.3313  0.3084
  177DOPC  H12R21659   2.955   0.462  12.765 -0.0527  1.2325  0.2040
  177DOPC  H12S21660   3.005   0.626  12.821  1.4510  0.2417  1.8856
  177DOPC  C21321661   3.102   0.471  12.921  0.2022  0.9741 -0.3058
  177DOPC  H13R21662   3.197   0.523  12.944  1.7727 -1.2299 -1.4900
  177DOPC  H13S21663   3.115   0.362  12.905 -1.5705  0.5130  1.0273
  177DOPC  C21421664   3.009   0.482  13.044  0.3028 -0.0531 -0.8330
  177DOPC  H14R21665   2.908   0.444  13.019  0.5617 -1.7577  0.4574
  177DOPC  H14S21666   3.010   0.588  13.078  2.7871 -1.1829  3.5185
  177DOPC  C21521667   3.070   0.403  13.158 -0.6607  1.3136  0.0529
  177DOPC  H15R21668   3.177   0.419  13.182 -0.6364 -1.3159  2.1336
  177DOPC  H15S21669   3.066   0.296  13.128  0.0462  1.7818 -1.8416
  177DOPC  C21621670   3.002   0.422  13.301 -0.1859 -0.0541  0.4805
  177DOPC  H16R21671   2.997   0.525  13.342  1.5338  0.2444  0.0325
  177DOPC  H16S21672   3.079   0.368  13.361  1.6807  0.3141 -1.4646
  177DOPC  C21721673   2.869   0.353  13.293  0.0869  0.7930 -0.0035
  177DOPC  H17R21674   2.904   0.250  13.271  1.5812  1.1041  0.7817
  177DOPC  H17S21675   2.811   0.399  13.210  0.5480  0.9657 -0.2318
  177DOPC  C21821676   2.800   0.339  13.424  0.1711  0.0265 -0.8829
  177DOPC  H18R21677   2.694   0.306  13.415  0.2558  0.2466 -3.3121
  177DOPC  H18S21678   2.795   0.439  13.473 -0.2580  0.8766 -2.5717
  177DOPC  H18T21679   2.853   0.268  13.490  0.4233  1.7128  0.8182
  177DOPC   C3321680   3.176   0.223  11.711 -0.6665 -0.6169 -0.4909
  177DOPC   H3X21681   3.099   0.150  11.746 -1.0404 -0.7766 -1.5943
  177DOPC   H3Y21682   3.132   0.325  11.721 -0.3294 -0.5509  0.3907
  177DOPC   C3421683   3.295   0.228  11.808 -0.1914 -0.3483  0.4421
  177DOPC   H4X21684   3.376   0.299  11.783  0.7262 -0.9956  1.4915
  177DOPC   H4Y21685   3.334   0.126  11.830 -0.1758 -0.3295  0.5031
  177DOPC   C3521686   3.251   0.294  11.943 -0.3208 -0.1438  0.4416
  177DOPC   H5X21687   3.164   0.234  11.978 -0.5291 -0.2128 -0.1868
  177DOPC   H5Y21688   3.211   0.395  11.919  1.4708  0.7897  1.2485
  177DOPC   C3621689   3.357   0.317  12.044  0.4494  0.1143  0.3027
  177DOPC   H6X21690   3.400   0.216  12.063  0.5569 -0.0115 -0.5820
  177DOPC   H6Y21691   3.429   0.390  12.000  1.9845 -1.7225 -0.3593
  177DOPC   C3721692   3.299   0.362  12.181  0.2635  0.5786  0.3910
  177DOPC   H7X21693   3.234   0.450  12.159 -0.9212 -0.8464 -2.3095
  177DOPC   H7Y21694   3.225   0.290  12.223  0.7551  0.6542  1.4063
  177DOPC   C3821695   3.401   0.381  12.293  0.1318 -0.2825 -0.1784
  177DOPC   H8X21696   3.337   0.413  12.379  1.0041  0.7180  0.1164
  177DOPC   H8Y21697   3.458   0.472  12.265  1.5016 -0.9917  0.2625
  177DOPC   C3921698   3.489   0.264  12.327 -0.3994 -0.5171 -0.8915
  177DOPC   H9X21699   3.497   0.187  12.250  0.1062  0.0332 -1.4020
  177DOPC  C31021700   3.543   0.237  12.450  0.3130  0.2664 -0.0897
  177DOPC  H10X21701   3.595   0.141  12.465  2.2471  0.6492 -3.4392
  177DOPC  C31121702   3.533   0.335  12.570  0.6984 -0.8499 -0.3012
  177DOPC  H11X21703   3.477   0.424  12.535  0.0828 -1.2470 -0.3501
  177DOPC  H11Y21704   3.635   0.358  12.606  1.4313 -1.1219 -2.0736
  177DOPC  C31221705   3.456   0.259  12.682 -0.4188 -0.4531  0.1334
  177DOPC  H12X21706   3.505   0.164  12.711 -0.2230 -1.1860 -2.3634
  177DOPC  H12Y21707   3.357   0.231  12.639  0.0459 -1.0079 -0.5989
  177DOPC  C31321708   3.426   0.348  12.803  0.6800  0.5350 -0.7302
  177DOPC  H13X21709   3.388   0.449  12.778  3.1825  1.6110 -0.5699
  177DOPC  H13Y21710   3.340   0.297  12.851  1.9730  0.0527  1.1964
  177DOPC  C31421711   3.543   0.362  12.902  0.4387 -0.4283 -0.1177
  177DOPC  H14X21712   3.584   0.265  12.938  1.5759 -0.9762 -2.6863
  177DOPC  H14Y21713   3.624   0.404  12.839  2.6754 -0.4254  2.5921
  177DOPC  C31521714   3.527   0.456  13.023  0.0192 -0.4816 -0.6850
  177DOPC  H15X21715   3.447   0.417  13.089 -0.0819  0.0912 -0.4585
  177DOPC  H15Y21716   3.494   0.555  12.984 -0.0492 -0.4375 -0.5180
  177DOPC  C31621717   3.652   0.486  13.103  0.1750  0.4284 -0.5609
  177DOPC  H16X21718   3.713   0.394  13.100 -0.5519 -0.0725 -0.2449
  177DOPC  H16Y21719   3.706   0.572  13.057 -0.8345  0.8482 -0.9923
  177DOPC  C31721720   3.620   0.513  13.252 -0.3610  0.0831 -0.4767
  177DOPC  H17X21721   3.545   0.592  13.271  3.0897  3.3334  0.8350
  177DOPC  H17Y21722   3.576   0.417  13.287 -0.5331  0.5514  0.6090
  177DOPC  C31821723   3.740   0.562  13.326 -0.7973  0.1933  0.0786
  177DOPC  H18X21724   3.779   0.648  13.268 -2.1720  0.2624 -0.7977
  177DOPC  H18Y21725   3.719   0.598  13.429 -0.2252  0.2714  0.1694
  177DOPC  H18Z21726   3.811   0.478  13.342 -0.9238  0.1636  0.5073
  178DOPC     N21727   0.868   0.872  10.660  0.1756  0.1672  0.6539
  178DOPC   C1221728   0.792   0.845  10.788  0.5731  1.0140 -0.5579
  178DOPC  H12A21729   0.792   0.739  10.810 -3.3925  0.3424 -2.7232
  178DOPC  H12B21730   0.688   0.869  10.773  0.3630  0.4789 -0.0018
  178DOPC   C1321731   0.875   1.016  10.631 -0.0163 -0.6847  0.9337
  178DOPC  H13A21732   0.775   1.051  10.613  0.7140  0.1593 -2.0654
  178DOPC  H13B21733   0.913   1.069  10.718 -1.5235  0.3373  0.9975
  178DOPC  H13C21734   0.928   1.044  10.541  0.6400 -1.1296  1.1727
  178DOPC   C1421735   0.801   0.786  10.549  0.1044  0.0658 -0.0233
  178DOPC  H14A21736   0.701   0.816  10.522 -1.3156 -3.1282  1.1682
  178DOPC  H14B21737   0.864   0.799  10.463  0.2129 -0.1007  0.0297
  178DOPC  H14C21738   0.793   0.682  10.577 -1.1859  0.4374  1.1488
  178DOPC   C1521739   1.001   0.815  10.667  0.3034  0.2175  0.6415
  178DOPC  H15A21740   1.052   0.842  10.575 -0.5605 -0.6755 -0.1329
  178DOPC  H15B21741   0.999   0.708  10.674  3.0125  0.1901  1.9892
  178DOPC  H15C21742   1.051   0.853  10.755 -1.2464  4.2491  0.0173
  178DOPC   C1121743   0.845   0.913  10.915 -0.3486  0.1665 -0.1661
  178DOPC  H11A21744   0.882   1.015  10.890  1.6541 -0.2660  0.7629
  178DOPC  H11B21745   0.761   0.922  10.987 -0.0116  1.3028  0.1186
  178DOPC     P21746   0.932   0.739  11.092 -0.4474 -0.3068 -0.4677
  178DOPC   O1321747   1.054   0.660  11.113 -0.5344  0.1867  0.1005
  178DOPC   O1421748   0.808   0.668  11.075  0.4333 -0.3522 -0.4753
  178DOPC   O1221749   0.954   0.831  10.966 -0.1570  0.3521 -0.0127
  178DOPC   O1121750   0.905   0.851  11.203 -0.2911 -0.5664  0.3506
  178DOPC    C121751   1.016   0.931  11.253  0.0195 -0.2804  0.0525
  178DOPC    HA21752   0.999   1.035  11.219 -0.0589 -0.6887 -1.1927
  178DOPC    HB21753   1.114   0.897  11.213  0.6457  0.8425  0.5896
  178DOPC    C221754   1.034   0.928  11.402 -0.5796 -0.8268 -0.1454
  178DOPC    HS21755   1.132   0.971  11.432 -0.5483 -1.1454  0.2199
  178DOPC   O2121756   1.016   0.792  11.454  0.5982 -0.4495 -0.3849
  178DOPC   C2121757   1.102   0.705  11.428 -0.4710 -0.2429  0.0247
  178DOPC   O2221758   1.224   0.716  11.416  0.2505  0.0625 -0.3107
  178DOPC   C2221759   1.043   0.559  11.436 -0.1184  0.2169 -0.1417
  178DOPC   H2R21760   1.092   0.496  11.358  2.2474 -0.3369  1.6562
  178DOPC   H2S21761   0.934   0.574  11.425 -0.1607  0.7658  0.9189
  178DOPC    C321762   0.931   1.016  11.479 -0.0443  0.7912 -0.8902
  178DOPC    HX21763   0.833   0.994  11.431  0.7365  0.7307 -2.5405
  178DOPC    HY21764   0.955   1.123  11.460 -0.3974  0.8709 -0.8976
  178DOPC   O3121765   0.937   0.997  11.624 -0.4405  0.3895  0.1043
  178DOPC   C3121766   0.845   0.914  11.684  0.8568  0.4641  0.4416
  178DOPC   O3221767   0.764   0.844  11.623  0.5347 -0.5516  0.4249
  178DOPC   C3221768   0.884   0.897  11.832  0.2306  0.5313  0.0217
  178DOPC   H2X21769   0.985   0.850  11.836  0.2120  0.4656 -0.2648
  178DOPC   H2Y21770   0.888   0.996  11.881 -0.0022  0.0131  1.1040
  178DOPC   C2321771   1.079   0.487  11.565  0.2010  0.0502  0.8168
  178DOPC   H3R21772   1.189   0.471  11.573  0.4846 -0.4677 -2.5476
  178DOPC   H3S21773   1.035   0.385  11.554 -0.6771  0.6388 -1.8517
  178DOPC   C2421774   1.015   0.554  11.687 -0.8321 -0.4634  0.0736
  178DOPC   H4R21775   0.906   0.563  11.669 -0.2302  2.4062 -3.1809
  178DOPC   H4S21776   1.055   0.654  11.717 -0.3689 -1.2649  2.3644
  178DOPC   C2521777   1.044   0.470  11.814  0.0500  0.8865  0.3115
  178DOPC   H5R21778   1.153   0.448  11.821 -0.0394 -0.9129 -2.6511
  178DOPC   H5S21779   0.996   0.371  11.799  0.1580  0.6417  1.4646
  178DOPC   C2621780   1.005   0.532  11.946  0.5242 -0.7174 -0.3063
  178DOPC   H6R21781   0.895   0.534  11.928  0.1988 -2.5014  1.2526
  178DOPC   H6S21782   1.041   0.637  11.955  1.0519 -1.1005  3.6585
  178DOPC   C2721783   1.039   0.451  12.066 -0.2759  0.2484 -0.1873
  178DOPC   H7R21784   1.150   0.457  12.066 -0.3426  2.3507 -0.3563
  178DOPC   H7S21785   1.009   0.346  12.047 -2.6455  0.9511 -0.6629
  178DOPC   C2821786   0.982   0.495  12.197  0.2072 -0.3010  0.2610
  178DOPC   H8R21787   0.963   0.604  12.186 -2.7664 -0.5184  1.9605
  178DOPC   H8S21788   1.057   0.462  12.271  0.1402  0.2693  0.5887
  178DOPC   C2921789   0.844   0.435  12.221  0.4789  0.6498 -0.1688
  178DOPC   H9R21790   0.772   0.437  12.137  0.7484 -2.4218 -0.6029
  178DOPC  C21021791   0.799   0.381  12.334  0.6003 -0.3684 -0.1930
  178DOPC  H10R21792   0.699   0.337  12.326  0.8043 -0.6581 -1.2671
  178DOPC  C21121793   0.863   0.390  12.470  0.4188  0.3511 -0.1349
  178DOPC  H11R21794   0.790   0.433  12.541  0.8914 -1.9950  1.9145
  178DOPC  H11S21795   0.948   0.461  12.465  1.8396 -1.2359  0.4360
  178DOPC  C21221796   0.915   0.254  12.523 -0.3338 -0.4012  0.1678
  178DOPC  H12R21797   0.999   0.223  12.458  0.3750  0.1783  0.7936
  178DOPC  H12S21798   0.836   0.177  12.517 -1.2175  0.4460  0.6289
  178DOPC  C21321799   0.967   0.275  12.669 -0.0032  0.2486 -0.2279
  178DOPC  H13R21800   0.892   0.325  12.734  1.8120  1.3953  1.0863
  178DOPC  H13S21801   1.048   0.350  12.655  2.0323 -1.5244  1.3391
  178DOPC  C21421802   1.034   0.155  12.731 -0.0825  0.4535  0.4109
  178DOPC  H14R21803   1.120   0.120  12.671 -1.7062 -0.3395 -1.5926
  178DOPC  H14S21804   0.969   0.066  12.739  0.4185  0.1288  0.9382
  178DOPC  C21521805   1.078   0.190  12.869  0.0317 -0.1076  0.3096
  178DOPC  H15R21806   0.997   0.234  12.931  0.2816  1.1160 -0.2090
  178DOPC  H15S21807   1.162   0.261  12.856 -0.2618  0.4948  1.5499
  178DOPC  C21621808   1.132   0.075  12.956 -0.1966  0.4119 -0.2123
  178DOPC  H16R21809   1.217   0.026  12.904 -0.8922  1.4766 -2.4971
  178DOPC  H16S21810   1.062  -0.011  12.968  1.2644 -0.6498  1.0727
  178DOPC  C21721811   1.180   0.120  13.096  0.8018  0.6071 -0.0700
  178DOPC  H17R21812   1.261   0.191  13.069  0.9835  0.3946 -0.0856
  178DOPC  H17S21813   1.229   0.034  13.148 -0.6248 -0.4108 -0.3397
  178DOPC  C21821814   1.078   0.182  13.196 -0.6627  0.1165 -0.4801
  178DOPC  H18R21815   1.126   0.235  13.281 -0.7877  2.5386 -1.8551
  178DOPC  H18S21816   1.022   0.097  13.243 -0.9961 -0.8738 -2.5611
  178DOPC  H18T21817   0.997   0.251  13.164 -0.5576  0.0140 -0.9728
  178DOPC   C3321818   0.778   0.811  11.900  0.0263  0.6074 -0.4459
  178DOPC   H3X21819   0.776   0.708  11.858  1.4644 -0.3880  1.7617
  178DOPC   H3Y21820   0.680   0.861  11.882  0.8390  2.2391 -0.4893
  178DOPC   C3421821   0.798   0.809  12.056  0.1171  0.0144  0.0636
  178DOPC   H4X21822   0.908   0.796  12.064  0.3098  1.3906 -0.1251
  178DOPC   H4Y21823   0.749   0.716  12.093 -1.6717 -1.5080 -5.2456
  178DOPC   C3521824   0.760   0.936  12.139  0.8057 -0.0260  0.3339
  178DOPC   H5X21825   0.652   0.960  12.129  1.0801  0.8476 -0.9027
  178DOPC   H5Y21826   0.807   1.031  12.105  1.0811 -0.4864 -0.5904
  178DOPC   C3621827   0.784   0.916  12.288  0.7919 -0.3652 -0.5548
  178DOPC   H6X21828   0.883   0.867  12.295  0.4624 -1.0980 -0.8995
  178DOPC   H6Y21829   0.789   1.018  12.333 -1.7031 -0.6019  0.4178
  178DOPC   C3721830   0.669   0.846  12.361 -0.2466  0.3303  0.1529
  178DOPC   H7X21831   0.576   0.906  12.353  0.9448  2.5151  1.6569
  178DOPC   H7Y21832   0.649   0.748  12.313  0.3780 -0.4929  1.5054
  178DOPC   C3821833   0.702   0.830  12.516  0.0688 -0.0477  0.3079
  178DOPC   H8X21834   0.611   0.788  12.564 -1.1419  2.3734  0.3325
  178DOPC   H8Y21835   0.726   0.933  12.552  1.2798  0.0926 -0.8458
  178DOPC   C3921836   0.819   0.740  12.532 -0.2398 -0.1957  0.0383
  178DOPC   H9X21837   0.847   0.694  12.436 -0.8488  1.6696 -1.0825
  178DOPC  C31021838   0.877   0.712  12.652  0.8431  0.0665  1.0238
  178DOPC  H10X21839   0.961   0.640  12.651  0.9456  0.1843 -0.1861
  178DOPC  C31121840   0.827   0.768  12.787 -0.0500  1.3666  0.0612
  178DOPC  H11X21841   0.720   0.798  12.784  0.6616  4.1596 -0.0001
  178DOPC  H11Y21842   0.889   0.859  12.807  1.3944  0.4999 -0.3469
  178DOPC  C31221843   0.829   0.662  12.901  0.3409  0.2170 -0.0472
  178DOPC  H12X21844   0.763   0.578  12.872 -0.4236  0.7847  0.0324
  178DOPC  H12Y21845   0.788   0.710  12.993 -1.9757  0.3262 -1.0781
  178DOPC  C31321846   0.975   0.601  12.935  0.4944 -0.6092  0.0232
  178DOPC  H13X21847   1.003   0.528  12.857  1.9908 -1.2080  1.0746
  178DOPC  H13Y21848   1.047   0.685  12.939 -0.5492  0.3554 -0.8448
  178DOPC  C31421849   0.979   0.519  13.061 -0.5577  0.1223  0.4980
  178DOPC  H14X21850   0.879   0.472  13.078 -0.3955 -0.6558 -0.5979
  178DOPC  H14Y21851   1.059   0.442  13.057  0.1959  0.8820  0.6363
  178DOPC  C31521852   1.011   0.609  13.183 -0.2943 -0.1913 -0.4609
  178DOPC  H15X21853   0.928   0.680  13.201 -0.5193 -0.7076  0.6380
  178DOPC  H15Y21854   1.101   0.670  13.161  0.6025 -2.1968 -2.8985
  178DOPC  C31621855   1.031   0.527  13.315  0.9885  0.5433  0.4272
  178DOPC  H16X21856   0.938   0.470  13.339 -0.3289  2.7854  0.9668
  178DOPC  H16Y21857   1.115   0.458  13.294 -0.5036 -1.4525  0.7038
  178DOPC  C31721858   1.046   0.618  13.440  0.0576  0.0619  0.6259
  178DOPC  H17X21859   0.987   0.709  13.416  2.1267  0.4730 -4.1328
  178DOPC  H17Y21860   1.006   0.550  13.518 -0.1780  0.4252  0.8241
  178DOPC  C31821861   1.197   0.641  13.453 -0.4744  0.5883  0.2288
  178DOPC  H18X21862   1.234   0.684  13.358  1.0492  1.4442  1.1740
  178DOPC  H18Y21863   1.214   0.706  13.542  0.0252 -1.0135  1.3598
  178DOPC  H18Z21864   1.247   0.543  13.473 -0.9382 -0.0088 -1.3553
  179DOPC     N21865   3.856   0.719  10.614 -0.0460 -0.4778 -0.3420
  179DOPC   C1221866   3.983   0.719  10.702 -0.1908 -0.3090  0.2610
  179DOPC  H12A21867   4.036   0.812  10.687  0.8218 -0.9307 -0.1243
  179DOPC  H12B21868   4.055   0.663  10.644 -1.4012 -0.0451 -1.5849
  179DOPC   C1321869   3.770   0.834  10.668 -0.2322  0.0461 -0.1123
  179DOPC  H13A21870   3.823   0.927  10.654 -1.0340  0.3524 -1.2538
  179DOPC  H13B21871   3.675   0.836  10.618 -0.6835 -0.7258  0.6922
  179DOPC  H13C21872   3.747   0.809  10.770 -1.6850 -0.8934 -0.6405
  179DOPC   C1421873   3.779   0.589  10.608  0.5292 -0.8339 -0.2347
  179DOPC  H14A21874   3.833   0.510  10.558  0.2061 -2.0646  1.3000
  179DOPC  H14B21875   3.752   0.550  10.705 -0.2933 -0.0563 -0.1384
  179DOPC  H14C21876   3.693   0.600  10.544 -0.7698 -0.7707  1.4531
  179DOPC   C1521877   3.883   0.763  10.476 -0.3354 -0.2481  0.5197
  179DOPC  H15A21878   3.931   0.683  10.422 -0.5347 -0.5765  0.8240
  179DOPC  H15B21879   3.952   0.844  10.459 -0.3650 -0.7569 -2.5662
  179DOPC  H15C21880   3.798   0.796  10.417 -0.7107 -0.8616  0.7101
  179DOPC   C1121881   3.977   0.676  10.845  0.4795 -0.3480  0.3724
  179DOPC  H11A21882   4.072   0.704  10.894  2.0712 -2.7317 -1.1762
  179DOPC  H11B21883   3.899   0.736  10.897 -0.9468  0.7585 -2.7907
  179DOPC     P21884   4.044   0.423  10.827 -0.2668  0.1575 -0.1191
  179DOPC   O1321885   4.108   0.451  10.695  0.2599 -0.6088 -0.2162
  179DOPC   O1421886   3.967   0.293  10.836 -0.8168 -0.2638 -0.5513
  179DOPC   O1221887   3.941   0.538  10.854 -0.0156 -0.1055 -0.1303
  179DOPC   O1121888   4.153   0.443  10.935 -0.3638  0.4985 -0.2417
  179DOPC    C121889   4.163   0.367  11.053 -0.6277  0.4180  0.0737
  179DOPC    HA21890   4.261   0.388  11.099 -0.6762  0.6623  0.0668
  179DOPC    HB21891   4.148   0.257  11.040  1.4461  0.1110 -0.0643
  179DOPC    C221892   4.067   0.419  11.161 -0.4527  0.4690 -0.1576
  179DOPC    HS21893   3.965   0.382  11.137 -0.3402  1.6059 -2.7382
  179DOPC   O2121894   4.069   0.561  11.168  0.1942 -0.5958 -0.2309
  179DOPC   C2121895   3.967   0.617  11.226  0.6244 -0.1893  0.8302
  179DOPC   O2221896   3.854   0.570  11.240  0.1501  0.2156 -0.2943
  179DOPC   C2221897   3.996   0.762  11.271  0.2430 -0.0311 -0.2182
  179DOPC   H2R21898   3.948   0.822  11.191 -0.3047 -1.5514 -1.0896
  179DOPC   H2S21899   4.106   0.779  11.274  0.5967 -1.4501 -2.2760
  179DOPC    C321900   4.106   0.362  11.304  0.0365 -0.5770 -0.9603
  179DOPC    HX21901   4.200   0.416  11.329 -0.1437  0.1925 -1.8744
  179DOPC    HY21902   4.132   0.254  11.295  2.9464 -0.2632  1.6871
  179DOPC   O3121903   4.001   0.392  11.403  0.2608  0.1428 -0.2822
  179DOPC   C3121904   3.906   0.298  11.407  0.2013  0.6716  0.1930
  179DOPC   O3221905   3.906   0.196  11.343  0.4236  1.0918 -0.2931
  179DOPC   C3221906   3.819   0.325  11.528  0.6409 -0.8937  0.6850
  179DOPC   H2X21907   3.886   0.342  11.615 -0.2219  0.9405  1.0289
  179DOPC   H2Y21908   3.764   0.418  11.504  0.6800 -1.3681 -1.4512
  179DOPC   C2321909   3.913   0.799  11.400 -0.2094 -0.6973 -0.3563
  179DOPC   H3R21910   3.811   0.767  11.373 -0.2719 -0.0902 -0.8730
  179DOPC   H3S21911   3.917   0.910  11.409  3.5580 -0.7040 -0.3512
  179DOPC   C2421912   3.977   0.742  11.523  0.3791  0.7614 -0.5577
  179DOPC   H4R21913   4.074   0.792  11.543 -0.0387  0.7832  1.7435
  179DOPC   H4S21914   3.998   0.634  11.506  2.3805  0.7662  1.4111
  179DOPC   C2521915   3.887   0.762  11.643  0.3553 -0.1978  0.1942
  179DOPC   H5R21916   3.788   0.721  11.615 -0.6656  2.3903 -0.2350
  179DOPC   H5S21917   3.877   0.872  11.653 -0.4063 -0.2624  0.1695
  179DOPC   C2621918   3.944   0.691  11.765  0.3581  0.5782  0.4047
  179DOPC   H6R21919   4.047   0.716  11.796  0.1130 -1.4883  3.2252
  179DOPC   H6S21920   3.953   0.583  11.741  0.8198  0.3538  1.5389
  179DOPC   C2721921   3.860   0.707  11.889  0.7183  0.2540  0.3957
  179DOPC   H7R21922   3.768   0.648  11.868  1.4830 -0.3902 -1.3523
  179DOPC   H7S21923   3.842   0.816  11.903  1.3342  0.7404 -2.1677
  179DOPC   C2821924   3.925   0.660  12.021  0.4913 -0.2622  0.3679
  179DOPC   H8R21925   4.021   0.716  12.033  0.1287  0.6259 -0.7362
  179DOPC   H8S21926   3.944   0.552  12.006 -0.7523 -0.2133 -2.1172
  179DOPC   C2921927   3.831   0.689  12.136  0.1060 -0.3484  0.1463
  179DOPC   H9R21928   3.786   0.789  12.134  2.3488  0.6935 -0.4432
  179DOPC  C21021929   3.794   0.608  12.238  0.5875 -0.1500 -0.2596
  179DOPC  H10R21930   3.713   0.638  12.306  1.0272  0.0573  0.1843
  179DOPC  C21121931   3.844   0.468  12.258 -0.4984  0.6695 -0.1683
  179DOPC  H11R21932   3.933   0.443  12.197  0.6733  1.4981  1.1071
  179DOPC  H11S21933   3.761   0.399  12.234  0.9753 -1.5201  0.6823
  179DOPC  C21221934   3.880   0.433  12.401 -0.0240  0.7575  0.0451
  179DOPC  H12R21935   3.806   0.452  12.482 -1.8356  1.3152 -1.6594
  179DOPC  H12S21936   3.964   0.503  12.421  1.6444 -1.2185  0.2705
  179DOPC  C21321937   3.935   0.294  12.431 -0.3735  0.2023  0.0301
  179DOPC  H13R21938   4.015   0.264  12.360 -1.3352  0.1322 -1.0530
  179DOPC  H13S21939   3.858   0.214  12.426 -0.8956  0.7590 -1.3224
  179DOPC  C21421940   3.992   0.281  12.570  0.2295  0.1487 -0.4010
  179DOPC  H14R21941   4.075   0.352  12.591 -1.1365  1.4670  0.8268
  179DOPC  H14S21942   4.024   0.176  12.588 -1.0990 -0.3197 -0.7153
  179DOPC  C21521943   3.897   0.326  12.687 -0.2385 -0.3824  0.1490
  179DOPC  H15R21944   3.794   0.289  12.670 -0.0764 -1.0897  0.6557
  179DOPC  H15S21945   3.901   0.437  12.689 -0.4821 -0.3739  0.2325
  179DOPC  C21621946   3.929   0.275  12.830 -0.3367 -0.1380  0.3276
  179DOPC  H16R21947   3.934   0.164  12.837 -0.8486 -0.4070 -2.5526
  179DOPC  H16S21948   3.839   0.305  12.888 -0.4437  0.0540  0.0657
  179DOPC  C21721949   4.049   0.339  12.889 -0.6051  0.5294 -0.0193
  179DOPC  H17R21950   4.049   0.445  12.855  0.0268 -0.0110 -1.8200
  179DOPC  H17S21951   4.136   0.291  12.838 -1.4146 -0.6594 -0.3053
  179DOPC  C21821952   4.062   0.325  13.039  0.4230  0.1047 -0.2593
  179DOPC  H18R21953   3.978   0.370  13.096 -0.0258 -2.6116  1.4058
  179DOPC  H18S21954   4.159   0.363  13.078 -0.3652 -0.9179  3.0744
  179DOPC  H18T21955   4.057   0.217  13.065 -2.1082 -0.3712 -2.2837
  179DOPC   C3321956   3.733   0.201  11.565 -0.5284  0.7545  0.9731
  179DOPC   H3X21957   3.788   0.104  11.569  1.5848  1.8800  0.6745
  179DOPC   H3Y21958   3.669   0.177  11.477  2.2717 -0.0667 -0.9837
  179DOPC   C3421959   3.656   0.219  11.694 -0.6869  0.4239 -0.6868
  179DOPC   H4X21960   3.575   0.145  11.713 -0.2740 -0.1051 -0.9814
  179DOPC   H4Y21961   3.624   0.320  11.730  0.7980  0.9140 -0.6820
  179DOPC   C3521962   3.763   0.175  11.803 -0.5776 -0.6701  0.0435
  179DOPC   H5X21963   3.843   0.253  11.802  0.8150 -2.0574 -0.8130
  179DOPC   H5Y21964   3.812   0.080  11.774  0.3186  0.0492 -0.8672
  179DOPC   C3621965   3.713   0.170  11.952 -0.4027  0.1238 -0.3361
  179DOPC   H6X21966   3.675   0.271  11.979  0.2829  0.8615 -1.9969
  179DOPC   H6Y21967   3.623   0.105  11.961 -0.2724  0.2022  2.0479
  179DOPC   C3721968   3.829   0.126  12.049  0.0952 -0.2560 -0.2950
  179DOPC   H7X21969   3.887   0.048  11.996 -1.4898 -1.1053 -0.8632
  179DOPC   H7Y21970   3.884   0.221  12.065 -2.3084  1.7071 -2.5598
  179DOPC   C3821971   3.784   0.055  12.180  0.6383  0.5096 -0.2289
  179DOPC   H8X21972   3.729   0.127  12.244  0.5529  1.2952 -1.1550
  179DOPC   H8Y21973   3.869   0.041  12.250  0.7143 -0.8375 -0.5757
  179DOPC   C3921974   3.703  -0.075  12.156  0.4045  0.5373  0.4434
  179DOPC   H9X21975   3.623  -0.072  12.080  1.6769 -2.6969 -1.2479
  179DOPC  C31021976   3.711  -0.185  12.222  0.1686  0.3735  0.1606
  179DOPC  H10X21977   3.668  -0.280  12.186 -0.9717  1.1218 -0.5009
  179DOPC  C31121978   3.781  -0.218  12.355 -0.3876 -0.1732  0.0608
  179DOPC  H11X21979   3.823  -0.127  12.405 -1.4970  1.1448 -1.3178
  179DOPC  H11Y21980   3.864  -0.288  12.334 -0.2842  0.3749 -1.4494
  179DOPC  C31221981   3.683  -0.299  12.451  0.1905  0.0503 -0.3292
  179DOPC  H12X21982   3.749  -0.332  12.533 -0.3781 -1.0156 -0.2873
  179DOPC  H12Y21983   3.637  -0.378  12.389  1.4238  0.4568 -1.8307
  179DOPC  C31321984   3.574  -0.206  12.498  0.2164 -0.3136  0.2013
  179DOPC  H13X21985   3.541  -0.143  12.413 -1.2094  0.5321  1.3342
  179DOPC  H13Y21986   3.487  -0.271  12.522  0.9081 -1.3037  0.1079
  179DOPC  C31421987   3.617  -0.113  12.608 -0.5615 -0.2282 -0.0027
  179DOPC  H14X21988   3.704  -0.057  12.569 -3.0417  3.4084 -0.8001
  179DOPC  H14Y21989   3.535  -0.041  12.628 -0.6378 -0.6399  1.2703
  179DOPC  C31521990   3.644  -0.186  12.742  0.1862 -0.9257  0.2903
  179DOPC  H15X21991   3.727  -0.258  12.727  0.1175 -0.6680 -1.5777
  179DOPC  H15Y21992   3.551  -0.240  12.769 -0.7120  1.4030  2.2763
  179DOPC  C31621993   3.690  -0.096  12.857  0.2351 -0.8702 -0.3260
  179DOPC  H16X21994   3.792  -0.062  12.830  0.6254 -2.4874 -1.0031
  179DOPC  H16Y21995   3.635  -0.000  12.855  2.9086  0.7573 -1.7154
  179DOPC  C31721996   3.692  -0.162  12.998  0.9552 -0.6543  0.4596
  179DOPC  H17X21997   3.597  -0.219  12.998  0.4593  0.1515  0.7319
  179DOPC  H17Y21998   3.773  -0.238  12.990  0.4983 -0.9834 -1.5201
  179DOPC  C31821999   3.710  -0.066  13.108 -0.2204  0.2601 -0.3786
  179DOPC  H18X22000   3.703  -0.118  13.206 -0.1769  2.7112  0.9949
  179DOPC  H18Y22001   3.815  -0.030  13.111  0.0975 -0.6082 -0.5514
  179DOPC  H18Z22002   3.631   0.011  13.092  1.5465  2.0549 -0.8298
  180DOPC     N22003   4.859   4.237  11.053 -0.5711 -0.5955  0.3174
  180DOPC   C1222004   4.758   4.346  11.059  0.8258  0.0545 -0.0936
  180DOPC  H12A22005   4.669   4.306  11.013  0.5693 -1.4080  1.5843
  180DOPC  H12B22006   4.790   4.434  11.004 -1.5819  0.2791 -1.2560
  180DOPC   C1322007   4.890   4.203  10.909  0.1636  0.4247  0.6286
  180DOPC  H13A22008   4.795   4.175  10.865  0.0579 -3.0337  2.6937
  180DOPC  H13B22009   4.920   4.287  10.848  1.4257 -0.0566  0.5425
  180DOPC  H13C22010   4.962   4.122  10.916  0.4391  0.8137  2.9122
  180DOPC   C1422011   4.811   4.119  11.124 -0.9713  0.8151  0.4976
  180DOPC  H14A22012   4.744   4.062  11.061 -0.5667 -0.9219  1.5757
  180DOPC  H14B22013   4.888   4.049  11.154 -0.9023  0.2023 -1.0333
  180DOPC  H14C22014   4.752   4.149  11.209 -0.5037 -1.8098  1.8675
  180DOPC   C1522015   4.987   4.286  11.113 -0.2208 -0.3458 -0.0857
  180DOPC  H15A22016   4.964   4.314  11.214 -0.8913  1.9478 -0.8131
  180DOPC  H15B22017   5.021   4.373  11.057 -1.4180 -0.4831 -1.0672
  180DOPC  H15C22018   5.058   4.205  11.115 -0.6480 -0.7162  0.1604
  180DOPC   C1122019   4.703   4.392  11.197 -0.1406 -0.4187  0.2284
  180DOPC  H11A22020   4.787   4.438  11.254 -1.9775  1.8431  1.2632
  180DOPC  H11B22021   4.636   4.478  11.179 -1.3283 -1.4241 -0.2482
  180DOPC     P22022   4.608   4.318  11.432 -0.3156  0.2221  0.3466
  180DOPC   O1322023   4.505   4.229  11.483  0.9073  0.3005  1.0002
  180DOPC   O1422024   4.590   4.465  11.448  0.5328 -0.0855 -0.2728
  180DOPC   O1222025   4.638   4.296  11.279  0.0121 -0.0057  0.4344
  180DOPC   O1122026   4.753   4.274  11.483  0.0392 -0.2818  0.5923
  180DOPC    C122027   4.776   4.143  11.533 -0.2984 -0.2709 -0.3577
  180DOPC    HA22028   4.866   4.098  11.485  0.2150  0.2329  0.1184
  180DOPC    HB22029   4.693   4.068  11.528 -0.9460  0.4837 -1.1596
  180DOPC    C222030   4.816   4.139  11.687 -0.0265 -0.5883  0.0120
  180DOPC    HS22031   4.726   4.141  11.753  0.9450  2.5505  1.4491
  180DOPC   O2122032   4.903   4.251  11.719 -0.7105  0.2283  0.0549
  180DOPC   C2122033   4.844   4.361  11.769  0.1369  0.3406  0.6725
  180DOPC   O2222034   4.730   4.362  11.804  0.4154 -0.0484  0.5695
  180DOPC   C2222035   4.945   4.469  11.807 -0.3422  0.8160 -0.4098
  180DOPC   H2R22036   4.890   4.565  11.800 -0.3732  0.9347  1.0501
  180DOPC   H2S22037   5.027   4.468  11.733  0.9185 -1.7102  0.9154
  180DOPC    C322038   4.882   4.007  11.737 -0.0215  0.7756  0.1353
  180DOPC    HX22039   4.970   3.993  11.671 -1.6795  1.9926 -2.4655
  180DOPC    HY22040   4.827   3.914  11.712  2.1135 -0.5748  0.2351
  180DOPC   O3122041   4.916   4.018  11.875 -0.5232  0.1071  0.0987
  180DOPC   C3122042   4.812   3.989  11.963 -0.6890  0.7057  0.1144
  180DOPC   O3222043   4.708   3.937  11.929 -0.3216  0.6880 -0.1200
  180DOPC   C3222044   4.845   4.025  12.109  0.7323 -0.1643 -0.0021
  180DOPC   H2X22045   4.950   3.990  12.115  0.5564 -0.4390  1.9213
  180DOPC   H2Y22046   4.842   4.135  12.123  1.5514 -0.4103  2.6416
  180DOPC   C2322047   4.997   4.465  11.953 -0.3838 -1.2401 -0.0640
  180DOPC   H3R22048   4.913   4.487  12.022  0.4499 -0.3013  0.6835
  180DOPC   H3S22049   5.067   4.551  11.960 -0.9198 -0.6565 -1.6309
  180DOPC   C2422050   5.073   4.337  12.003  0.6561 -0.3182 -0.3086
  180DOPC   H4R22051   5.149   4.316  11.925  2.1863  0.4070  0.9187
  180DOPC   H4S22052   4.999   4.257  12.020  0.5927 -0.3967 -0.9463
  180DOPC   C2522053   5.151   4.354  12.132 -0.2707 -0.8519  0.7212
  180DOPC   H5R22054   5.224   4.437  12.124 -0.7079 -0.5197  0.1624
  180DOPC   H5S22055   5.216   4.268  12.160 -0.3761 -0.6616  1.5974
  180DOPC   C2622056   5.060   4.375  12.245  1.1706 -0.0426  0.1847
  180DOPC   H6R22057   4.989   4.289  12.239  1.4274 -0.2230 -0.3299
  180DOPC   H6S22058   4.998   4.467  12.231  2.3359  0.7353  0.0524
  180DOPC   C2722059   5.132   4.388  12.381  0.5994 -0.2930 -0.7834
  180DOPC   H7R22060   5.198   4.477  12.378 -1.7109  1.6208  1.1568
  180DOPC   H7S22061   5.204   4.304  12.394  0.5864 -1.0501 -4.4891
  180DOPC   C2822062   5.044   4.407  12.509 -1.1094  0.4324  0.3120
  180DOPC   H8R22063   4.964   4.482  12.488 -0.7052  0.4864 -1.1076
  180DOPC   H8S22064   5.104   4.453  12.590  0.4859 -0.1411 -0.5132
  180DOPC   C2922065   4.994   4.278  12.561 -0.2202  0.4423 -0.2322
  180DOPC   H9R22066   4.912   4.236  12.502 -1.0823 -0.7681  1.7351
  180DOPC  C21022067   5.058   4.198  12.652  0.0205 -0.6068 -0.0749
  180DOPC  H10R22068   5.008   4.108  12.689  0.3501 -1.2584 -1.1694
  180DOPC  C21122069   5.182   4.235  12.735  0.8672  0.0903 -0.2512
  180DOPC  H11R22070   5.241   4.312  12.681 -0.8324  3.5307  2.4835
  180DOPC  H11S22071   5.243   4.142  12.745  0.9830  0.2604  0.7084
  180DOPC  C21222072   5.149   4.292  12.872 -0.1631  0.1376 -0.2232
  180DOPC  H12R22073   5.109   4.221  12.947 -1.4581  1.5571  0.4891
  180DOPC  H12S22074   5.080   4.379  12.865  0.4090  0.6196 -0.0568
  180DOPC  C21322075   5.266   4.357  12.942 -0.1071 -0.3922 -0.4330
  180DOPC  H13R22076   5.310   4.430  12.870 -4.0397  1.0325 -1.6197
  180DOPC  H13S22077   5.334   4.278  12.981  1.0103 -0.5275 -2.4812
  180DOPC  C21422078   5.228   4.434  13.065  0.4069 -0.0470  0.5932
  180DOPC  H14R22079   5.183   4.355  13.129 -0.2751 -0.1354  0.0260
  180DOPC  H14S22080   5.148   4.504  13.031 -0.0574 -0.9669 -0.2890
  180DOPC  C21522081   5.341   4.501  13.137 -0.4253 -0.0159 -0.3397
  180DOPC  H15R22082   5.423   4.426  13.149 -0.1151  0.1133 -1.5613
  180DOPC  H15S22083   5.312   4.525  13.242 -0.2545  0.6833 -0.4541
  180DOPC  C21622084   5.390   4.627  13.069 -0.6762  0.1645  0.4252
  180DOPC  H16R22085   5.412   4.623  12.960  0.6244  0.4566  0.6642
  180DOPC  H16S22086   5.482   4.658  13.123 -0.7530  1.5248 -0.1825
  180DOPC  C21722087   5.283   4.733  13.071 -0.0541 -0.7124  0.5656
  180DOPC  H17R22088   5.227   4.724  13.166 -1.4152  0.5937 -0.0725
  180DOPC  H17S22089   5.207   4.713  12.991  0.5958  1.3941 -0.6603
  180DOPC  C21822090   5.336   4.869  13.054 -0.0630 -0.2792 -0.4568
  180DOPC  H18R22091   5.253   4.935  13.020 -0.7656 -0.4242  0.8910
  180DOPC  H18S22092   5.407   4.868  12.969 -1.3719 -1.0565 -1.5917
  180DOPC  H18T22093   5.392   4.909  13.141 -1.3178 -0.2655  0.3771
  180DOPC   C3322094   4.753   3.946  12.209 -0.3023 -0.7030 -0.4651
  180DOPC   H3X22095   4.750   3.836  12.190 -0.4083 -1.3484  2.7421
  180DOPC   H3Y22096   4.654   3.997  12.211 -0.9145 -1.5612  4.5314
  180DOPC   C3422097   4.789   3.965  12.356  0.7186 -0.2448 -0.1805
  180DOPC   H4X22098   4.699   3.917  12.400  0.8423  0.2957  0.6781
  180DOPC   H4Y22099   4.779   4.075  12.367 -0.1865 -0.3212 -0.1152
  180DOPC   C3522100   4.920   3.906  12.396 -0.9963 -0.2665 -0.6171
  180DOPC   H5X22101   5.000   3.982  12.407 -2.4918  1.1952  0.7164
  180DOPC   H5Y22102   4.950   3.818  12.334  0.1285 -0.0316 -0.4268
  180DOPC   C3622103   4.907   3.837  12.531  0.4176 -0.2667  0.1629
  180DOPC   H6X22104   4.841   3.898  12.596 -0.7126 -0.0775 -1.1074
  180DOPC   H6Y22105   4.850   3.741  12.524 -1.7991  1.0469 -0.8473
  180DOPC   C3722106   5.034   3.822  12.623  0.2276 -0.5650  0.4071
  180DOPC   H7X22107   5.109   3.757  12.572 -0.6042 -0.6734 -0.7182
  180DOPC   H7Y22108   5.077   3.924  12.637 -2.4740  0.6751  0.2727
  180DOPC   C3822109   5.015   3.775  12.768  0.5139 -0.1254  0.6143
  180DOPC   H8X22110   5.110   3.747  12.818  1.7750 -1.6423 -2.4090
  180DOPC   H8Y22111   4.957   3.680  12.765  1.2838 -0.6129  0.9260
  180DOPC   C3922112   4.944   3.875  12.851  0.0018 -0.0042 -0.0084
  180DOPC   H9X22113   4.836   3.889  12.833 -0.1109  1.8270  1.7371
  180DOPC  C31022114   4.986   3.928  12.972  0.1215 -0.2792 -0.0576
  180DOPC  H10X22115   4.931   4.015  13.010  0.5187  0.3351 -0.8749
  180DOPC  C31122116   5.116   3.905  13.041 -0.5986 -0.6624  0.2423
  180DOPC  H11X22117   5.146   3.988  13.109 -2.6060 -0.3581  0.8090
  180DOPC  H11Y22118   5.200   3.884  12.971 -0.4982  1.9274 -0.5057
  180DOPC  C31222119   5.086   3.784  13.136  0.5685 -0.4393 -0.2764
  180DOPC  H12X22120   5.172   3.753  13.200 -0.5336  0.8913  1.9654
  180DOPC  H12Y22121   5.049   3.692  13.086 -0.2364 -1.0761  1.4288
  180DOPC  C31322122   4.988   3.833  13.238  0.2174  0.6937 -0.5725
  180DOPC  H13X22123   5.032   3.932  13.265 -1.1510  0.9878  0.7183
  180DOPC  H13Y22124   4.885   3.846  13.200 -0.0654  2.3736  0.6538
  180DOPC  C31422125   4.976   3.746  13.364 -0.1387  0.0422 -0.3701
  180DOPC  H14X22126   4.933   3.652  13.323  1.5499  0.0333 -2.3016
  180DOPC  H14Y22127   5.080   3.730  13.401 -0.5479  1.9875  1.8497
  180DOPC  C31522128   4.895   3.797  13.487 -0.0518 -0.7163  0.0110
  180DOPC  H15X22129   4.792   3.762  13.465  0.3059 -1.6053 -0.3390
  180DOPC  H15Y22130   4.900   3.907  13.503 -0.2915 -0.4307 -1.6496
  180DOPC  C31622131   4.936   3.731  13.620 -0.7491 -0.4153 -0.3927
  180DOPC  H16X22132   4.850   3.752  13.687 -1.4345 -2.4060 -0.5844
  180DOPC  H16Y22133   4.946   3.621  13.614 -0.8576 -0.3400 -2.8782
  180DOPC  C31722134   5.071   3.790  13.676  0.1047  0.2621  0.0117
  180DOPC  H17X22135   5.150   3.760  13.604 -0.3363  0.0355 -0.3821
  180DOPC  H17Y22136   5.076   3.901  13.685  2.3655  0.6325 -3.6728
  180DOPC  C31822137   5.103   3.725  13.809  0.3180 -0.3576 -0.4629
  180DOPC  H18X22138   5.037   3.749  13.895  0.3072  0.9950 -0.8292
  180DOPC  H18Y22139   5.101   3.614  13.801  2.0843 -0.3092 -2.4366
  180DOPC  H18Z22140   5.201   3.763  13.847  1.4288 -0.0853 -3.3672
  181DOPC     N22141   0.276   4.023  11.413  0.2090  0.2389  0.4663
  181DOPC   C1222142   0.301   4.162  11.467 -0.5264 -0.5148 -0.1367
  181DOPC  H12A22143   0.374   4.207  11.402 -1.2198 -0.8882 -1.2131
  181DOPC  H12B22144   0.366   4.147  11.552  1.8316  0.0806 -1.7580
  181DOPC   C1322145   0.176   3.953  11.499  0.8176 -0.5944  0.5875
  181DOPC  H13A22146   0.084   4.007  11.485  0.2901 -1.6873 -0.2601
  181DOPC  H13B22147   0.150   3.855  11.463  0.5619 -1.4902  3.0374
  181DOPC  H13C22148   0.211   3.955  11.602  1.1806 -3.7306  0.6259
  181DOPC   C1422149   0.399   3.941  11.414 -0.5732  0.0465  0.3822
  181DOPC  H14A22150   0.384   3.835  11.397  1.0056 -0.4418  1.8337
  181DOPC  H14B22151   0.468   3.965  11.335  0.3059 -1.5558  0.6399
  181DOPC  H14C22152   0.440   3.946  11.514  0.2929  0.0857  0.0317
  181DOPC   C1522153   0.228   4.025  11.271 -0.0016 -0.3686  0.4759
  181DOPC  H15A22154   0.215   3.923  11.238 -2.1198  0.3627 -1.2141
  181DOPC  H15B22155   0.287   4.079  11.197  0.9316 -2.0134 -0.0296
  181DOPC  H15C22156   0.134   4.077  11.270  0.9677  1.4770 -0.5064
  181DOPC   C1122157   0.184   4.253  11.499 -0.5489 -0.4919 -0.1946
  181DOPC  H11A22158   0.137   4.205  11.588  0.0331 -0.2135  0.2691
  181DOPC  H11B22159   0.228   4.349  11.531 -0.8020  0.3407 -2.1888
  181DOPC     P22160   0.136   4.387  11.284  0.2835 -0.1771 -0.1290
  181DOPC   O1322161   0.025   4.402  11.190  0.2228  0.0790  0.0378
  181DOPC   O1422162   0.271   4.370  11.224  0.6419 -0.2495 -0.4127
  181DOPC   O1222163   0.101   4.271  11.388 -0.9563  0.3070  0.2048
  181DOPC   O1122164   0.142   4.518  11.377  0.3742  0.7866 -0.5370
  181DOPC    C122165   0.027   4.586  11.412  0.3390  1.1045 -0.1767
  181DOPC    HA22166  -0.071   4.536  11.395 -0.4474  1.2059  3.3396
  181DOPC    HB22167   0.022   4.680  11.353 -0.3405  1.4260  0.3800
  181DOPC    C222168   0.045   4.636  11.555  0.1147  0.2671  0.0495
  181DOPC    HS22169   0.156   4.647  11.562 -0.0370  1.5435  0.7977
  181DOPC   O2122170  -0.000   4.527  11.636  0.0650 -0.4622 -0.1730
  181DOPC   C2122171   0.064   4.507  11.753 -0.1685 -0.4295 -0.4627
  181DOPC   O2222172   0.147   4.574  11.800 -0.5613  0.3877 -0.0053
  181DOPC   C2222173  -0.007   4.395  11.823  0.0808 -0.0022  0.1056
  181DOPC   H2R22174  -0.016   4.310  11.752 -4.9579  0.3793 -0.0366
  181DOPC   H2S22175  -0.111   4.430  11.839 -0.5668 -0.0947 -3.1965
  181DOPC    C322176  -0.020   4.771  11.597  0.3562  0.1477  0.7557
  181DOPC    HX22177  -0.128   4.748  11.594  0.2059  0.3774  2.7973
  181DOPC    HY22178   0.009   4.844  11.519  1.9358 -2.6987 -1.5224
  181DOPC   O3122179  -0.004   4.813  11.733  0.2838 -0.4087  0.2686
  181DOPC   C3122180   0.117   4.879  11.759  0.7206 -0.5480 -0.5484
  181DOPC   O3222181   0.203   4.897  11.678  0.2511 -0.2641  0.4539
  181DOPC   C3222182   0.115   4.912  11.910  0.0377  0.9585  0.0078
  181DOPC   H2X22183   0.103   4.816  11.963  0.0453  0.9351 -0.0326
  181DOPC   H2Y22184   0.214   4.954  11.939  1.6462 -1.4657 -1.6007
  181DOPC   C2322185   0.065   4.345  11.956  0.1031 -0.3664  0.2550
  181DOPC   H3R22186   0.168   4.310  11.930 -0.9343 -2.5600 -1.2741
  181DOPC   H3S22187   0.017   4.251  11.991  0.0188 -0.8671 -1.1265
  181DOPC   C2422188   0.062   4.449  12.067 -0.0633 -0.0412 -0.0188
  181DOPC   H4R22189  -0.042   4.449  12.106 -0.2692 -0.4501 -0.5485
  181DOPC   H4S22190   0.069   4.554  12.032 -0.4947  0.8795  2.4680
  181DOPC   C2522191   0.177   4.439  12.174  0.0064 -0.4390  0.5231
  181DOPC   H5R22192   0.178   4.532  12.234 -2.8865  0.7365 -1.0579
  181DOPC   H5S22193   0.275   4.427  12.123  1.2513  0.5972  2.5513
  181DOPC   C2622194   0.155   4.318  12.261  0.2606 -0.2519  0.1845
  181DOPC   H6R22195   0.151   4.225  12.201 -1.0799  0.9338 -1.6984
  181DOPC   H6S22196   0.049   4.319  12.297 -0.7667 -3.2865 -2.2543
  181DOPC   C2722197   0.260   4.304  12.373 -0.4807  0.0997 -0.6686
  181DOPC   H7R22198   0.350   4.361  12.343 -1.4831  0.7780 -2.5738
  181DOPC   H7S22199   0.278   4.195  12.381 -0.7459  0.1225  0.4334
  181DOPC   C2822200   0.203   4.357  12.504  0.2474  0.1689 -0.2928
  181DOPC   H8R22201   0.102   4.314  12.518  0.4224  0.0208  0.5466
  181DOPC   H8S22202   0.174   4.463  12.493 -2.3049 -0.5220 -0.9579
  181DOPC   C2922203   0.304   4.317  12.610  0.1444  0.1298 -0.9276
  181DOPC   H9R22204   0.394   4.380  12.617 -0.7942  1.3304  1.7482
  181DOPC  C21022205   0.287   4.223  12.706 -0.1786 -0.7272 -0.5691
  181DOPC  H10R22206   0.379   4.204  12.764  1.8255  2.8049 -2.2736
  181DOPC  C21122207   0.167   4.135  12.723 -0.8344  0.0279 -0.0738
  181DOPC  H11R22208   0.201   4.031  12.743  1.6301  0.6997 -0.5058
  181DOPC  H11S22209   0.110   4.141  12.628  1.2649  2.5877 -1.2892
  181DOPC  C21222210   0.088   4.184  12.842  0.3450  0.5618  0.1305
  181DOPC  H12R22211  -0.005   4.124  12.854 -0.1682  1.2178 -0.4607
  181DOPC  H12S22212   0.052   4.288  12.824 -0.1483  0.6852  1.6329
  181DOPC  C21322213   0.159   4.172  12.976 -0.3261  0.3491  0.5362
  181DOPC  H13R22214   0.253   4.230  12.965  0.7413 -1.3110  0.5674
  181DOPC  H13S22215   0.187   4.066  12.993  1.7880  0.4548 -1.6964
  181DOPC  C21422216   0.074   4.234  13.091  0.5466  0.7573  0.1027
  181DOPC  H14R22217  -0.013   4.167  13.106  0.2157  1.2602  0.4181
  181DOPC  H14S22218   0.042   4.335  13.059 -1.3165  0.5474  1.2016
  181DOPC  C21522219   0.154   4.233  13.220 -0.0204  0.1908 -0.5792
  181DOPC  H15R22220   0.247   4.293  13.208 -0.7306  1.4971  0.2155
  181DOPC  H15S22221   0.179   4.127  13.243  0.0155  0.5284  1.1322
  181DOPC  C21622222   0.079   4.297  13.341 -0.1506 -0.5540 -0.7077
  181DOPC  H16R22223  -0.003   4.365  13.309 -0.7929 -1.2923 -0.6758
  181DOPC  H16S22224   0.148   4.354  13.407 -0.5360  1.0618 -1.6393
  181DOPC  C21722225   0.002   4.191  13.418 -0.3917  0.1562  0.5034
  181DOPC  H17R22226   0.082   4.125  13.457 -0.1224  0.6307  0.7662
  181DOPC  H17S22227  -0.065   4.138  13.347  0.2199 -0.4635  0.3743
  181DOPC  C21822228  -0.078   4.244  13.531 -0.0201  0.4655  0.9099
  181DOPC  H18R22229  -0.138   4.325  13.484  0.4081 -0.6979 -1.8674
  181DOPC  H18S22230  -0.007   4.298  13.598 -0.5357 -1.3069  3.0056
  181DOPC  H18T22231  -0.134   4.163  13.581 -0.0836  0.2426  0.4823
  181DOPC   C3322232  -0.010   5.000  11.949 -0.1294  0.2617  0.7121
  181DOPC   H3X22233  -0.097   4.931  11.936  1.0481 -1.0459 -0.8004
  181DOPC   H3Y22234  -0.046   5.073  11.873 -0.0533 -1.5618 -1.1789
  181DOPC   C3422235   0.009   5.061  12.087  0.5688 -0.6233 -0.1090
  181DOPC   H4X22236   0.113   5.100  12.092  0.3855 -0.2096  0.8344
  181DOPC   H4Y22237   0.002   4.982  12.164 -2.9120 -0.0704  0.3015
  181DOPC   C3522238  -0.094   5.172  12.120  0.0215  0.4183  0.6781
  181DOPC   H5X22239  -0.182   5.108  12.142  0.4973 -1.1171 -1.5175
  181DOPC   H5Y22240  -0.116   5.223  12.024  1.7864  0.4025  0.2297
  181DOPC   C3622241  -0.051   5.273  12.224 -0.1969 -0.2468 -0.2247
  181DOPC   H6X22242   0.049   5.317  12.205 -0.3887 -0.0441 -0.7882
  181DOPC   H6Y22243  -0.121   5.359  12.231 -0.2839 -0.3948  1.0837
  181DOPC   C3722244  -0.058   5.211  12.365 -0.1728  0.8750 -0.1798
  181DOPC   H7X22245  -0.166   5.198  12.382 -0.3697  2.0305 -0.4263
  181DOPC   H7Y22246  -0.021   5.106  12.362 -4.2770 -0.7251 -0.5489
  181DOPC   C3822247   0.004   5.306  12.470 -0.1020  0.2132  0.4229
  181DOPC   H8X22248  -0.028   5.263  12.567  0.1647 -0.8052  0.0706
  181DOPC   H8Y22249  -0.051   5.402  12.468  0.5543  0.5903  0.3492
  181DOPC   C3922250   0.150   5.318  12.470  0.3686  0.3894 -0.1668
  181DOPC   H9X22251   0.186   5.394  12.399 -0.0884 -0.0289 -0.8628
  181DOPC  C31022252   0.242   5.261  12.544  0.7454 -0.0695  0.1640
  181DOPC  H10X22253   0.345   5.299  12.541  0.5095  1.4631  4.6043
  181DOPC  C31122254   0.227   5.152  12.650  0.4649 -1.3599  0.4491
  181DOPC  H11X22255   0.294   5.066  12.630  1.9258  0.0350 -1.0018
  181DOPC  H11Y22256   0.120   5.120  12.656 -0.5782  1.0488 -2.4893
  181DOPC  C31222257   0.262   5.216  12.787 -0.3399  0.1160 -0.0127
  181DOPC  H12X22258   0.199   5.304  12.813  0.5250  0.9968 -0.7923
  181DOPC  H12Y22259   0.370   5.245  12.793 -0.3536 -0.0773  1.3718
  181DOPC  C31322260   0.255   5.108  12.894  0.4196 -0.4297 -0.1523
  181DOPC  H13X22261   0.149   5.078  12.907  0.3710  0.0547  0.6214
  181DOPC  H13Y22262   0.314   5.020  12.859  3.1625  0.5299  1.7194
  181DOPC  C31422263   0.322   5.155  13.027 -0.0917  0.1082  0.4928
  181DOPC  H14X22264   0.300   5.258  13.063  1.2801  0.4794  0.3136
  181DOPC  H14Y22265   0.291   5.076  13.099 -0.1358 -0.8622 -0.5649
  181DOPC  C31522266   0.471   5.148  13.022 -0.1798 -0.5468  0.5373
  181DOPC  H15X22267   0.511   5.241  12.976  2.1111 -1.3576  0.8079
  181DOPC  H15Y22268   0.496   5.068  12.951  0.2097  0.4802 -0.5157
  181DOPC  C31622269   0.523   5.112  13.161 -0.2147 -0.5660 -0.0957
  181DOPC  H16X22270   0.476   5.187  13.228  0.4500 -0.5520  0.3755
  181DOPC  H16Y22271   0.491   5.007  13.178 -3.0170  0.2096 -0.1505
  181DOPC  C31722272   0.679   5.121  13.174  0.7333 -0.5289  0.0220
  181DOPC  H17X22273   0.720   5.054  13.096  0.0850 -0.2294 -0.5861
  181DOPC  H17Y22274   0.706   5.228  13.160  0.0314 -0.4391 -0.6576
  181DOPC  C31822275   0.732   5.079  13.315  0.1047 -0.2360  0.8286
  181DOPC  H18X22276   0.841   5.089  13.330  0.4614  1.4771 -2.2943
  181DOPC  H18Y22277   0.676   5.131  13.396 -1.1937 -1.9763  1.1077
  181DOPC  H18Z22278   0.710   4.970  13.323 -0.3016 -0.0835  2.0177
  182DOPC     N22279   0.259   2.511  10.881  0.1535  0.2392 -0.3667
  182DOPC   C1222280   0.248   2.599  10.997  0.2129  0.4322 -0.1392
  182DOPC  H12A22281   0.157   2.658  10.994  0.2814  0.5315 -0.2469
  182DOPC  H12B22282   0.331   2.668  10.993  0.5650 -0.0303 -0.8643
  182DOPC   C1322283   0.237   2.590  10.754 -0.0587 -0.2214 -0.0209
  182DOPC  H13A22284   0.333   2.638  10.737  0.1375 -0.6343 -0.0971
  182DOPC  H13B22285   0.224   2.522  10.671 -0.0146 -0.7935  0.4382
  182DOPC  H13C22286   0.154   2.659  10.759 -1.6700 -1.9073 -1.8151
  182DOPC   C1422287   0.145   2.404  10.886  0.4834 -0.0849 -0.0892
  182DOPC  H14A22288   0.046   2.445  10.899  0.2216 -0.6330 -0.3418
  182DOPC  H14B22289   0.165   2.340  10.801  0.7718  0.4780 -0.4545
  182DOPC  H14C22290   0.156   2.347  10.977  1.5560  0.7543  0.3394
  182DOPC   C1522291   0.387   2.442  10.880  0.0594 -0.7212  0.2408
  182DOPC  H15A22292   0.404   2.396  10.977 -0.3197  0.6657  1.0012
  182DOPC  H15B22293   0.464   2.516  10.868  1.0067 -1.7592 -0.1967
  182DOPC  H15C22294   0.391   2.370  10.800 -1.1035 -0.5862  0.0419
  182DOPC   C1122295   0.249   2.543  11.141  0.6253 -0.1009 -0.5215
  182DOPC  H11A22296   0.215   2.621  11.212  0.1147  0.8121 -1.7397
  182DOPC  H11B22297   0.170   2.466  11.149 -0.1188  0.7336  0.4526
  182DOPC     P22298   0.480   2.592  11.227 -0.1400  0.1001 -0.6040
  182DOPC   O1322299   0.457   2.726  11.169 -0.1474 -0.1700  0.1217
  182DOPC   O1422300   0.615   2.539  11.212  0.1038 -0.5079  0.2881
  182DOPC   O1222301   0.371   2.489  11.174  0.0580 -0.0438 -0.1498
  182DOPC   O1122302   0.462   2.612  11.381  0.0875 -0.4542  0.2577
  182DOPC    C122303   0.467   2.494  11.459 -0.1413  0.1157  0.8966
  182DOPC    HA22304   0.511   2.519  11.558 -0.5680  1.3337  0.7919
  182DOPC    HB22305   0.530   2.414  11.414  0.0637  1.0766 -0.5992
  182DOPC    C222306   0.326   2.439  11.505 -0.3408 -0.3062 -0.1943
  182DOPC    HS22307   0.260   2.436  11.415  0.0220 -0.1069 -0.4704
  182DOPC   O2122308   0.275   2.536  11.604 -0.0513 -0.2920 -0.0810
  182DOPC   C2122309   0.152   2.509  11.631  0.8454 -0.5280  0.0162
  182DOPC   O2222310   0.081   2.429  11.570  0.0548  0.1433 -0.2585
  182DOPC   C2222311   0.112   2.589  11.755  0.2334 -0.0609  0.0841
  182DOPC   H2R22312   0.001   2.585  11.754  0.1945  0.7573  0.8112
  182DOPC   H2S22313   0.144   2.695  11.756 -0.1444  0.0495  0.8626
  182DOPC    C322314   0.340   2.292  11.561  0.0771 -1.0664 -0.0658
  182DOPC    HX22315   0.388   2.242  11.473  1.5589  2.6564 -1.5828
  182DOPC    HY22316   0.242   2.241  11.571 -0.1843 -1.2191 -2.6530
  182DOPC   O3122317   0.425   2.294  11.674 -0.6251 -0.1075 -0.0543
  182DOPC   C3122318   0.396   2.192  11.758  0.2091 -0.2548  0.4691
  182DOPC   O3222319   0.333   2.095  11.720 -0.1099  0.2797  0.4094
  182DOPC   C3222320   0.438   2.232  11.891  0.0659 -0.0795 -0.0091
  182DOPC   H2X22321   0.542   2.200  11.910 -0.2173 -0.0327  1.8453
  182DOPC   H2Y22322   0.447   2.340  11.911 -1.1689  0.2093 -0.8638
  182DOPC   C2322323   0.178   2.522  11.879  0.0870  0.9372  0.3291
  182DOPC   H3R22324   0.289   2.522  11.887  0.2483 -2.2581 -0.5676
  182DOPC   H3S22325   0.164   2.412  11.872  2.2583  0.6456 -0.0682
  182DOPC   C2422326   0.118   2.589  12.001 -0.5013 -0.3947  0.0846
  182DOPC   H4R22327   0.008   2.586  11.986 -0.7755 -1.1830  1.9501
  182DOPC   H4S22328   0.157   2.693  12.011  0.0578 -0.6408  0.5390
  182DOPC   C2522329   0.157   2.504  12.132  0.9296  0.7112 -0.5717
  182DOPC   H5R22330   0.265   2.477  12.137  1.6544  2.9942 -2.1541
  182DOPC   H5S22331   0.112   2.405  12.111  0.3414  0.6112  1.0219
  182DOPC   C2622332   0.105   2.545  12.268  0.3176  0.6653  0.3158
  182DOPC   H6R22333  -0.006   2.556  12.271  0.1526 -0.7357 -0.0544
  182DOPC   H6S22334   0.144   2.647  12.290  0.6920  0.7564 -0.7222
  182DOPC   C2722335   0.136   2.446  12.378  0.1872  0.1035 -0.1813
  182DOPC   H7R22336   0.245   2.436  12.401  0.0230  0.4624  0.8226
  182DOPC   H7S22337   0.100   2.348  12.340  0.8057 -0.4474  0.6091
  182DOPC   C2822338   0.052   2.472  12.508 -0.2916  0.2711  0.8354
  182DOPC   H8R22339  -0.055   2.486  12.484 -0.2390 -0.4068  0.2022
  182DOPC   H8S22340   0.097   2.567  12.546  3.0711 -1.2247  1.0083
  182DOPC   C2922341   0.063   2.363  12.606 -0.0438 -1.0379 -0.2303
  182DOPC   H9R22342   0.047   2.263  12.564  0.7600 -1.0370 -0.5564
  182DOPC  C21022343   0.087   2.364  12.736  0.4275 -0.7418 -0.2060
  182DOPC  H10R22344   0.089   2.267  12.787  0.2877 -0.2999  0.6716
  182DOPC  C21122345   0.112   2.490  12.818  0.1719 -0.3391  0.1123
  182DOPC  H11R22346   0.021   2.550  12.840  0.1330 -0.6183  0.7318
  182DOPC  H11S22347   0.186   2.559  12.770  0.0841 -2.0552 -2.7002
  182DOPC  C21222348   0.181   2.438  12.946 -0.4310  0.2906 -0.0394
  182DOPC  H12R22349   0.216   2.530  12.997 -1.4672  0.6372  0.0593
  182DOPC  H12S22350   0.266   2.368  12.928 -0.0781  0.5284  0.6714
  182DOPC  C21322351   0.096   2.358  13.043 -1.2434 -0.2618  1.0604
  182DOPC  H13R22352   0.057   2.259  13.011 -4.1012  1.5526 -1.6213
  182DOPC  H13S22353   0.013   2.430  13.061  0.6033  1.9812  1.0060
  182DOPC  C21422354   0.171   2.327  13.172 -0.2217 -0.0974  0.3476
  182DOPC  H14R22355   0.222   2.409  13.226  0.4922  1.0347 -1.8923
  182DOPC  H14S22356   0.230   2.235  13.152 -1.7406 -0.8372 -1.0146
  182DOPC  C21522357   0.058   2.273  13.264  0.0542  0.4248 -0.3901
  182DOPC  H15R22358   0.096   2.200  13.339 -0.6569 -0.4935 -0.9021
  182DOPC  H15S22359  -0.013   2.211  13.206 -0.6094  0.3674  0.4521
  182DOPC  C21622360   0.001   2.391  13.345 -1.2079  0.0494  0.7177
  182DOPC  H16R22361  -0.019   2.471  13.270 -1.7571 -1.0897 -0.3947
  182DOPC  H16S22362   0.080   2.423  13.416  0.9702 -1.1491 -1.0301
  182DOPC  C21722363  -0.122   2.360  13.422  0.6780  0.1189  0.5163
  182DOPC  H17R22364  -0.202   2.330  13.351 -0.1005  0.6765  1.1391
  182DOPC  H17S22365  -0.149   2.459  13.465 -1.7522 -0.1203 -0.2787
  182DOPC  C21822366  -0.134   2.253  13.528  0.0448 -0.0156  0.4280
  182DOPC  H18R22367  -0.059   2.251  13.609  1.3516 -1.2349 -0.7528
  182DOPC  H18S22368  -0.157   2.155  13.481 -0.1771  0.8483 -1.3400
  182DOPC  H18T22369  -0.226   2.270  13.588 -1.4163  2.7372 -2.2888
  182DOPC   C3322370   0.359   2.167  12.006  0.7820 -0.0375 -0.0596
  182DOPC   H3X22371   0.342   2.061  11.977  1.2440  0.0883 -0.8295
  182DOPC   H3Y22372   0.257   2.212  12.004  1.1182  0.7645 -2.5705
  182DOPC   C3422373   0.426   2.169  12.153 -0.4659  0.9312 -0.2825
  182DOPC   H4X22374   0.420   2.271  12.197  1.6304  0.5240  1.0583
  182DOPC   H4Y22375   0.534   2.143  12.151 -0.7088 -0.0750 -1.4740
  182DOPC   C3522376   0.347   2.066  12.239  0.1453 -0.0668 -0.1823
  182DOPC   H5X22377   0.357   1.970  12.184 -0.2227 -1.0362  1.3648
  182DOPC   H5Y22378   0.237   2.081  12.228  0.2628  0.3995 -0.7178
  182DOPC   C3622379   0.396   2.029  12.380  0.2775  0.0283  0.4899
  182DOPC   H6X22380   0.359   1.930  12.416 -2.1096  0.5108 -0.4619
  182DOPC   H6Y22381   0.507   2.025  12.374  0.2682  0.9815 -1.0683
  182DOPC   C3722382   0.371   2.145  12.478 -0.0976 -0.1157 -0.1632
  182DOPC   H7X22383   0.445   2.221  12.444 -0.7133  0.9045  0.7003
  182DOPC   H7Y22384   0.274   2.199  12.466 -0.2138 -0.5371 -1.2455
  182DOPC   C3822385   0.383   2.107  12.622 -0.0412 -0.1741 -0.1393
  182DOPC   H8X22386   0.381   2.200  12.683 -0.7515 -0.6830  0.6451
  182DOPC   H8Y22387   0.478   2.055  12.648  0.2280  0.4104  0.0581
  182DOPC   C3922388   0.276   2.017  12.666 -0.0345  0.0713 -0.3133
  182DOPC   H9X22389   0.220   1.968  12.585  1.8897 -0.2318 -1.5290
  182DOPC  C31022390   0.234   1.979  12.787  0.0547 -0.1618  0.0241
  182DOPC  H10X22391   0.165   1.894  12.797 -1.4783  1.1109  0.5830
  182DOPC  C31122392   0.301   2.020  12.907  0.0626  0.2050 -0.6150
  182DOPC  H11X22393   0.234   1.996  12.993 -0.7323  0.9573 -1.0081
  182DOPC  H11Y22394   0.313   2.130  12.922 -0.9245 -0.0338  2.6871
  182DOPC  C31222395   0.448   1.972  12.937  1.0489  0.5184 -0.0324
  182DOPC  H12X22396   0.501   2.005  12.846 -1.7604  2.9850 -0.9310
  182DOPC  H12Y22397   0.457   1.862  12.949  1.8848  0.6426  0.5199
  182DOPC  C31322398   0.509   2.038  13.063 -0.3766  0.1370 -0.4477
  182DOPC  H13X22399   0.620   2.044  13.050 -0.1982  0.1879  0.9809
  182DOPC  H13Y22400   0.474   2.143  13.067  0.2681  0.3169  1.1286
  182DOPC  C31422401   0.498   1.966  13.202 -0.3058 -0.2287 -0.2959
  182DOPC  H14X22402   0.398   1.917  13.205  0.9200 -2.8537  0.6527
  182DOPC  H14Y22403   0.564   1.877  13.200 -0.4684 -0.3880  0.8139
  182DOPC  C31522404   0.525   2.057  13.327  0.1293 -0.0044  0.0076
  182DOPC  H15X22405   0.441   2.127  13.339  0.3002  0.4176 -1.1332
  182DOPC  H15Y22406   0.622   2.106  13.305  1.4472 -1.5593  1.9181
  182DOPC  C31622407   0.563   1.979  13.458 -0.6240 -0.5957  0.3898
  182DOPC  H16X22408   0.470   1.946  13.509 -1.5394  0.9428 -0.2070
  182DOPC  H16Y22409   0.631   1.895  13.431 -1.6653 -1.7869  1.3355
  182DOPC  C31722410   0.632   2.065  13.563 -0.6557 -0.6525 -0.5551
  182DOPC  H17X22411   0.725   2.107  13.519  1.9996 -3.0255  2.3252
  182DOPC  H17Y22412   0.566   2.148  13.596  1.5223  1.2853 -0.8000
  182DOPC  C31822413   0.684   1.985  13.687  0.6275  0.6530  0.1822
  182DOPC  H18X22414   0.604   1.932  13.744  0.2109  0.0660 -0.9233
  182DOPC  H18Y22415   0.759   1.909  13.658  0.5491  0.5173  0.3321
  182DOPC  H18Z22416   0.729   2.056  13.759  0.2539 -0.7695  1.9069
  183DOPC     N22417   4.684   5.581  10.983  0.2792  0.3596 -0.0046
  183DOPC   C1222418   4.637   5.551  11.127 -0.5781 -0.2050 -0.2533
  183DOPC  H12A22419   4.557   5.617  11.154 -0.8380 -0.7221  0.2504
  183DOPC  H12B22420   4.720   5.568  11.195 -0.6185 -1.4649  0.1341
  183DOPC   C1322421   4.580   5.548  10.882 -0.0372 -0.3132 -0.4327
  183DOPC  H13A22422   4.567   5.441  10.892 -1.2948 -0.1613 -0.2256
  183DOPC  H13B22423   4.485   5.599  10.891 -1.0061 -2.0290 -0.4642
  183DOPC  H13C22424   4.616   5.564  10.782  1.6382 -1.3038 -0.0205
  183DOPC   C1422425   4.813   5.507  10.946 -0.2723  0.4145 -0.2060
  183DOPC  H14A22426   4.803   5.405  10.982  2.8131 -0.0396 -0.3077
  183DOPC  H14B22427   4.838   5.500  10.841  0.2673  0.8742 -0.1155
  183DOPC  H14C22428   4.904   5.551  10.985  0.3018 -1.2022  0.3878
  183DOPC   C1522429   4.697   5.730  10.963  0.5266  0.3934 -0.1002
  183DOPC  H15A22430   4.596   5.768  10.971 -0.3831 -1.6804 -0.9161
  183DOPC  H15B22431   4.734   5.746  10.863 -1.5628  1.7059 -0.7417
  183DOPC  H15C22432   4.748   5.781  11.043  1.1123  2.3620 -1.6485
  183DOPC   C1122433   4.577   5.410  11.155 -0.1049 -0.7294  0.0682
  183DOPC  H11A22434   4.526   5.411  11.253  3.1148 -0.8410  1.8915
  183DOPC  H11B22435   4.495   5.382  11.085 -1.0015 -0.4559  0.9965
  183DOPC     P22436   4.662   5.173  11.097 -0.0046  0.0384  0.1029
  183DOPC   O1322437   4.688   5.172  10.949 -0.1244 -0.4011  0.2746
  183DOPC   O1422438   4.533   5.124  11.145 -0.0777  0.0418 -0.3888
  183DOPC   O1222439   4.689   5.322  11.145  0.0303 -0.0365 -0.1110
  183DOPC   O1122440   4.776   5.086  11.151  0.4321  0.1243 -0.2958
  183DOPC    C122441   4.910   5.128  11.185  0.3998 -0.0909  0.0839
  183DOPC    HA22442   4.944   5.216  11.126  1.0501  0.3446  1.0910
  183DOPC    HB22443   4.972   5.040  11.157 -2.1407 -1.1965 -2.6140
  183DOPC    C222444   4.948   5.165  11.328 -0.5546 -0.7112  0.3074
  183DOPC    HS22445   5.055   5.194  11.317 -0.4951 -1.6065 -2.2166
  183DOPC   O2122446   4.927   5.061  11.417 -0.0009  0.2160 -0.0251
  183DOPC   C2122447   5.029   4.998  11.469 -0.5321  0.1486  0.0185
  183DOPC   O2222448   5.146   5.015  11.442  0.1467 -0.0746 -0.1464
  183DOPC   C2222449   4.982   4.911  11.583 -0.0263  0.3655 -0.2937
  183DOPC   H2R22450   5.026   4.809  11.576 -0.3532  0.2280 -0.3601
  183DOPC   H2S22451   4.872   4.896  11.580  0.1474 -1.0988 -0.0517
  183DOPC    C322452   4.878   5.297  11.372  0.5429  0.0514 -0.5718
  183DOPC    HX22453   4.768   5.284  11.360  0.9033 -1.0421 -3.5187
  183DOPC    HY22454   4.907   5.372  11.295 -0.6360 -0.3387 -1.4278
  183DOPC   O3122455   4.909   5.339  11.510 -0.2553 -0.1959 -0.3147
  183DOPC   C3122456   4.928   5.469  11.543  0.6439  0.4205  0.8761
  183DOPC   O3222457   4.926   5.558  11.460 -0.2306  0.4594 -0.2436
  183DOPC   C3222458   4.931   5.495  11.691  0.3047 -0.0308  0.0079
  183DOPC   H2X22459   4.975   5.596  11.702  1.2419 -0.3184 -0.9093
  183DOPC   H2Y22460   4.824   5.506  11.717  0.7575  1.4862  1.4125
  183DOPC   C2322461   5.026   4.966  11.722  0.2538 -1.1419 -0.8984
  183DOPC   H3R22462   4.966   5.056  11.746  1.2194 -0.1900 -1.9264
  183DOPC   H3S22463   5.130   5.004  11.713 -0.0706  1.0398  2.6818
  183DOPC   C2422464   5.007   4.868  11.839 -0.1806 -0.0008 -0.4267
  183DOPC   H4R22465   5.063   4.779  11.803 -0.3652 -0.3609  0.1565
  183DOPC   H4S22466   4.903   4.837  11.862  0.5215 -2.5617 -0.3347
  183DOPC   C2522467   5.070   4.920  11.971  0.4011  0.0626  0.6451
  183DOPC   H5R22468   5.038   5.024  11.991  0.7583  0.9088 -2.6431
  183DOPC   H5S22469   5.176   4.935  11.940  1.5378  0.6408  4.2778
  183DOPC   C2622470   5.060   4.824  12.084  0.3782  0.1140 -0.7181
  183DOPC   H6R22471   5.116   4.731  12.059  2.8994  1.6463 -1.1175
  183DOPC   H6S22472   4.957   4.788  12.104  0.4454  0.8437  1.1146
  183DOPC   C2722473   5.116   4.873  12.216 -0.5207 -0.0554  0.3816
  183DOPC   H7R22474   5.053   4.958  12.249 -2.2301 -0.0970 -2.4590
  183DOPC   H7S22475   5.218   4.916  12.203 -0.2899 -0.0664  1.9812
  183DOPC   C2822476   5.133   4.764  12.319 -0.0314 -0.0145  0.2846
  183DOPC   H8R22477   5.177   4.672  12.273  0.7915 -0.0308  1.0818
  183DOPC   H8S22478   5.033   4.721  12.340 -0.1759 -0.5326 -1.2712
  183DOPC   C2922479   5.192   4.797  12.451  0.0263 -0.2298 -0.3887
  183DOPC   H9R22480   5.302   4.785  12.447  0.1806  1.1794 -0.7247
  183DOPC  C21022481   5.135   4.833  12.567  0.3148 -0.5668 -0.0602
  183DOPC  H10R22482   5.189   4.842  12.662 -0.7527  1.9619  0.4039
  183DOPC  C21122483   4.990   4.853  12.582  0.8048  0.3810  0.0310
  183DOPC  H11R22484   4.930   4.863  12.489 -2.6152  0.1508  2.0359
  183DOPC  H11S22485   4.970   4.944  12.643 -0.4894  0.1233  0.0129
  183DOPC  C21222486   4.916   4.742  12.660  0.0722  0.0113  0.1752
  183DOPC  H12R22487   4.941   4.640  12.625 -2.8937 -1.3672  1.6645
  183DOPC  H12S22488   4.806   4.757  12.658  0.0345 -0.2227 -1.9713
  183DOPC  C21322489   4.965   4.748  12.807  0.6278 -0.4239 -0.5675
  183DOPC  H13R22490   4.952   4.850  12.849 -2.3382 -1.4019  1.1954
  183DOPC  H13S22491   5.074   4.727  12.820  0.3038 -1.4423  0.8451
  183DOPC  C21422492   4.889   4.652  12.911 -0.9089 -0.4379  0.5393
  183DOPC  H14R22493   4.921   4.550  12.880  1.9916  0.3705  0.5014
  183DOPC  H14S22494   4.782   4.656  12.885 -0.7262  0.3427 -0.1493
  183DOPC  C21522495   4.918   4.701  13.048 -0.1116 -0.1880 -0.1684
  183DOPC  H15R22496   4.859   4.795  13.050  0.5107  0.4267 -3.7929
  183DOPC  H15S22497   5.023   4.728  13.071 -0.1511 -0.1128 -0.0787
  183DOPC  C21622498   4.868   4.596  13.147  0.0185 -0.4030  0.7432
  183DOPC  H16R22499   4.900   4.493  13.120 -0.5970  0.1565 -2.5067
  183DOPC  H16S22500   4.757   4.602  13.152  0.0189 -0.5315  0.9534
  183DOPC  C21722501   4.910   4.616  13.298 -0.2463  0.0233  0.2675
  183DOPC  H17R22502   4.868   4.711  13.338  0.2594  0.5762 -0.4942
  183DOPC  H17S22503   5.019   4.631  13.309  0.4977 -4.6346  1.1925
  183DOPC  C21822504   4.867   4.486  13.381  0.3516 -0.2821  0.3515
  183DOPC  H18R22505   4.894   4.489  13.488 -0.9302 -0.3455  0.6905
  183DOPC  H18S22506   4.909   4.400  13.324  0.2225  0.0895 -0.3218
  183DOPC  H18T22507   4.757   4.474  13.377  0.1855  0.7813  1.5186
  183DOPC   C3322508   5.018   5.403  11.786  0.3558  0.4372 -1.2324
  183DOPC   H3X22509   5.126   5.421  11.765  0.1992 -0.1428 -2.6781
  183DOPC   H3Y22510   4.987   5.299  11.761  0.1256  0.1927 -0.0024
  183DOPC   C3422511   4.987   5.426  11.936 -0.2856  0.1792  0.6982
  183DOPC   H4X22512   5.018   5.342  12.002 -0.1613  0.0768  0.5114
  183DOPC   H4Y22513   4.876   5.427  11.929 -0.2390 -0.2395 -0.3989
  183DOPC   C3522514   5.044   5.550  11.994  0.1382  0.1625  0.4827
  183DOPC   H5X22515   5.022   5.635  11.927  0.4385 -1.3700 -1.6731
  183DOPC   H5Y22516   5.154   5.537  12.007  0.0362 -0.8949  0.4185
  183DOPC   C3622517   4.996   5.560  12.141 -0.0673 -0.8658 -0.3717
  183DOPC   H6X22518   4.888   5.586  12.146  0.3252  0.9397 -0.5336
  183DOPC   H6Y22519   5.032   5.467  12.189  2.4042  0.5945  0.8367
  183DOPC   C3722520   5.080   5.668  12.214  0.2702  0.1083 -0.6998
  183DOPC   H7X22521   5.188   5.666  12.189  0.9405 -2.0630  1.9433
  183DOPC   H7Y22522   5.036   5.767  12.188 -2.1844 -0.5875  0.4680
  183DOPC   C3822523   5.076   5.666  12.370  0.7393 -0.2218  0.1350
  183DOPC   H8X22524   5.094   5.560  12.400  1.4835  0.1701  1.1540
  183DOPC   H8Y22525   4.975   5.696  12.405  1.2590  0.0467  1.4822
  183DOPC   C3922526   5.177   5.761  12.431 -0.1614  0.6094 -0.3975
  183DOPC   H9X22527   5.156   5.868  12.441 -3.0593  0.3301 -2.2146
  183DOPC  C31022528   5.294   5.723  12.482 -0.1743 -0.1610  0.7902
  183DOPC  H10X22529   5.361   5.799  12.525 -1.5146  2.3458 -1.2074
  183DOPC  C31122530   5.350   5.586  12.472 -0.0525 -0.0548 -0.0209
  183DOPC  H11X22531   5.292   5.509  12.417  1.8206 -1.1751 -0.5022
  183DOPC  H11Y22532   5.355   5.544  12.575 -2.1650  0.4189  0.3327
  183DOPC  C31222533   5.486   5.582  12.405  0.3879 -0.6306 -0.1529
  183DOPC  H12X22534   5.479   5.620  12.301 -2.0642 -0.3845  0.0598
  183DOPC  H12Y22535   5.512   5.475  12.394  0.7223 -0.5557 -0.1299
  183DOPC  C31322536   5.602   5.652  12.485  0.4122  0.1112 -0.0778
  183DOPC  H13X22537   5.695   5.638  12.427  0.2783  1.0581 -0.5239
  183DOPC  H13Y22538   5.569   5.758  12.483 -1.5415 -0.3859  1.3407
  183DOPC  C31422539   5.637   5.590  12.628 -0.1060  0.1678 -0.4165
  183DOPC  H14X22540   5.575   5.638  12.707  1.1931  0.4233  0.4883
  183DOPC  H14Y22541   5.610   5.482  12.629 -0.9302  0.3413 -1.7479
  183DOPC  C31522542   5.789   5.608  12.657  0.0519 -0.0917  0.3707
  183DOPC  H15X22543   5.812   5.714  12.682 -2.3858  0.1981  1.6665
  183DOPC  H15Y22544   5.848   5.587  12.565 -0.8618  1.4057 -0.6236
  183DOPC  C31622545   5.831   5.516  12.775 -0.8135  0.9655  0.2713
  183DOPC  H16X22546   5.815   5.408  12.757 -0.6989  0.8108  1.0756
  183DOPC  H16Y22547   5.941   5.528  12.781 -0.8836  1.1939  1.3324
  183DOPC  C31722548   5.769   5.543  12.914  0.2628  0.0620  0.0040
  183DOPC  H17X22549   5.776   5.653  12.927  1.4186  0.1476 -1.1548
  183DOPC  H17Y22550   5.661   5.515  12.906  0.4799 -0.5327 -1.1433
  183DOPC  C31822551   5.855   5.469  13.023 -0.1081 -0.3355  0.5454
  183DOPC  H18X22552   5.962   5.481  12.994  0.0649 -0.8994  0.9191
  183DOPC  H18Y22553   5.834   5.514  13.122 -0.9997  0.4203  0.0321
  183DOPC  H18Z22554   5.839   5.359  13.019 -0.7874 -0.2236  0.1616
  184DOPC     N22555   2.549   2.156  10.852  0.0981  0.3184  0.1275
  184DOPC   C1222556   2.485   2.158  10.988 -0.2446  0.0327  0.0458
  184DOPC  H12A22557   2.544   2.221  11.052  0.6180 -0.3612 -0.3466
  184DOPC  H12B22558   2.474   2.060  11.032 -0.1976 -0.3146 -0.6890
  184DOPC   C1322559   2.471   2.072  10.760  0.2847 -1.0689  0.2094
  184DOPC  H13A22560   2.440   1.979  10.806  1.8976 -1.9332 -0.3814
  184DOPC  H13B22561   2.383   2.128  10.731  1.6444  0.2834 -1.4666
  184DOPC  H13C22562   2.527   2.052  10.671  2.1647 -0.8418  1.2856
  184DOPC   C1422563   2.675   2.082  10.859 -0.3422 -1.0434 -0.2082
  184DOPC  H14A22564   2.742   2.114  10.937 -0.8304 -2.3409  0.7696
  184DOPC  H14B22565   2.669   1.981  10.895  0.8140  0.2726  4.2387
  184DOPC  H14C22566   2.738   2.085  10.771  0.3124 -1.7662  0.2178
  184DOPC   C1522567   2.566   2.288  10.787  0.1418  1.0317 -0.2379
  184DOPC  H15A22568   2.604   2.369  10.848  0.4063  1.6866 -1.2447
  184DOPC  H15B22569   2.468   2.327  10.763 -0.7413 -0.8394  0.0889
  184DOPC  H15C22570   2.637   2.276  10.708  2.6041 -0.1719  2.0008
  184DOPC   C1122571   2.349   2.225  10.989  0.7751  0.0212 -0.4776
  184DOPC  H11A22572   2.311   2.247  11.091  0.2421 -1.1291 -0.4087
  184DOPC  H11B22573   2.357   2.330  10.954  1.3055 -0.7440 -2.7813
  184DOPC     P22574   2.164   2.035  10.959  0.1423 -0.2044 -0.3281
  184DOPC   O1322575   2.256   1.914  10.961 -0.0101 -0.0300 -0.2640
  184DOPC   O1422576   2.034   2.023  10.893 -0.5183 -0.0239  0.2606
  184DOPC   O1222577   2.250   2.158  10.912 -0.2875 -0.0478 -0.3101
  184DOPC   O1122578   2.133   2.079  11.106  0.3717 -0.3364 -0.1916
  184DOPC    C122579   2.206   2.014  11.213 -0.7013 -0.3427  0.0901
  184DOPC    HA22580   2.189   2.062  11.312 -2.7800 -3.9299  1.6842
  184DOPC    HB22581   2.316   2.019  11.203 -0.8717  0.9622 -1.6855
  184DOPC    C222582   2.133   1.881  11.259 -0.9229  0.1375  0.0960
  184DOPC    HS22583   2.147   1.824  11.165  0.3057  1.1453 -0.3794
  184DOPC   O2122584   2.006   1.922  11.301 -0.1316 -0.3875  0.2991
  184DOPC   C2122585   1.909   1.850  11.262  0.2004 -0.2961  0.0993
  184DOPC   O2222586   1.916   1.745  11.194 -0.4929  0.5125 -0.5907
  184DOPC   C2222587   1.772   1.910  11.300 -0.7227  0.1927  0.5565
  184DOPC   H2R22588   1.705   1.910  11.212 -1.7658 -0.4787  1.3136
  184DOPC   H2S22589   1.780   2.018  11.323  2.5354  0.1437  0.0569
  184DOPC    C322590   2.217   1.811  11.377  0.8637 -0.3311 -0.1315
  184DOPC    HX22591   2.315   1.773  11.340  1.5455 -0.9907  2.1385
  184DOPC    HY22592   2.145   1.730  11.403 -2.4593  0.8407 -4.6123
  184DOPC   O3122593   2.234   1.901  11.486  0.3652 -0.1246 -0.3835
  184DOPC   C3122594   2.350   1.955  11.508 -0.4690  0.2239 -0.9497
  184DOPC   O3222595   2.446   1.947  11.430 -0.2095  0.4805  0.3042
  184DOPC   C3222596   2.350   2.023  11.650 -0.6036  0.2726  0.2597
  184DOPC   H2X22597   2.320   2.129  11.634 -0.4134  0.2542 -0.2464
  184DOPC   H2Y22598   2.282   1.976  11.724 -1.3326 -0.5434 -0.8951
  184DOPC   C2322599   1.715   1.837  11.422 -0.1547  0.7044  0.3412
  184DOPC   H3R22600   1.680   1.733  11.403 -0.5854  0.5793  1.6588
  184DOPC   H3S22601   1.620   1.892  11.441 -1.6722 -0.9392 -2.0070
  184DOPC   C2422602   1.790   1.839  11.557  0.3682 -0.5617 -0.1944
  184DOPC   H4R22603   1.883   1.781  11.543  0.6272  0.4609 -3.5897
  184DOPC   H4S22604   1.730   1.799  11.642  2.0330 -0.5114  1.0639
  184DOPC   C2522605   1.842   1.987  11.596  0.0680  0.8161  0.6601
  184DOPC   H5R22606   1.757   2.054  11.622  0.5221  1.0230  1.6502
  184DOPC   H5S22607   1.904   2.024  11.512  2.6942 -0.6584  1.8025
  184DOPC   C2622608   1.932   1.982  11.724  0.3656  0.8452  0.5810
  184DOPC   H6R22609   2.019   1.920  11.696  0.5161  1.0178  0.6673
  184DOPC   H6S22610   1.880   1.938  11.812  1.1161  0.2689  0.7405
  184DOPC   C2722611   1.982   2.117  11.778  0.6256 -0.5727  0.6011
  184DOPC   H7R22612   1.894   2.180  11.804  2.2774  0.9989  2.7594
  184DOPC   H7S22613   2.030   2.168  11.692 -1.0504  2.4762  1.3289
  184DOPC   C2822614   2.061   2.113  11.910  0.0632  0.2062  0.3044
  184DOPC   H8R22615   2.107   2.211  11.936 -0.5940 -0.2710  3.8316
  184DOPC   H8S22616   2.151   2.049  11.893 -1.6411 -1.8924 -1.3269
  184DOPC   C2922617   1.979   2.061  12.025 -0.5815 -0.7883 -0.9190
  184DOPC   H9R22618   1.878   2.031  11.995 -1.1045 -0.3135  0.3242
  184DOPC  C21022619   2.028   2.063  12.150  0.2700 -0.3426  0.1372
  184DOPC  H10R22620   1.962   2.036  12.234 -0.2223  1.8506  0.5324
  184DOPC  C21122621   2.162   2.116  12.191 -0.4505 -0.0991 -0.3185
  184DOPC  H11R22622   2.164   2.221  12.227  0.6467  0.1142 -0.9461
  184DOPC  H11S22623   2.237   2.115  12.108  3.0112 -0.1982  2.5690
  184DOPC  C21222624   2.223   2.024  12.298 -0.1016  0.3015 -0.5899
  184DOPC  H12R22625   2.328   2.057  12.316  0.7597 -2.3339 -0.3429
  184DOPC  H12S22626   2.238   1.920  12.263  0.5871 -0.4076  1.6027
  184DOPC  C21322627   2.144   2.015  12.432 -0.9706  0.1915 -0.0634
  184DOPC  H13R22628   2.058   1.949  12.406  1.0828 -2.0287 -1.7320
  184DOPC  H13S22629   2.115   2.120  12.452  1.5426  0.7477  1.0463
  184DOPC  C21422630   2.235   1.960  12.546  0.6494 -0.4497  0.1155
  184DOPC  H14R22631   2.322   2.029  12.545 -0.2241  0.6874  0.8107
  184DOPC  H14S22632   2.265   1.859  12.510 -1.6224 -1.5789  1.1805
  184DOPC  C21522633   2.173   1.971  12.684 -0.0949 -0.1991 -1.0485
  184DOPC  H15R22634   2.077   1.915  12.683  0.0024 -0.3835 -0.3483
  184DOPC  H15S22635   2.161   2.080  12.703 -2.1413 -0.3649 -1.1669
  184DOPC  C21622636   2.255   1.911  12.804  0.6792 -0.0693  0.1598
  184DOPC  H16R22637   2.337   1.982  12.823  0.1385  0.3843  0.8316
  184DOPC  H16S22638   2.289   1.807  12.788 -2.5961 -1.9606  3.7906
  184DOPC  C21722639   2.164   1.914  12.925 -0.4081 -0.4028 -0.5576
  184DOPC  H17R22640   2.071   1.857  12.901 -1.2125 -0.7613  2.8151
  184DOPC  H17S22641   2.137   2.021  12.939 -1.5041 -0.8219  0.8026
  184DOPC  C21822642   2.221   1.854  13.054  0.2418 -0.3773  0.6549
  184DOPC  H18R22643   2.198   1.921  13.140  0.2202  0.7975 -0.2338
  184DOPC  H18S22644   2.331   1.842  13.051  0.2070 -0.6564  0.4913
  184DOPC  H18T22645   2.178   1.755  13.078  0.5229 -0.8463 -0.6956
  184DOPC   C3322646   2.500   2.022  11.699 -0.2594 -0.3091  0.2698
  184DOPC   H3X22647   2.543   2.104  11.638 -3.0284  0.2417 -1.0812
  184DOPC   H3Y22648   2.567   1.935  11.687  1.6379  1.1789 -0.3847
  184DOPC   C3422649   2.507   2.038  11.853 -1.0353 -0.1001 -0.8503
  184DOPC   H4X22650   2.461   1.948  11.900  1.3085 -1.3737 -0.8412
  184DOPC   H4Y22651   2.447   2.128  11.881  3.0930  2.1655  1.7295
  184DOPC   C3522652   2.649   2.065  11.897 -0.4664 -0.3308  0.2121
  184DOPC   H5X22653   2.697   2.138  11.828 -0.5228  0.4256  0.9506
  184DOPC   H5Y22654   2.717   1.977  11.902  1.6053  1.2248  0.6286
  184DOPC   C3622655   2.655   2.125  12.033 -0.5947 -0.3077 -0.4090
  184DOPC   H6X22656   2.752   2.177  12.049  0.3273 -1.9566 -0.3651
  184DOPC   H6Y22657   2.584   2.210  12.035  1.1845  1.2503  2.0050
  184DOPC   C3722658   2.641   2.021  12.137  0.4084  0.2939  0.4378
  184DOPC   H7X22659   2.556   1.952  12.118  0.5156 -0.0525  1.1720
  184DOPC   H7Y22660   2.730   1.955  12.136 -0.6127 -1.1418 -1.0875
  184DOPC   C3822661   2.618   2.078  12.277  0.5301 -0.1017 -0.3446
  184DOPC   H8X22662   2.587   1.996  12.346  1.0243 -1.7271 -1.9755
  184DOPC   H8Y22663   2.536   2.153  12.276  0.1344 -0.5269 -0.4457
  184DOPC   C3922664   2.747   2.147  12.324  0.0536 -0.0905 -0.4328
  184DOPC   H9X22665   2.797   2.217  12.256 -0.3827  1.6374  0.9639
  184DOPC  C31022666   2.807   2.138  12.445  0.5522 -0.7107  0.0749
  184DOPC  H10X22667   2.908   2.179  12.460 -0.7716  1.9529  2.8321
  184DOPC  C31122668   2.773   2.040  12.548  0.3728  0.4814  0.0389
  184DOPC  H11X22669   2.867   2.013  12.600 -0.6698 -1.2821  1.1060
  184DOPC  H11Y22670   2.732   1.949  12.498 -1.9285  1.3638  0.1815
  184DOPC  C31222671   2.668   2.080  12.659  0.0469 -0.7612 -0.6969
  184DOPC  H12X22672   2.579   2.116  12.603 -1.0542  0.5228  1.7165
  184DOPC  H12Y22673   2.712   2.163  12.718  0.3704 -0.9519 -0.6683
  184DOPC  C31322674   2.621   1.974  12.763 -0.5889 -0.3131 -0.9186
  184DOPC  H13X22675   2.540   2.021  12.823  1.3947 -0.4902  2.1233
  184DOPC  H13Y22676   2.581   1.883  12.714 -2.2316  0.0702 -0.3526
  184DOPC  C31422677   2.737   1.946  12.858  0.6460 -0.2771 -0.2186
  184DOPC  H14X22678   2.815   1.885  12.808  1.9769  0.9380  0.3240
  184DOPC  H14Y22679   2.778   2.046  12.884  1.1471 -0.1774 -1.3318
  184DOPC  C31522680   2.697   1.874  12.994  0.1040  0.1349  0.1326
  184DOPC  H15X22681   2.790   1.859  13.053 -0.5507 -1.4231  0.8201
  184DOPC  H15Y22682   2.660   1.771  12.980 -0.3554  0.3425 -0.2419
  184DOPC  C31622683   2.621   1.966  13.086  0.9115 -0.5841 -0.6698
  184DOPC  H16X22684   2.657   2.070  13.077 -1.6522  0.2909 -1.7352
  184DOPC  H16Y22685   2.516   1.958  13.051  0.4315 -2.8901  1.0791
  184DOPC  C31722686   2.622   1.926  13.237  0.2690 -0.3548  0.5924
  184DOPC  H17X22687   2.595   1.819  13.250 -0.1860  0.0386  3.7458
  184DOPC  H17Y22688   2.726   1.935  13.275 -0.4209  0.2623  2.4758
  184DOPC  C31822689   2.531   2.008  13.326 -0.1079 -0.1475 -0.0803
  184DOPC  H18X22690   2.581   2.105  13.346  1.6368 -0.7680 -1.1554
  184DOPC  H18Y22691   2.436   2.032  13.274  0.5148 -0.2067 -1.2886
  184DOPC  H18Z22692   2.509   1.951  13.419 -1.8099  0.1418 -0.2695
  185DOPC     N22693   3.775   5.851  11.224  0.1879  0.1412  0.0803
  185DOPC   C1222694   3.920   5.864  11.245  0.6223  0.5337 -0.3156
  185DOPC  H12A22695   3.975   5.771  11.249 -0.8725 -0.4025 -0.7803
  185DOPC  H12B22696   3.934   5.911  11.342  0.4466  1.5252 -0.7565
  185DOPC   C1322697   3.721   5.781  11.345 -0.0126 -0.0837 -0.1820
  185DOPC  H13A22698   3.759   5.680  11.334 -0.9534 -0.7293  1.9338
  185DOPC  H13B22699   3.755   5.821  11.440 -0.6770 -0.6739  0.3231
  185DOPC  H13C22700   3.614   5.785  11.353 -0.1943  0.4219 -2.4241
  185DOPC   C1422701   3.739   5.763  11.108  0.5759 -0.0604 -0.7304
  185DOPC  H14A22702   3.632   5.766  11.097  0.3267 -0.0085  1.3266
  185DOPC  H14B22703   3.786   5.799  11.017 -0.7322  0.5575 -1.1871
  185DOPC  H14C22704   3.778   5.663  11.109 -1.0362 -0.9650 -5.2566
  185DOPC   C1522705   3.712   5.985  11.209  0.6571  0.5251  1.3236
  185DOPC  H15A22706   3.760   6.031  11.124 -0.8979 -2.5968 -1.5076
  185DOPC  H15B22707   3.724   6.046  11.297  1.2095  2.8877 -0.3074
  185DOPC  H15C22708   3.607   5.984  11.183  0.6640 -3.5341  0.8171
  185DOPC   C1122709   4.004   5.948  11.144  0.2778  0.1646 -1.0445
  185DOPC  H11A22710   4.104   5.899  11.149 -0.5203 -1.5696 -1.4288
  185DOPC  H11B22711   3.961   5.926  11.044  0.0466  0.7253 -1.0723
  185DOPC     P22712   4.066   6.200  11.083 -0.0403  0.1909 -0.3966
  185DOPC   O1322713   3.971   6.312  11.097  0.0853 -0.0399  0.1592
  185DOPC   O1422714   4.077   6.149  10.947 -0.4049 -0.3915  0.1721
  185DOPC   O1222715   4.006   6.090  11.175  0.2078 -0.0959 -0.2363
  185DOPC   O1122716   4.209   6.243  11.147 -0.3949 -0.0970 -0.7701
  185DOPC    C122717   4.281   6.149  11.222  0.3815 -0.7259  0.4438
  185DOPC    HA22718   4.389   6.173  11.208 -0.6348  3.9819 -1.2340
  185DOPC    HB22719   4.270   6.042  11.193  2.7831 -0.7702 -0.5710
  185DOPC    C222720   4.260   6.166  11.372 -0.1006 -0.0565 -0.7544
  185DOPC    HS22721   4.150   6.161  11.388  0.0306  0.3809  0.4123
  185DOPC   O2122722   4.301   6.297  11.422 -0.4648 -0.2283  0.1882
  185DOPC   C2122723   4.232   6.352  11.525 -0.2482 -0.4704 -0.3841
  185DOPC   O2222724   4.144   6.295  11.589  0.1482  0.3738  0.4301
  185DOPC   C2222725   4.274   6.500  11.539  0.0584  0.5204  0.4304
  185DOPC   H2R22726   4.245   6.549  11.443 -0.0508  0.0965  0.2451
  185DOPC   H2S22727   4.381   6.521  11.561  0.3667 -0.5982  0.0358
  185DOPC    C322728   4.330   6.056  11.454  0.4864  0.5309  0.6815
  185DOPC    HX22729   4.438   6.079  11.449  0.2307  2.0543  1.4829
  185DOPC    HY22730   4.307   5.961  11.401  1.4084 -0.2591  1.6472
  185DOPC   O3122731   4.278   6.038  11.587 -0.5199  0.1085  0.2416
  185DOPC   C3122732   4.346   6.090  11.688 -1.7696  0.1047  1.0348
  185DOPC   O3222733   4.453   6.151  11.677 -0.2765 -0.2266  0.2498
  185DOPC   C3222734   4.266   6.068  11.814  0.3939 -0.5550 -0.3289
  185DOPC   H2X22735   4.171   6.123  11.800  1.1157  0.6284 -0.7667
  185DOPC   H2Y22736   4.248   5.959  11.827 -0.8038 -0.0481  3.5853
  185DOPC   C2322737   4.189   6.569  11.650 -0.8156 -0.1449  0.0978
  185DOPC   H3R22738   4.081   6.563  11.625 -0.6050  1.9426 -1.6199
  185DOPC   H3S22739   4.213   6.677  11.640  0.0345 -0.4566 -1.7549
  185DOPC   C2422740   4.224   6.522  11.793  0.4396  0.0721  0.6339
  185DOPC   H4R22741   4.332   6.546  11.803  0.2109  3.2363 -2.4712
  185DOPC   H4S22742   4.205   6.413  11.800 -2.6640  0.5496  1.0791
  185DOPC   C2522743   4.153   6.602  11.899 -0.6890 -0.4874 -0.7277
  185DOPC   H5R22744   4.043   6.595  11.883 -0.9372  0.4578  0.4797
  185DOPC   H5S22745   4.175   6.710  11.888  0.2445 -0.3590  1.8815
  185DOPC   C2622746   4.202   6.563  12.040 -0.5220 -0.0916 -0.2566
  185DOPC   H6R22747   4.292   6.621  12.069 -0.8855 -0.0304  0.7744
  185DOPC   H6S22748   4.231   6.456  12.034  2.2344  0.6145 -0.6229
  185DOPC   C2722749   4.095   6.585  12.148 -0.5350  0.1140  0.3219
  185DOPC   H7R22750   4.008   6.519  12.126 -0.4467  0.5784 -1.5235
  185DOPC   H7S22751   4.042   6.681  12.135 -1.6778 -0.1755  2.3415
  185DOPC   C2822752   4.146   6.579  12.294 -0.1094  0.4166 -0.4264
  185DOPC   H8R22753   4.062   6.619  12.355 -1.2997 -1.6158 -0.6542
  185DOPC   H8S22754   4.235   6.646  12.302 -0.6954  1.1848 -0.1467
  185DOPC   C2922755   4.185   6.441  12.341 -0.2463  0.3950 -0.4266
  185DOPC   H9R22756   4.230   6.378  12.263 -0.3409 -2.2670  1.5210
  185DOPC  C21022757   4.175   6.408  12.473  0.0386  0.6175  0.6767
  185DOPC  H10R22758   4.214   6.309  12.503 -1.5923 -1.1978 -2.6774
  185DOPC  C21122759   4.102   6.490  12.583  0.4711  0.3039 -0.5716
  185DOPC  H11R22760   3.993   6.493  12.562 -0.1041 -0.8894  1.7854
  185DOPC  H11S22761   4.145   6.592  12.580  1.5687 -0.1567 -2.5909
  185DOPC  C21222762   4.122   6.421  12.720  0.0194  0.1540  0.2548
  185DOPC  H12R22763   4.227   6.394  12.747  0.3421  0.2857 -0.8242
  185DOPC  H12S22764   4.077   6.320  12.725  1.7443 -0.8958 -2.8850
  185DOPC  C21322765   4.082   6.520  12.825  0.0149  0.2112  0.4251
  185DOPC  H13R22766   3.987   6.572  12.802 -0.1191  1.5223  3.4232
  185DOPC  H13S22767   4.160   6.600  12.831  1.5334 -1.2780  1.6805
  185DOPC  C21422768   4.087   6.462  12.963 -0.3085 -0.4076  0.0344
  185DOPC  H14R22769   4.179   6.400  12.971 -0.0626  0.0364  0.8563
  185DOPC  H14S22770   4.002   6.392  12.973 -0.4667  0.0352  2.3628
  185DOPC  C21522771   4.081   6.567  13.079  0.5018 -0.0692 -0.1149
  185DOPC  H15R22772   3.974   6.594  13.067 -0.1238 -2.2746  0.0569
  185DOPC  H15S22773   4.156   6.642  13.046 -0.1807 -0.8541 -3.9184
  185DOPC  C21622774   4.115   6.510  13.215 -0.0486  0.2886  0.6276
  185DOPC  H16R22775   4.214   6.459  13.220 -1.4204 -2.5113  0.7626
  185DOPC  H16S22776   4.030   6.442  13.235 -0.0706  0.3220  0.6482
  185DOPC  C21722777   4.104   6.613  13.331  0.3896  0.3235 -0.4738
  185DOPC  H17R22778   4.001   6.657  13.330  0.8162  1.3902  0.1424
  185DOPC  H17S22779   4.183   6.685  13.300  2.6674 -0.8162  2.2860
  185DOPC  C21822780   4.138   6.563  13.473  0.8584 -0.3492  0.3266
  185DOPC  H18R22781   4.060   6.498  13.519 -1.4275  1.9791 -0.0383
  185DOPC  H18S22782   4.151   6.655  13.535  0.3107 -0.2991  0.3683
  185DOPC  H18T22783   4.233   6.506  13.470  1.2985  0.2712  1.5912
  185DOPC   C3322784   4.342   6.108  11.941  0.2757 -0.5745  0.0862
  185DOPC   H3X22785   4.366   6.216  11.937 -1.5385 -0.1123  1.0727
  185DOPC   H3Y22786   4.435   6.047  11.946  0.9070  0.2113 -1.3166
  185DOPC   C3422787   4.257   6.101  12.073  0.4014  0.1637 -0.2682
  185DOPC   H4X22788   4.223   5.996  12.084  3.5388 -1.0266 -0.7029
  185DOPC   H4Y22789   4.175   6.175  12.085  1.6341  1.3716  1.1025
  185DOPC   C3522790   4.360   6.130  12.190 -0.0540 -0.0103 -0.5234
  185DOPC   H5X22791   4.386   6.238  12.188 -0.0292 -0.0148 -0.4105
  185DOPC   H5Y22792   4.456   6.080  12.166  0.2272 -0.0150  0.5655
  185DOPC   C3622793   4.308   6.072  12.320 -0.2257  0.3736 -0.1158
  185DOPC   H6X22794   4.204   6.110  12.324  0.1619  2.0487 -3.0612
  185DOPC   H6Y22795   4.286   5.965  12.300  0.5827  0.3879 -1.2195
  185DOPC   C3722796   4.404   6.099  12.433  0.1357 -0.2362 -0.5986
  185DOPC   H7X22797   4.506   6.097  12.387  0.1946  0.5120 -0.5202
  185DOPC   H7Y22798   4.389   6.199  12.479 -0.2068  0.8375 -2.8596
  185DOPC   C3822799   4.385   5.998  12.548 -0.1806  0.7793 -0.1821
  185DOPC   H8X22800   4.453   6.012  12.636 -1.0381 -0.0089  0.6339
  185DOPC   H8Y22801   4.411   5.899  12.504 -2.2398  0.0853  0.0778
  185DOPC   C3922802   4.243   6.002  12.587 -0.3141  0.9208 -0.2546
  185DOPC   H9X22803   4.165   5.967  12.517  1.4314 -0.5972 -1.5375
  185DOPC  C31022804   4.201   6.045  12.706  0.1403  0.0689 -0.2368
  185DOPC  H10X22805   4.094   6.056  12.730  0.0663  0.1393 -0.5893
  185DOPC  C31122806   4.277   6.095  12.824 -0.3476 -0.3487 -0.8368
  185DOPC  H11X22807   4.246   6.199  12.846  0.1355 -0.6526  1.5451
  185DOPC  H11Y22808   4.387   6.095  12.807  0.3040 -0.1462  2.6671
  185DOPC  C31222809   4.243   6.002  12.939  0.2417  0.4176  0.1651
  185DOPC  H12X22810   4.300   5.907  12.948 -0.5672  0.0691  2.1114
  185DOPC  H12Y22811   4.135   5.976  12.940  0.2243  0.4789 -0.1156
  185DOPC  C31322812   4.265   6.075  13.071  0.2853  0.1940  0.1833
  185DOPC  H13X22813   4.369   6.113  13.078  0.5257 -0.3961 -0.0617
  185DOPC  H13Y22814   4.195   6.161  13.071  0.0411  0.0228 -1.1639
  185DOPC  C31422815   4.248   5.997  13.208 -0.4598  0.5093 -0.6757
  185DOPC  H14X22816   4.157   5.934  13.201  0.2371 -0.7568  0.8057
  185DOPC  H14Y22817   4.332   5.925  13.220 -1.2313 -0.0215  2.7814
  185DOPC  C31522818   4.243   6.090  13.322  0.8263 -0.5245  0.1289
  185DOPC  H15X22819   4.156   6.159  13.307  0.8514 -0.4158  0.4807
  185DOPC  H15Y22820   4.337   6.149  13.322  1.2610 -1.2085 -0.1954
  185DOPC  C31622821   4.222   6.030  13.461 -1.1456 -0.0082 -0.3735
  185DOPC  H16X22822   4.126   5.975  13.462 -0.4773 -1.2125 -0.2352
  185DOPC  H16Y22823   4.298   5.953  13.486 -1.4632  0.5241  2.6581
  185DOPC  C31722824   4.233   6.129  13.578  0.3558 -0.2695  0.4510
  185DOPC  H17X22825   4.337   6.165  13.565  0.6291 -1.7458 -2.1947
  185DOPC  H17Y22826   4.156   6.208  13.563  0.3004 -0.4301 -0.1608
  185DOPC  C31822827   4.210   6.052  13.709  0.1134  0.3226 -0.3797
  185DOPC  H18X22828   4.103   6.019  13.712 -0.0324  0.8257  0.0711
  185DOPC  H18Y22829   4.272   5.960  13.708 -0.8289 -0.3353 -0.9037
  185DOPC  H18Z22830   4.238   6.119  13.793 -0.2720 -0.6739  0.5679
  186DOPC     N22831   5.489   3.504  10.746 -0.0691 -0.6454 -0.4866
  186DOPC   C1222832   5.467   3.437  10.882 -0.2149  0.3838 -0.4260
  186DOPC  H12A22833   5.431   3.338  10.861 -0.5231  0.0239  1.5557
  186DOPC  H12B22834   5.382   3.484  10.931 -1.7794 -1.2607 -1.4280
  186DOPC   C1322835   5.512   3.654  10.771  0.4382  0.3080  1.7554
  186DOPC  H13A22836   5.587   3.669  10.849  0.0298 -0.5478  2.3226
  186DOPC  H13B22837   5.561   3.690  10.681  1.9509 -0.6122  2.1667
  186DOPC  H13C22838   5.418   3.699  10.798 -0.7170 -1.4837  0.8619
  186DOPC   C1422839   5.379   3.474  10.655 -0.1214 -0.4003  0.3807
  186DOPC  H14A22840   5.278   3.489  10.691 -0.2299 -0.7612  0.2360
  186DOPC  H14B22841   5.398   3.520  10.559  2.3727  0.7477  1.3445
  186DOPC  H14C22842   5.383   3.366  10.643  1.3793 -0.3074 -0.1845
  186DOPC   C1522843   5.619   3.448  10.691 -0.1571 -0.3205  0.1745
  186DOPC  H15A22844   5.623   3.463  10.585 -2.7722 -2.9510 -0.4609
  186DOPC  H15B22845   5.623   3.340  10.697 -0.4368 -0.3974 -0.8375
  186DOPC  H15C22846   5.706   3.489  10.740 -0.8760  1.0643  0.3208
  186DOPC   C1122847   5.586   3.438  10.978 -0.7841 -0.7004  0.3494
  186DOPC  H11A22848   5.559   3.375  11.066 -1.0324 -0.3659  0.5136
  186DOPC  H11B22849   5.674   3.391  10.930 -1.1696 -0.6479 -0.4253
  186DOPC     P22850   5.529   3.655  11.113 -0.1850 -0.1293 -0.7454
  186DOPC   O1322851   5.398   3.660  11.048  0.2027  0.3762 -0.9692
  186DOPC   O1422852   5.594   3.795  11.125  0.3503  0.4227 -0.3254
  186DOPC   O1222853   5.620   3.568  11.026 -0.7303 -0.4692  0.5095
  186DOPC   O1122854   5.535   3.572  11.251  0.3107  0.3410 -0.6173
  186DOPC    C122855   5.663   3.526  11.299  0.4474 -0.1930 -0.2087
  186DOPC    HA22856   5.748   3.566  11.241 -0.2477  0.6372 -0.6701
  186DOPC    HB22857   5.670   3.415  11.296 -1.3763 -0.3584  0.1774
  186DOPC    C222858   5.676   3.568  11.446 -0.8035  0.1778 -0.0129
  186DOPC    HS22859   5.780   3.540  11.473 -0.6216 -0.6762 -1.4964
  186DOPC   O2122860   5.575   3.494  11.509  0.0904  0.1176 -0.2820
  186DOPC   C2122861   5.611   3.467  11.633  0.1502  0.1484 -0.4744
  186DOPC   O2222862   5.714   3.499  11.696  0.4034  0.8866  0.3067
  186DOPC   C2222863   5.499   3.378  11.695 -0.2285 -0.2517 -0.4926
  186DOPC   H2R22864   5.517   3.275  11.657 -0.8430 -0.3477 -0.5416
  186DOPC   H2S22865   5.403   3.411  11.650 -0.5210 -1.5845 -0.9163
  186DOPC    C322866   5.649   3.722  11.459 -0.1057  0.1844  0.2706
  186DOPC    HX22867   5.549   3.747  11.418 -0.3189 -0.2921  0.4921
  186DOPC    HY22868   5.723   3.780  11.399 -2.2535  1.4107 -1.3465
  186DOPC   O3122869   5.643   3.777  11.591  0.1618  0.0644  0.3458
  186DOPC   C3122870   5.754   3.834  11.638  0.2430 -0.4851  0.4601
  186DOPC   O3222871   5.856   3.851  11.571  0.2318 -0.3489 -0.0884
  186DOPC   C3222872   5.732   3.868  11.786 -0.1827 -0.8604 -0.4821
  186DOPC   H2X22873   5.659   3.952  11.794  0.2973 -0.5243  0.5329
  186DOPC   H2Y22874   5.675   3.789  11.841 -0.9715 -1.0344 -1.5256
  186DOPC   C2322875   5.504   3.374  11.853 -0.8116 -0.1152 -0.0515
  186DOPC   H3R22876   5.611   3.362  11.881 -0.4411  3.1732  0.4224
  186DOPC   H3S22877   5.439   3.296  11.896  0.4534 -0.0483  2.0998
  186DOPC   C2422878   5.485   3.512  11.912  0.2029 -0.0476 -0.4163
  186DOPC   H4R22879   5.410   3.577  11.862 -1.7713 -1.9432 -0.0882
  186DOPC   H4S22880   5.581   3.567  11.919  0.8132 -1.2265  1.1219
  186DOPC   C2522881   5.445   3.489  12.061  0.7460  0.4455 -0.2082
  186DOPC   H5R22882   5.339   3.456  12.064  0.5490  0.9866 -0.9889
  186DOPC   H5S22883   5.439   3.583  12.120 -1.2336 -0.9772  2.0283
  186DOPC   C2622884   5.538   3.388  12.134  0.2335 -0.2867  0.0995
  186DOPC   H6R22885   5.633   3.445  12.141 -0.3117  0.6599 -0.0733
  186DOPC   H6S22886   5.563   3.292  12.085 -2.1083 -0.1914 -1.4584
  186DOPC   C2722887   5.487   3.363  12.278 -0.7963 -0.0117 -0.5701
  186DOPC   H7R22888   5.393   3.307  12.258 -0.7965 -0.0210 -0.5436
  186DOPC   H7S22889   5.460   3.455  12.333 -0.6565  0.2885 -1.0029
  186DOPC   C2822890   5.593   3.273  12.361  0.5304 -0.3840 -0.1199
  186DOPC   H8R22891   5.680   3.331  12.399 -0.6534  0.6512  1.1163
  186DOPC   H8S22892   5.613   3.187  12.294 -3.1100 -1.4057 -0.1286
  186DOPC   C2922893   5.522   3.216  12.483 -0.6130  0.3215 -0.1397
  186DOPC   H9R22894   5.428   3.162  12.462 -1.5477  1.8849 -0.1575
  186DOPC  C21022895   5.545   3.236  12.611 -0.6720  0.1931 -0.4195
  186DOPC  H10R22896   5.498   3.168  12.683  1.3821 -2.2125 -1.2150
  186DOPC  C21122897   5.650   3.329  12.671  0.6448  0.1780 -0.0415
  186DOPC  H11R22898   5.593   3.418  12.708  1.8467  0.9317  0.0331
  186DOPC  H11S22899   5.717   3.363  12.589  0.5102 -0.0754 -0.2594
  186DOPC  C21222900   5.743   3.275  12.778 -0.2218  0.4214  0.5799
  186DOPC  H12R22901   5.810   3.360  12.806  0.8183  0.4945 -1.9094
  186DOPC  H12S22902   5.801   3.190  12.737 -0.5018 -0.0037  1.0565
  186DOPC  C21322903   5.669   3.241  12.904 -0.5152  0.0773 -0.1598
  186DOPC  H13R22904   5.577   3.182  12.886  0.6197 -1.2717 -1.7343
  186DOPC  H13S22905   5.630   3.337  12.944  1.1705  0.5421  0.4365
  186DOPC  C21422906   5.754   3.186  13.022  0.1662 -0.3446 -0.0478
  186DOPC  H14R22907   5.842   3.252  13.010  0.4532 -0.4882  1.1613
  186DOPC  H14S22908   5.792   3.089  12.983  3.1866  1.2866 -1.5588
  186DOPC  C21522909   5.687   3.185  13.155  0.1053 -0.9229 -0.0953
  186DOPC  H15R22910   5.604   3.111  13.165 -0.0916 -0.6389  0.3636
  186DOPC  H15S22911   5.658   3.287  13.186 -1.0474 -1.3780  0.3746
  186DOPC  C21622912   5.779   3.143  13.266  0.0664 -0.9374 -0.1849
  186DOPC  H16R22913   5.867   3.210  13.255  0.1214 -1.2502 -1.8682
  186DOPC  H16S22914   5.802   3.035  13.251 -0.7270 -1.2137  0.5034
  186DOPC  C21722915   5.713   3.171  13.404  0.4957  0.1281  0.4141
  186DOPC  H17R22916   5.627   3.102  13.411  1.5970 -1.4417 -0.8129
  186DOPC  H17S22917   5.669   3.271  13.423 -0.5269 -0.5404  1.6825
  186DOPC  C21822918   5.808   3.144  13.520  0.5932  0.0640 -0.3271
  186DOPC  H18R22919   5.821   3.036  13.543 -1.8397 -0.1344  0.3610
  186DOPC  H18S22920   5.783   3.199  13.613  1.2401 -0.8871  0.4257
  186DOPC  H18T22921   5.911   3.177  13.493 -0.0896  1.6125 -1.1911
  186DOPC   C3322922   5.858   3.917  11.850  0.3866  0.2774  0.2963
  186DOPC   H3X22923   5.907   3.996  11.789 -1.2266  1.3092  0.2852
  186DOPC   H3Y22924   5.935   3.837  11.855 -2.1606 -2.3016  0.2823
  186DOPC   C3422925   5.819   3.952  11.996 -0.9729 -0.0545  0.3643
  186DOPC   H4X22926   5.797   3.852  12.039  0.0692 -0.5787 -0.2815
  186DOPC   H4Y22927   5.723   4.007  11.987 -0.3893  1.0479  0.7925
  186DOPC   C3522928   5.929   4.031  12.076  1.0484  0.7069 -0.3689
  186DOPC   H5X22929   5.950   4.123  12.018  0.8998  1.6895  1.0708
  186DOPC   H5Y22930   6.026   3.977  12.076  0.5114 -0.3410  1.1372
  186DOPC   C3622931   5.873   4.060  12.211 -0.3374  0.2159  0.7345
  186DOPC   H6X22932   5.782   4.123  12.203 -0.0816  0.6156  0.9410
  186DOPC   H6Y22933   5.830   3.969  12.258 -2.9897  1.1009  0.1514
  186DOPC   C3722934   5.976   4.144  12.288  0.2740  0.0172 -0.2223
  186DOPC   H7X22935   6.068   4.086  12.312  0.5775  0.5102 -0.1715
  186DOPC   H7Y22936   6.012   4.221  12.216  2.5887 -0.8239 -0.0704
  186DOPC   C3822937   5.919   4.207  12.415 -0.3490  0.7542 -0.4851
  186DOPC   H8X22938   5.862   4.139  12.482  2.0418  0.4671  1.4006
  186DOPC   H8Y22939   5.846   4.287  12.392 -2.1232 -0.4286  0.7474
  186DOPC   C3922940   6.037   4.260  12.483  0.5158  0.0015 -0.2376
  186DOPC   H9X22941   6.070   4.354  12.436 -0.2611  0.1276 -0.5422
  186DOPC  C31022942   6.102   4.210  12.590  0.9685  0.0168  0.6889
  186DOPC  H10X22943   6.187   4.267  12.629  0.7041 -0.0914  1.4497
  186DOPC  C31122944   6.064   4.080  12.650 -0.3442  0.1992  0.2106
  186DOPC  H11X22945   6.150   4.014  12.679  0.7108  2.0132  1.4184
  186DOPC  H11Y22946   6.010   4.006  12.587  0.9226  0.6299 -1.4479
  186DOPC  C31222947   5.983   4.096  12.775 -0.1916  0.0705 -0.2977
  186DOPC  H12X22948   5.876   4.113  12.752 -0.0401  3.0670  0.7980
  186DOPC  H12Y22949   6.020   4.189  12.822 -0.1078 -1.0062  1.8927
  186DOPC  C31322950   5.982   3.972  12.868  0.2559  0.2383 -0.4622
  186DOPC  H13X22951   5.937   3.884  12.817  3.0471 -1.1030 -0.8127
  186DOPC  H13Y22952   6.084   3.932  12.886  1.0201  1.9950 -0.7316
  186DOPC  C31422953   5.907   4.001  13.002  0.2426 -0.0334  0.4460
  186DOPC  H14X22954   5.818   4.056  12.966  1.6538  1.1130 -1.4937
  186DOPC  H14Y22955   5.893   3.907  13.059  4.2305 -0.6570  0.7225
  186DOPC  C31522956   5.987   4.093  13.091  0.1016 -0.3461 -0.9930
  186DOPC  H15X22957   6.001   4.188  13.035  0.6596  0.4869  0.4898
  186DOPC  H15Y22958   6.083   4.046  13.120 -0.1170  0.2399  0.7779
  186DOPC  C31622959   5.908   4.126  13.219  0.2117  0.1451  0.8755
  186DOPC  H16X22960   5.954   4.214  13.268 -0.5754  0.9034  0.2910
  186DOPC  H16Y22961   5.807   4.166  13.194  1.2848  1.5875 -1.4189
  186DOPC  C31722962   5.888   4.016  13.322 -0.2828  0.0640  0.6724
  186DOPC  H17X22963   5.819   3.941  13.279 -1.7088  2.2266 -1.0695
  186DOPC  H17Y22964   5.986   3.964  13.329 -0.2941  0.2378  2.4514
  186DOPC  C31822965   5.850   4.056  13.468 -0.2016  0.1215  0.4324
  186DOPC  H18X22966   5.828   3.965  13.528  0.0220 -0.0613  0.2398
  186DOPC  H18Y22967   5.931   4.114  13.518 -1.2569  3.2072 -1.1946
  186DOPC  H18Z22968   5.755   4.114  13.464 -0.5619 -0.5302 -1.2500
  187DOPC     N22969   3.894   2.492  11.575 -0.5680 -0.1261 -0.6517
  187DOPC   C1222970   4.044   2.466  11.601  0.1001  0.4480  0.4870
  187DOPC  H12A22971   4.096   2.521  11.525 -0.4240  0.0451 -0.1702
  187DOPC  H12B22972   4.066   2.365  11.572 -0.1668  0.5655 -0.1388
  187DOPC   C1322973   3.856   2.633  11.614 -0.7880  0.0367 -0.1218
  187DOPC  H13A22974   3.910   2.698  11.546  0.4254 -0.9835 -0.1786
  187DOPC  H13B22975   3.749   2.645  11.611 -0.6393  1.9999  0.8375
  187DOPC  H13C22976   3.896   2.655  11.712  1.9394  0.5865 -1.2561
  187DOPC   C1422977   3.816   2.404  11.661  0.3726  0.2219 -0.4137
  187DOPC  H14A22978   3.710   2.423  11.657 -0.5621 -1.8587  5.0584
  187DOPC  H14B22979   3.819   2.299  11.636 -0.0912 -0.1624  1.0093
  187DOPC  H14C22980   3.847   2.418  11.764 -1.2236 -2.1395  0.4703
  187DOPC   C1522981   3.858   2.470  11.426  0.1797  0.2932 -0.5108
  187DOPC  H15A22982   3.872   2.365  11.405 -1.1060 -0.2089  0.9505
  187DOPC  H15B22983   3.914   2.529  11.356 -0.2576 -0.1550 -1.2495
  187DOPC  H15C22984   3.755   2.496  11.407  0.4282 -0.2632 -2.9578
  187DOPC   C1122985   4.117   2.486  11.740  0.3757 -0.0138  0.4104
  187DOPC  H11A22986   4.077   2.415  11.816 -0.0294  0.5312  0.7104
  187DOPC  H11B22987   4.223   2.457  11.724 -0.1913 -1.1551 -1.6372
  187DOPC     P22988   4.197   2.731  11.735  0.3291 -0.2686  0.0062
  187DOPC   O1322989   4.147   2.862  11.778  0.4821  0.4044  0.1238
  187DOPC   O1422990   4.239   2.706  11.597  0.1356  0.1733 -0.2138
  187DOPC   O1222991   4.104   2.624  11.783 -0.0641 -0.3949  0.0730
  187DOPC   O1122992   4.332   2.721  11.817  0.3171  0.5722  0.3895
  187DOPC    C122993   4.349   2.656  11.939  0.5563 -0.6375  0.1499
  187DOPC    HA22994   4.459   2.642  11.945  0.3741 -1.8389  1.0666
  187DOPC    HB22995   4.308   2.553  11.944  0.1210 -0.4388  0.8402
  187DOPC    C222996   4.303   2.735  12.058  0.2928  0.2170  0.2251
  187DOPC    HS22997   4.192   2.737  12.055  0.2977  0.5450  0.2027
  187DOPC   O2122998   4.361   2.868  12.050 -0.1051 -0.0265  0.7588
  187DOPC   C2122999   4.274   2.966  12.073 -0.2480  0.1804 -0.3235
  187DOPC   O2223000   4.157   2.958  12.098  0.0127 -0.6731  0.1370
  187DOPC   C2223001   4.348   3.099  12.076  0.5064  0.3478  0.0152
  187DOPC   H2R23002   4.339   3.127  11.968 -3.9029 -0.9351 -0.1400
  187DOPC   H2S23003   4.451   3.080  12.112  0.1635 -1.7870 -0.0169
  187DOPC    C323004   4.364   2.664  12.182 -0.4033 -0.7982 -1.1133
  187DOPC    HX23005   4.468   2.638  12.154  0.0745  0.1940 -0.2890
  187DOPC    HY23006   4.307   2.569  12.188 -1.6888 -0.2031 -2.9477
  187DOPC   O3123007   4.352   2.748  12.303  0.3491 -0.6033  0.2980
  187DOPC   C3123008   4.388   2.681  12.413  0.1202  0.3660  0.0157
  187DOPC   O3223009   4.400   2.560  12.410  0.2511 -0.1554  0.0839
  187DOPC   C3223010   4.399   2.782  12.530 -0.0570 -0.2646  0.9301
  187DOPC   H2X23011   4.499   2.830  12.535 -0.0582 -0.1889  0.2206
  187DOPC   H2Y23012   4.332   2.869  12.514 -0.1184 -0.5867 -0.7889
  187DOPC   C2323013   4.288   3.192  12.174  0.0604 -0.2690 -0.0467
  187DOPC   H3R23014   4.182   3.217  12.156  0.0514 -1.2364 -1.4484
  187DOPC   H3S23015   4.330   3.295  12.179  0.7603 -0.5941  3.3076
  187DOPC   C2423016   4.292   3.145  12.322  0.2456 -0.1801  0.5932
  187DOPC   H4R23017   4.395   3.117  12.354 -0.3387 -1.0677  1.7830
  187DOPC   H4S23018   4.241   3.047  12.332 -0.6418  0.1779 -0.2581
  187DOPC   C2523019   4.254   3.242  12.429  0.9732  0.1666 -0.5225
  187DOPC   H5R23020   4.146   3.270  12.432  1.4509  2.0624  1.1913
  187DOPC   H5S23021   4.316   3.333  12.418  0.1610  0.8831  0.5438
  187DOPC   C2623022   4.283   3.179  12.561 -0.1658  0.3447  1.0095
  187DOPC   H6R23023   4.391   3.168  12.586 -0.3097 -1.2538  1.0768
  187DOPC   H6S23024   4.246   3.074  12.567 -1.1616  0.7447  2.3575
  187DOPC   C2723025   4.214   3.260  12.671 -0.1813 -0.2988 -0.5289
  187DOPC   H7R23026   4.106   3.237  12.663  0.3768 -3.1182 -1.1335
  187DOPC   H7S23027   4.245   3.364  12.648  2.6096 -0.5627  1.4974
  187DOPC   C2823028   4.271   3.244  12.818  0.0814  0.6278 -1.3944
  187DOPC   H8R23029   4.269   3.344  12.866 -1.1968 -0.0368  0.0165
  187DOPC   H8S23030   4.375   3.206  12.815 -0.1711 -0.3169  0.6684
  187DOPC   C2923031   4.174   3.162  12.903 -0.3184 -0.0098 -0.0998
  187DOPC   H9R23032   4.103   3.092  12.857  0.6042 -0.5468 -0.7305
  187DOPC  C21023033   4.173   3.190  13.033 -0.2418  0.3178  0.0376
  187DOPC  H10R23034   4.083   3.154  13.085  0.4584  1.1435  1.9034
  187DOPC  C21123035   4.272   3.278  13.111 -0.1460  0.5084  0.0282
  187DOPC  H11R23036   4.278   3.381  13.068 -1.0158  0.4350 -0.2874
  187DOPC  H11S23037   4.373   3.242  13.085 -0.7348 -0.7274 -0.6028
  187DOPC  C21223038   4.239   3.288  13.268 -0.5572 -0.0730 -0.3495
  187DOPC  H12R23039   4.183   3.201  13.309  0.0994 -0.6325 -0.6278
  187DOPC  H12S23040   4.165   3.369  13.284  0.8432  1.1156  0.3012
  187DOPC  C21323041   4.370   3.297  13.346 -0.1206 -0.4437 -0.2656
  187DOPC  H13R23042   4.425   3.205  13.317 -2.4798 -2.0851  0.0983
  187DOPC  H13S23043   4.346   3.281  13.453 -0.0369  0.5711 -0.0880
  187DOPC  C21423044   4.455   3.424  13.332 -0.1093  0.3498 -0.1485
  187DOPC  H14R23045   4.395   3.510  13.369 -1.5217 -0.1014 -1.3211
  187DOPC  H14S23046   4.478   3.437  13.224 -0.7085  1.1213 -0.1905
  187DOPC  C21523047   4.592   3.423  13.407  0.4083  0.4651  0.2608
  187DOPC  H15R23048   4.574   3.390  13.512 -1.4428  1.4865  0.3090
  187DOPC  H15S23049   4.635   3.525  13.403  0.5050  0.4856  1.4266
  187DOPC  C21623050   4.714   3.343  13.343  0.3706 -0.2086  0.0280
  187DOPC  H16R23051   4.734   3.378  13.240  1.6185 -0.5503  0.1371
  187DOPC  H16S23052   4.680   3.237  13.333 -0.6042  0.0248  0.6798
  187DOPC  C21723053   4.831   3.356  13.433  0.0836  0.2979 -0.0666
  187DOPC  H17R23054   4.799   3.315  13.531  2.9842  0.3590  0.9987
  187DOPC  H17S23055   4.854   3.465  13.434  0.6466  0.2186 -1.8084
  187DOPC  C21823056   4.948   3.280  13.385 -0.1160 -0.1810  0.0683
  187DOPC  H18R23057   4.932   3.171  13.369  2.4636 -0.5444 -0.5877
  187DOPC  H18S23058   5.030   3.285  13.460  1.1565 -3.4077 -0.9139
  187DOPC  H18T23059   4.991   3.333  13.296 -0.2330  2.2578  1.3810
  187DOPC   C3323060   4.366   2.721  12.668 -0.3217 -0.7383  0.0000
  187DOPC   H3X23061   4.415   2.623  12.682  1.5271  0.1183 -0.2000
  187DOPC   H3Y23062   4.257   2.703  12.685 -0.8085  1.2398 -0.7434
  187DOPC   C3423063   4.407   2.813  12.790 -0.2544 -0.1163 -0.3044
  187DOPC   H4X23064   4.368   2.914  12.766  2.3388  1.0748  0.1270
  187DOPC   H4Y23065   4.517   2.798  12.804 -0.0374  1.2080 -0.4820
  187DOPC   C3523066   4.351   2.756  12.917 -0.4929 -0.0415  0.0408
  187DOPC   H5X23067   4.397   2.656  12.936 -0.5491 -0.1729 -0.4988
  187DOPC   H5Y23068   4.246   2.730  12.893 -0.4108 -0.1113 -0.2419
  187DOPC   C3623069   4.366   2.838  13.048 -0.8279  0.0970  0.6156
  187DOPC   H6X23070   4.473   2.868  13.049 -0.6530 -0.0011 -2.8896
  187DOPC   H6Y23071   4.305   2.930  13.036  0.9822  1.1829 -0.8399
  187DOPC   C3723072   4.324   2.772  13.181  0.6343  0.5442  0.7300
  187DOPC   H7X23073   4.218   2.737  13.177  0.2865  1.3636  2.0519
  187DOPC   H7Y23074   4.383   2.680  13.199 -0.1725  0.2226  1.9008
  187DOPC   C3823075   4.317   2.870  13.301  0.1245  0.3481  0.0909
  187DOPC   H8X23076   4.283   2.827  13.398 -1.3111  0.8690 -0.1642
  187DOPC   H8Y23077   4.247   2.955  13.284 -0.3462  0.6453  2.8988
  187DOPC   C3923078   4.453   2.930  13.319 -0.6898  0.2894  0.1936
  187DOPC   H9X23079   4.493   2.990  13.236  0.3750 -0.9122 -0.1957
  187DOPC  C31023080   4.522   2.943  13.439  0.4065 -0.2129 -0.3187
  187DOPC  H10X23081   4.603   3.016  13.446 -0.6628  0.8832  1.2327
  187DOPC  C31123082   4.486   2.873  13.571 -0.2842 -0.6631  0.3247
  187DOPC  H11X23083   4.580   2.824  13.605 -0.3150 -0.3051  0.9497
  187DOPC  H11Y23084   4.406   2.796  13.570 -0.3125 -0.6670  1.4706
  187DOPC  C31223085   4.456   2.988  13.665  0.4749 -0.0219  0.6191
  187DOPC  H12X23086   4.370   3.047  13.627 -0.1880  0.1725  2.3230
  187DOPC  H12Y23087   4.539   3.056  13.695 -0.0862  1.3350 -0.7986
  187DOPC  C31323088   4.402   2.928  13.799 -0.0505 -0.3601 -0.4766
  187DOPC  H13X23089   4.292   2.918  13.793  0.2010 -3.1340 -1.5578
  187DOPC  H13Y23090   4.444   2.828  13.820  2.3761  0.9689  1.6922
  187DOPC  C31423091   4.444   3.000  13.928 -0.0988  0.1424 -0.2003
  187DOPC  H14X23092   4.555   3.003  13.927 -0.0966  0.0801 -0.1562
  187DOPC  H14Y23093   4.406   3.104  13.918  1.8138  0.7533 -1.5967
  187DOPC  C31523094   4.391   2.943  14.062 -0.3437  0.1797 -0.0112
  187DOPC  H15X23095   4.414   2.834  14.071 -0.6721 -0.1059 -1.9890
  187DOPC  H15Y23096   4.280   2.945  14.061 -0.3757  2.7436  1.3072
  187DOPC  C31623097   4.447   3.024  14.175 -0.7689 -0.0559  0.6189
  187DOPC  H16X23098   4.557   3.008  14.168 -0.8012  0.1759 -0.7624
  187DOPC  H16Y23099   4.418   3.129  14.153 -0.1580 -0.0049  0.0185
  187DOPC  C31723100   4.396   2.981  14.316  0.0520 -0.1085  0.1178
  187DOPC  H17X23101   4.415   3.068  14.382 -1.4225  1.6725 -1.6479
  187DOPC  H17Y23102   4.287   2.980  14.293  0.1688  0.2734 -0.4521
  187DOPC  C31823103   4.453   2.842  14.355 -0.0738 -0.0887 -0.1980
  187DOPC  H18X23104   4.562   2.861  14.357 -0.3528  2.0100 -1.5993
  187DOPC  H18Y23105   4.416   2.800  14.451 -1.0147 -1.1322 -0.9990
  187DOPC  H18Z23106   4.417   2.774  14.275 -1.3266 -1.8454  1.7709
  188DOPC     N23107   0.281   2.960  11.340  0.2554 -0.7780  0.1023
  188DOPC   C1223108   0.304   2.848  11.435 -0.3029  0.0552 -0.6296
  188DOPC  H12A23109   0.384   2.783  11.400 -0.7566  0.5600 -2.7531
  188DOPC  H12B23110   0.222   2.779  11.425 -1.0854  0.7868  0.5269
  188DOPC   C1323111   0.206   2.915  11.215  0.2516  0.2777 -1.0716
  188DOPC  H13A23112   0.181   2.989  11.140 -0.5533 -0.1027 -1.1850
  188DOPC  H13B23113   0.256   2.828  11.175  2.4108 -0.3587  2.5408
  188DOPC  H13C23114   0.109   2.878  11.242 -0.2761  2.2550 -0.0876
  188DOPC   C1423115   0.410   3.022  11.299 -0.2871  0.4543  0.0584
  188DOPC  H14A23116   0.472   2.947  11.252 -1.1616 -0.5844  0.5060
  188DOPC  H14B23117   0.412   3.117  11.248 -3.6148  0.9225  0.5470
  188DOPC  H14C23118   0.469   3.036  11.388  0.3559 -1.7507  0.0348
  188DOPC   C1523119   0.194   3.060  11.415  0.4596  0.1727  0.4612
  188DOPC  H15A23120   0.256   3.101  11.494 -1.6678  0.4811  2.0642
  188DOPC  H15B23121   0.110   3.013  11.465  0.7067  2.1591  2.9492
  188DOPC  H15C23122   0.150   3.136  11.352  2.1989  1.4355  0.6961
  188DOPC   C1123123   0.319   2.873  11.593  1.0422  0.0098  0.0784
  188DOPC  H11A23124   0.227   2.907  11.644  0.0508 -1.4244 -0.7164
  188DOPC  H11B23125   0.349   2.776  11.638  2.5604 -0.5730 -1.9911
  188DOPC     P23126   0.438   3.068  11.719 -0.1700 -0.0929 -0.3310
  188DOPC   O1323127   0.312   3.146  11.719  0.2033  0.1117  0.4404
  188DOPC   O1423128   0.556   3.156  11.687  0.0086  0.0383 -0.2401
  188DOPC   O1223129   0.432   2.956  11.612 -0.2968  0.3287 -0.5753
  188DOPC   O1123130   0.446   2.986  11.853 -0.3544 -0.1396  0.2030
  188DOPC    C123131   0.574   2.915  11.863  0.3407 -0.1523  0.0804
  188DOPC    HA23132   0.663   2.979  11.846  1.1921 -1.3642 -0.1248
  188DOPC    HB23133   0.582   2.835  11.787 -0.6606  1.4778 -1.8393
  188DOPC    C223134   0.588   2.848  12.005  0.2468 -0.0671  0.9869
  188DOPC    HS23135   0.559   2.928  12.076  0.6227 -0.8879  2.0809
  188DOPC   O2123136   0.728   2.813  12.019  0.1433  0.1076  0.1798
  188DOPC   C2123137   0.791   2.841  12.127  0.1731 -0.6720 -0.2766
  188DOPC   O2223138   0.737   2.899  12.225 -0.0903 -0.4994 -0.2204
  188DOPC   C2223139   0.935   2.791  12.109  0.4435 -0.0469  0.1071
  188DOPC   H2R23140   0.975   2.866  12.037 -0.7505 -0.5731 -1.1316
  188DOPC   H2S23141   0.927   2.692  12.059 -1.6439  0.3727 -0.4895
  188DOPC    C323142   0.495   2.727  12.013  0.0584  0.1520 -0.5724
  188DOPC    HX23143   0.518   2.656  11.931 -1.0132 -2.1767  1.0111
  188DOPC    HY23144   0.387   2.754  12.010  0.3458  1.3229 -0.7931
  188DOPC   O3123145   0.527   2.653  12.141 -0.3296  0.0159  0.2392
  188DOPC   C3123146   0.486   2.716  12.248  0.0859  0.6657 -0.1766
  188DOPC   O3223147   0.436   2.821  12.253 -0.1140 -0.2502  0.2754
  188DOPC   C3223148   0.527   2.636  12.372 -0.2112 -0.0334 -0.3544
  188DOPC   H2X23149   0.529   2.527  12.349 -0.3976  0.0065 -0.5583
  188DOPC   H2Y23150   0.629   2.668  12.401  0.0701 -2.2735  1.4247
  188DOPC   C2323151   1.022   2.794  12.234 -0.1083 -0.2505  0.9348
  188DOPC   H3R23152   1.034   2.898  12.271  3.1896 -0.1739  0.0290
  188DOPC   H3S23153   1.120   2.749  12.206  0.2121  0.9262  0.0380
  188DOPC   C2423154   0.965   2.710  12.354  0.3436 -0.5170  0.1047
  188DOPC   H4R23155   0.956   2.603  12.326 -0.0741 -0.2403 -0.8516
  188DOPC   H4S23156   0.863   2.742  12.382 -0.2389 -2.8572  0.8586
  188DOPC   C2523157   1.057   2.722  12.479  0.1228 -0.1696 -0.4229
  188DOPC   H5R23158   1.072   2.830  12.499 -0.8621  0.4828 -2.8580
  188DOPC   H5S23159   1.150   2.677  12.437 -0.5212 -0.0279 -2.0843
  188DOPC   C2623160   1.017   2.629  12.596 -0.4445 -0.1237  0.2369
  188DOPC   H6R23161   1.008   2.526  12.554 -2.2498  0.4862 -1.0410
  188DOPC   H6S23162   0.910   2.639  12.625 -0.1828 -1.5295  1.8661
  188DOPC   C2723163   1.104   2.648  12.723  1.3182  0.2816  0.0308
  188DOPC   H7R23164   1.212   2.633  12.699  1.4632  1.0150  0.2034
  188DOPC   H7S23165   1.071   2.563  12.787  0.2915  0.2849 -0.4734
  188DOPC   C2823166   1.097   2.794  12.787  0.2324  0.2520  0.0127
  188DOPC   H8R23167   1.133   2.872  12.716  1.3050 -0.2191  0.0144
  188DOPC   H8S23168   1.174   2.795  12.868 -0.4090 -0.2578  0.6410
  188DOPC   C2923169   0.953   2.827  12.837 -0.0012  0.5960  0.3286
  188DOPC   H9R23170   0.881   2.855  12.758  0.5071  1.7702  0.2591
  188DOPC  C21023171   0.911   2.824  12.967  0.6706  0.2106 -0.1466
  188DOPC  H10R23172   0.807   2.851  12.990  0.7354 -0.4769  1.0384
  188DOPC  C21123173   0.991   2.786  13.089 -0.1919 -0.0439  0.7404
  188DOPC  H11R23174   1.027   2.867  13.156  0.3914 -0.6920  1.2166
  188DOPC  H11S23175   1.084   2.740  13.049  0.2232  0.0777  1.5478
  188DOPC  C21223176   0.932   2.684  13.187 -0.2008  0.1846  0.4948
  188DOPC  H12R23177   0.906   2.589  13.135 -1.8619 -0.0246  1.6138
  188DOPC  H12S23178   0.839   2.726  13.232 -0.4887  0.4445 -0.3265
  188DOPC  C21323179   1.025   2.658  13.305 -0.5990  0.2158 -0.3726
  188DOPC  H13R23180   0.966   2.614  13.389 -0.5169  1.9960  0.6834
  188DOPC  H13S23181   1.067   2.755  13.340  0.6471 -0.4063 -0.0881
  188DOPC  C21423182   1.153   2.565  13.294 -0.2435  0.2933 -0.5999
  188DOPC  H14R23183   1.232   2.619  13.236  3.4605 -2.4579  1.4772
  188DOPC  H14S23184   1.144   2.470  13.237  0.7811 -1.0684  1.3894
  188DOPC  C21523185   1.216   2.534  13.432 -0.1497  0.2813  0.6227
  188DOPC  H15R23186   1.245   2.627  13.485 -0.0580  0.6354 -0.0486
  188DOPC  H15S23187   1.312   2.484  13.407 -1.1450 -0.4360 -2.0388
  188DOPC  C21623188   1.136   2.428  13.511 -0.0256 -0.3627 -0.1595
  188DOPC  H16R23189   1.144   2.336  13.450 -1.1000 -0.4359 -0.2194
  188DOPC  H16S23190   1.027   2.445  13.529  0.0789  1.5065 -1.0169
  188DOPC  C21723191   1.199   2.388  13.649  0.1022  0.0480  0.2734
  188DOPC  H17R23192   1.206   2.476  13.716  2.5683 -1.4778  2.1615
  188DOPC  H17S23193   1.301   2.353  13.624 -0.5975 -1.5520 -0.5022
  188DOPC  C21823194   1.122   2.279  13.724 -0.4530  0.2057  0.1556
  188DOPC  H18R23195   1.020   2.310  13.754 -0.2147  0.7256  0.4406
  188DOPC  H18S23196   1.179   2.236  13.809 -0.4895 -0.5268 -0.1846
  188DOPC  H18T23197   1.097   2.192  13.659  2.1817 -0.1828 -0.4575
  188DOPC   C3323198   0.443   2.668  12.496 -0.0651  0.4158  0.2982
  188DOPC   H3X23199   0.338   2.667  12.459  0.3865 -2.0433 -1.1821
  188DOPC   H3Y23200   0.466   2.769  12.534  0.7455  0.0335  0.8613
  188DOPC   C3423201   0.460   2.565  12.610 -0.1439  0.0381  0.0011
  188DOPC   H4X23202   0.482   2.466  12.565  0.9240 -0.0459  0.6711
  188DOPC   H4Y23203   0.366   2.574  12.670  0.0206  3.6884 -0.0740
  188DOPC   C3523204   0.581   2.603  12.703 -0.0167 -0.4339 -0.1835
  188DOPC   H5X23205   0.577   2.703  12.750 -0.2826  0.0518 -1.2159
  188DOPC   H5Y23206   0.671   2.609  12.637 -0.7421  0.9405 -1.0901
  188DOPC   C3623207   0.597   2.495  12.804  0.4449  0.5111 -0.2241
  188DOPC   H6X23208   0.503   2.445  12.837  0.9212  0.4347  1.0784
  188DOPC   H6Y23209   0.660   2.418  12.755 -0.1211  0.6880 -1.2645
  188DOPC   C3723210   0.667   2.538  12.934 -0.1837  0.0732 -0.2618
  188DOPC   H7X23211   0.774   2.556  12.912  0.1357 -1.0636  0.3503
  188DOPC   H7Y23212   0.613   2.625  12.978 -2.4765 -0.6160 -1.5475
  188DOPC   C3823213   0.674   2.425  13.034  0.2075 -0.4251 -0.2960
  188DOPC   H8X23214   0.777   2.431  13.075 -0.1301 -0.5380  0.5753
  188DOPC   H8Y23215   0.679   2.328  12.979 -0.1344 -2.7167  3.3513
  188DOPC   C3923216   0.559   2.412  13.129 -0.7567 -0.3447 -0.6439
  188DOPC   H9X23217   0.457   2.406  13.087 -0.9380  0.2238 -0.2861
  188DOPC  C31023218   0.567   2.402  13.261 -0.2392 -0.3808  0.1093
  188DOPC  H10X23219   0.475   2.411  13.319  0.5661  0.4966  1.2858
  188DOPC  C31123220   0.679   2.403  13.355 -0.2860  0.0685 -0.0885
  188DOPC  H11X23221   0.764   2.470  13.329 -0.2390  0.5757  1.2998
  188DOPC  H11Y23222   0.725   2.303  13.372  2.5285  1.4671  1.3525
  188DOPC  C31223223   0.640   2.456  13.493 -0.5673  0.4229 -0.0656
  188DOPC  H12X23224   0.565   2.388  13.538  0.0418 -0.1357  0.1130
  188DOPC  H12Y23225   0.588   2.553  13.477 -2.2744 -0.3796  0.3795
  188DOPC  C31323226   0.756   2.490  13.589 -0.2259 -0.5567  0.4662
  188DOPC  H13X23227   0.794   2.388  13.607 -2.2325 -1.5249 -0.4916
  188DOPC  H13Y23228   0.827   2.552  13.529 -0.2797  1.1074  2.0240
  188DOPC  C31423229   0.715   2.555  13.723 -0.3833 -0.2896 -0.6147
  188DOPC  H14X23230   0.649   2.639  13.694 -1.5646 -1.3045 -0.9425
  188DOPC  H14Y23231   0.669   2.475  13.786  1.5140 -0.2031  0.9940
  188DOPC  C31523232   0.835   2.612  13.794  0.1490 -0.0538  0.3289
  188DOPC  H15X23233   0.882   2.683  13.723 -0.8020 -1.4695 -1.8279
  188DOPC  H15Y23234   0.914   2.540  13.823 -1.1060 -1.4825  0.3704
  188DOPC  C31623235   0.799   2.698  13.915  0.6290  1.1866 -0.0061
  188DOPC  H16X23236   0.748   2.793  13.887  0.9421  1.8314  1.4954
  188DOPC  H16Y23237   0.728   2.640  13.978  0.5086  1.5149  0.1666
  188DOPC  C31723238   0.937   2.741  13.979 -0.1565  0.2195  0.2130
  188DOPC  H17X23239   0.909   2.765  14.084 -2.6009  0.1095 -0.3527
  188DOPC  H17Y23240   0.999   2.650  13.966 -1.2035 -1.0680  3.3516
  188DOPC  C31823241   1.006   2.860  13.910 -0.1730 -0.2787  0.2367
  188DOPC  H18X23242   1.047   2.833  13.811 -1.4635  0.3566 -0.5016
  188DOPC  H18Y23243   0.932   2.941  13.888 -0.1014 -0.5162 -0.9342
  188DOPC  H18Z23244   1.091   2.892  13.974  0.3056 -0.5302 -0.2750
  189DOPC     N23245   3.032   1.372  10.708 -0.0599 -0.2131 -0.7098
  189DOPC   C1223246   2.921   1.270  10.734  0.5265  0.1484 -0.3057
  189DOPC  H12A23247   2.950   1.177  10.688 -1.3044 -0.4746 -0.2758
  189DOPC  H12B23248   2.835   1.306  10.680  0.1873 -1.1194 -0.6184
  189DOPC   C1323249   3.137   1.369  10.820 -0.3617 -0.3196  0.2189
  189DOPC  H13A23250   3.183   1.467  10.826 -1.9500  0.6279 -1.6602
  189DOPC  H13B23251   3.102   1.338  10.918 -0.6628 -0.2471  0.1381
  189DOPC  H13C23252   3.218   1.303  10.796  1.0915  0.3508  2.9252
  189DOPC   C1423253   2.974   1.514  10.713  0.0270  0.5603 -0.0702
  189DOPC  H14A23254   3.055   1.584  10.720  0.5786 -0.0416 -0.2905
  189DOPC  H14B23255   2.926   1.535  10.619  0.5139 -1.6398 -0.8709
  189DOPC  H14C23256   2.896   1.522  10.787 -2.4471 -0.6946 -2.3812
  189DOPC   C1523257   3.097   1.361  10.577  0.2814  0.3140  0.4203
  189DOPC  H15A23258   3.182   1.427  10.566 -0.2403  1.1109  0.9981
  189DOPC  H15B23259   3.028   1.363  10.494  1.4052 -1.2331 -0.5989
  189DOPC  H15C23260   3.141   1.263  10.571 -1.2600 -0.9525  5.0297
  189DOPC   C1123261   2.884   1.254  10.881  0.7952  0.3043 -0.3701
  189DOPC  H11A23262   2.802   1.179  10.886  2.0207 -1.0590 -0.2539
  189DOPC  H11B23263   2.960   1.200  10.941  2.1459 -0.1301 -2.4042
  189DOPC     P23264   2.706   1.431  10.939 -0.0886 -0.0095  0.1415
  189DOPC   O1323265   2.621   1.355  10.841 -0.0692 -0.2036  0.4931
  189DOPC   O1423266   2.713   1.579  10.923  0.2075  0.5936  0.2104
  189DOPC   O1223267   2.852   1.380  10.950 -0.4026 -0.3350 -0.0303
  189DOPC   O1123268   2.659   1.391  11.080  0.2576  0.0882 -0.9740
  189DOPC    C123269   2.704   1.477  11.196 -0.2748 -0.0096 -0.1725
  189DOPC    HA23270   2.735   1.578  11.162 -0.2185 -0.5721 -1.8689
  189DOPC    HB23271   2.799   1.436  11.238  0.5405  1.3188 -0.6625
  189DOPC    C223272   2.613   1.473  11.323  0.3363  0.5390  0.4714
  189DOPC    HS23273   2.684   1.495  11.406  1.1506 -1.2213  0.2939
  189DOPC   O2123274   2.556   1.341  11.338 -0.1920  0.3578 -0.3788
  189DOPC   C2123275   2.623   1.264  11.429  0.5647  0.2672  1.3769
  189DOPC   O2223276   2.723   1.284  11.483 -0.0070  0.2047  0.5394
  189DOPC   C2223277   2.532   1.143  11.454  0.0061 -0.5681  0.3810
  189DOPC   H2R23278   2.589   1.069  11.514  0.7103 -0.2034  0.1703
  189DOPC   H2S23279   2.502   1.097  11.357 -0.8639  1.4845 -0.3903
  189DOPC    C323280   2.499   1.580  11.325 -1.0462 -0.1092  0.6451
  189DOPC    HX23281   2.443   1.570  11.230 -1.0240  0.7885  0.5289
  189DOPC    HY23282   2.551   1.678  11.324 -1.5161  0.1447 -0.2798
  189DOPC   O3123283   2.407   1.573  11.435 -0.1358  0.0972 -0.3509
  189DOPC   C3123284   2.462   1.607  11.557 -0.0512  0.1316 -0.5541
  189DOPC   O3223285   2.580   1.632  11.580  0.3033  0.2398  0.0995
  189DOPC   C3223286   2.348   1.596  11.663  0.9047  0.7268 -0.2167
  189DOPC   H2X23287   2.259   1.655  11.631  0.8612  0.5628 -0.4007
  189DOPC   H2Y23288   2.324   1.487  11.665  3.6478 -0.0306 -2.4029
  189DOPC   C2323289   2.399   1.187  11.529  0.0139  0.2599 -0.5166
  189DOPC   H3R23290   2.330   1.101  11.530  0.7010 -0.3409 -1.8956
  189DOPC   H3S23291   2.349   1.274  11.480  1.7706  1.8030  0.2842
  189DOPC   C2423292   2.425   1.224  11.681  1.0263 -0.1666  0.5389
  189DOPC   H4R23293   2.483   1.317  11.701 -0.6042  0.8320  0.7490
  189DOPC   H4S23294   2.484   1.142  11.728  1.5499  0.5325  1.1242
  189DOPC   C2523295   2.291   1.226  11.765  0.5435  0.5905  0.1147
  189DOPC   H5R23296   2.236   1.130  11.754  1.4882 -0.3669  2.7541
  189DOPC   H5S23297   2.234   1.304  11.711 -0.4455  0.4036  0.8623
  189DOPC   C2623298   2.306   1.259  11.915 -0.8087 -0.2849  0.6294
  189DOPC   H6R23299   2.207   1.294  11.952 -1.1624 -1.6678  1.0556
  189DOPC   H6S23300   2.376   1.344  11.924  0.3867 -1.1706 -0.0971
  189DOPC   C2723301   2.367   1.149  11.993 -0.4008 -0.1464 -0.4306
  189DOPC   H7R23302   2.464   1.118  11.948 -0.7969  2.4351 -3.4489
  189DOPC   H7S23303   2.303   1.061  11.973  1.0394 -1.2537 -0.3478
  189DOPC   C2823304   2.394   1.179  12.143  0.5137 -0.2116  0.1391
  189DOPC   H8R23305   2.442   1.279  12.156  0.7429 -0.2586 -0.3036
  189DOPC   H8S23306   2.461   1.108  12.195  1.9711  1.4153  0.6002
  189DOPC   C2923307   2.262   1.188  12.222  0.1872 -0.6570  0.9273
  189DOPC   H9R23308   2.168   1.218  12.172 -1.0066 -2.3238  2.0495
  189DOPC  C21023309   2.254   1.160  12.351 -0.1207 -0.0363  0.0253
  189DOPC  H10R23310   2.156   1.164  12.401  0.8867 -0.8051  2.2123
  189DOPC  C21123311   2.372   1.148  12.446  0.4045  0.5791  0.4095
  189DOPC  H11R23312   2.416   1.249  12.462  0.8679  0.5343 -0.5750
  189DOPC  H11S23313   2.447   1.073  12.413 -1.3025 -1.5803  1.1932
  189DOPC  C21223314   2.338   1.098  12.585  0.0946 -0.2479  0.6118
  189DOPC  H12R23315   2.305   0.992  12.588  0.6116 -0.3881  2.9182
  189DOPC  H12S23316   2.269   1.169  12.634  1.0983  1.4439 -0.3292
  189DOPC  C21323317   2.461   1.097  12.674 -0.6860 -0.0214  0.3886
  189DOPC  H13R23318   2.485   1.205  12.689 -1.0416  0.2087 -0.6019
  189DOPC  H13S23319   2.549   1.049  12.625 -2.0605 -1.3744 -0.8677
  189DOPC  C21423320   2.426   1.025  12.806  0.0045 -0.7070  0.1396
  189DOPC  H14R23321   2.407   0.922  12.770  0.2294 -0.8470  0.4193
  189DOPC  H14S23322   2.341   1.079  12.854  0.9518  0.3385  0.7101
  189DOPC  C21523323   2.534   1.033  12.917 -0.2585  0.5786  0.8379
  189DOPC  H15R23324   2.550   1.141  12.940 -0.6280  0.6683  0.6793
  189DOPC  H15S23325   2.626   0.978  12.889  1.0122  2.7304  0.5740
  189DOPC  C21623326   2.492   0.964  13.054 -0.4228 -0.4339 -0.2554
  189DOPC  H16R23327   2.460   0.858  13.044 -0.7549 -0.3054 -0.5820
  189DOPC  H16S23328   2.401   1.017  13.091 -2.2719 -3.7378  0.3512
  189DOPC  C21723329   2.601   0.975  13.165  0.3595 -0.3200 -0.1722
  189DOPC  H17R23330   2.643   1.079  13.164  1.1332 -0.6176 -1.2955
  189DOPC  H17S23331   2.687   0.907  13.147  0.9292  0.4924 -0.5895
  189DOPC  C21823332   2.549   0.950  13.305 -0.1310 -1.1675 -1.1231
  189DOPC  H18R23333   2.493   1.041  13.335 -0.7249 -1.5057 -1.2030
  189DOPC  H18S23334   2.638   0.948  13.373 -0.2235  1.4059 -0.8289
  189DOPC  H18T23335   2.489   0.858  13.319  0.0446 -1.0678  0.4572
  189DOPC   C3323336   2.403   1.655  11.802  0.8980  0.1187 -1.3472
  189DOPC   H3X23337   2.439   1.759  11.791 -2.3990  1.5398  0.0427
  189DOPC   H3Y23338   2.488   1.590  11.833  0.7276  0.5779  0.1188
  189DOPC   C3423339   2.293   1.660  11.908 -0.3023 -0.4184  0.3092
  189DOPC   H4X23340   2.233   1.567  11.911  1.3814 -1.5389  1.2340
  189DOPC   H4Y23341   2.217   1.732  11.872  0.8311 -0.5323 -2.5474
  189DOPC   C3523342   2.332   1.697  12.052 -1.1794  0.6199  0.1616
  189DOPC   H5X23343   2.241   1.707  12.116 -1.1204 -3.4728  1.1813
  189DOPC   H5Y23344   2.383   1.794  12.034 -2.1367  0.6420 -2.8216
  189DOPC   C3623345   2.426   1.594  12.124  0.5686  0.1927 -0.0118
  189DOPC   H6X23346   2.355   1.512  12.150  0.0131  0.7186  0.1594
  189DOPC   H6Y23347   2.494   1.563  12.043 -3.2938 -0.6953 -3.2302
  189DOPC   C3723348   2.502   1.655  12.246  0.2455  0.8511 -0.1234
  189DOPC   H7X23349   2.561   1.741  12.209  0.7084  0.4710 -0.2750
  189DOPC   H7Y23350   2.427   1.702  12.313  0.7373 -0.4249  1.3918
  189DOPC   C3823351   2.595   1.552  12.311  0.2903 -0.6395  0.0501
  189DOPC   H8X23352   2.657   1.508  12.230  0.6367 -0.7216  0.3555
  189DOPC   H8Y23353   2.532   1.474  12.359  0.6481 -0.0065  1.6037
  189DOPC   C3923354   2.675   1.619  12.420 -0.0160  0.4493 -0.8020
  189DOPC   H9X23355   2.785   1.623  12.416 -0.0600  1.6915 -1.3016
  189DOPC  C31023356   2.624   1.656  12.541 -0.2171 -0.0568 -0.4456
  189DOPC  H10X23357   2.689   1.713  12.609 -0.4102 -0.4257  0.0527
  189DOPC  C31123358   2.479   1.643  12.585  0.4037  0.0861  0.3404
  189DOPC  H11X23359   2.416   1.614  12.498  1.2774 -1.3184  0.1379
  189DOPC  H11Y23360   2.441   1.741  12.620  0.5421 -0.9459  3.7094
  189DOPC  C31223361   2.448   1.533  12.691  0.0536  0.3310  0.0521
  189DOPC  H12X23362   2.489   1.438  12.652 -2.7891 -0.3869 -1.5007
  189DOPC  H12Y23363   2.339   1.511  12.698  0.2737 -1.8502 -2.1668
  189DOPC  C31323364   2.508   1.568  12.827  0.3301 -0.2282 -0.2008
  189DOPC  H13X23365   2.618   1.565  12.814  0.1373 -1.8185 -2.0417
  189DOPC  H13Y23366   2.476   1.665  12.869 -1.3551 -0.5569 -0.6288
  189DOPC  C31423367   2.468   1.466  12.932  0.0327 -0.2930 -0.2581
  189DOPC  H14X23368   2.363   1.474  12.966  0.4076 -0.4237  1.0042
  189DOPC  H14Y23369   2.483   1.366  12.886 -2.0981 -0.3297 -0.9639
  189DOPC  C31523370   2.537   1.487  13.070  0.4819 -0.8883 -0.3484
  189DOPC  H15X23371   2.504   1.587  13.108  0.8961  0.3565 -2.9976
  189DOPC  H15Y23372   2.644   1.503  13.045  0.1436  1.0552 -0.7310
  189DOPC  C31623373   2.508   1.373  13.169 -0.3069  0.4187 -0.3661
  189DOPC  H16X23374   2.407   1.360  13.213  0.9867  1.7723  3.4145
  189DOPC  H16Y23375   2.522   1.278  13.114  2.8941  1.1142 -0.9217
  189DOPC  C31723376   2.607   1.378  13.295 -0.3891 -0.3337  0.5439
  189DOPC  H17X23377   2.627   1.273  13.326  0.6200 -0.0068  1.0591
  189DOPC  H17Y23378   2.708   1.417  13.268  0.1476 -1.6151  0.6505
  189DOPC  C31823379   2.549   1.460  13.406  1.0500 -0.1281 -0.6093
  189DOPC  H18X23380   2.526   1.563  13.372 -0.3992 -0.1287  0.2743
  189DOPC  H18Y23381   2.472   1.400  13.459  2.0194 -0.8135  0.0524
  189DOPC  H18Z23382   2.631   1.473  13.480  0.9451 -0.3706 -0.4472
  190DOPC     N23383   1.136   1.526  11.277  1.0062  0.2437 -0.1770
  190DOPC   C1223384   1.190   1.653  11.353  0.1387  0.5150  0.8356
  190DOPC  H12A23385   1.274   1.683  11.293 -1.6362  0.1284 -2.0472
  190DOPC  H12B23386   1.227   1.621  11.449  0.3528 -0.6758  0.3764
  190DOPC   C1323387   1.109   1.554  11.134 -0.2314 -0.4948  0.9650
  190DOPC  H13A23388   1.090   1.461  11.083 -0.2232 -0.2886  0.5806
  190DOPC  H13B23389   1.029   1.626  11.122 -1.9347 -2.5768 -1.1162
  190DOPC  H13C23390   1.194   1.590  11.079 -2.0204  0.1428 -1.5690
  190DOPC   C1423391   1.013   1.465  11.329 -0.1915  0.2541 -0.2401
  190DOPC  H14A23392   1.023   1.461  11.437 -0.3259  0.7187 -0.2076
  190DOPC  H14B23393   0.926   1.526  11.312  0.1126  0.4087 -1.2568
  190DOPC  H14C23394   0.981   1.376  11.279 -0.5949  0.9773 -1.3013
  190DOPC   C1523395   1.234   1.408  11.281 -0.0643  0.1109  0.2683
  190DOPC  H15A23396   1.331   1.448  11.258 -0.0199 -0.9926 -1.7155
  190DOPC  H15B23397   1.214   1.334  11.205  0.6020  1.1059 -0.8884
  190DOPC  H15C23398   1.238   1.365  11.380 -0.2206  1.5665  0.9217
  190DOPC   C1123399   1.092   1.766  11.374 -0.2059 -0.6580  0.4182
  190DOPC  H11A23400   1.010   1.735  11.442 -0.8406 -0.6318 -0.3264
  190DOPC  H11B23401   1.135   1.856  11.423  0.5692 -0.2859 -0.9058
  190DOPC     P23402   1.084   1.925  11.169  0.0499  0.0500  0.0752
  190DOPC   O1323403   1.000   1.933  11.047 -0.0194  0.2715 -0.1955
  190DOPC   O1423404   1.232   1.906  11.156  0.5162  0.1754  0.4561
  190DOPC   O1223405   1.032   1.803  11.251 -0.0245 -0.7352 -0.3503
  190DOPC   O1123406   1.068   2.053  11.255 -0.1926  0.0012 -0.2830
  190DOPC    C123407   0.939   2.109  11.270 -0.3378 -0.5853 -0.7716
  190DOPC    HA23408   0.854   2.038  11.276 -2.3637  1.4349 -3.1348
  190DOPC    HB23409   0.912   2.170  11.180 -0.8191 -0.7731 -0.7541
  190DOPC    C223410   0.935   2.197  11.399 -0.2803 -0.4176 -0.1564
  190DOPC    HS23411   1.017   2.271  11.393  0.2881 -1.0226  0.0657
  190DOPC   O2123412   0.925   2.110  11.514  0.1172 -0.3091 -0.2881
  190DOPC   C2123413   1.033   2.100  11.594 -0.7262 -0.2658 -0.5075
  190DOPC   O2223414   1.145   2.143  11.560 -0.6779 -0.4342  0.3092
  190DOPC   C2223415   1.002   2.011  11.715 -0.0845  0.8617 -0.2189
  190DOPC   H2R23416   0.963   1.911  11.687  0.4388  0.7313 -0.4932
  190DOPC   H2S23417   0.905   2.050  11.751 -0.3916  0.6923 -0.8599
  190DOPC    C323418   0.809   2.293  11.411 -0.1223 -0.1867  0.0854
  190DOPC    HX23419   0.728   2.223  11.441  0.9347 -1.3655  0.3157
  190DOPC    HY23420   0.798   2.347  11.315 -0.1178 -0.0078  0.1848
  190DOPC   O3123421   0.831   2.391  11.513  0.1048  0.3674  0.1648
  190DOPC   C3123422   0.778   2.369  11.624  0.2697 -0.3185 -0.5056
  190DOPC   O3223423   0.734   2.262  11.664 -0.4719 -0.6665  0.1334
  190DOPC   C3223424   0.771   2.502  11.698 -0.8036 -0.5135  0.3172
  190DOPC   H2X23425   0.875   2.539  11.709 -0.7762 -0.5109  0.0525
  190DOPC   H2Y23426   0.714   2.567  11.627  1.8680  1.5890 -0.0495
  190DOPC   C2323427   1.114   2.021  11.824 -0.3066 -0.2728  0.3179
  190DOPC   H3R23428   1.123   2.131  11.838 -0.9176 -0.0164 -1.0680
  190DOPC   H3S23429   1.204   1.964  11.793 -0.0757  0.3555 -0.2002
  190DOPC   C2423430   1.062   1.952  11.947 -0.0503  0.2554 -0.5753
  190DOPC   H4R23431   1.045   1.844  11.932  2.9596 -0.5126  0.7988
  190DOPC   H4S23432   0.967   2.004  11.973 -0.9376 -2.1548  1.3474
  190DOPC   C2523433   1.163   1.968  12.068  0.7610 -0.2577  0.0910
  190DOPC   H5R23434   1.200   2.073  12.069 -0.0050  0.0233  1.6421
  190DOPC   H5S23435   1.253   1.910  12.039  1.0006 -0.8814  1.9491
  190DOPC   C2623436   1.132   1.905  12.200  0.5008 -0.0147 -0.5405
  190DOPC   H6R23437   1.114   1.796  12.192 -3.4137  0.5425 -1.8584
  190DOPC   H6S23438   1.030   1.946  12.219  1.4564  1.5195  1.6859
  190DOPC   C2723439   1.243   1.941  12.305  0.5149 -0.4184 -0.1140
  190DOPC   H7R23440   1.261   2.049  12.287  2.2750 -0.6300  0.2234
  190DOPC   H7S23441   1.333   1.884  12.272  1.5403  0.2122  1.4894
  190DOPC   C2823442   1.206   1.904  12.454  0.2775 -0.3117  0.2446
  190DOPC   H8R23443   1.108   1.946  12.484  0.5352 -0.5094  1.4249
  190DOPC   H8S23444   1.287   1.952  12.512  1.1339 -0.5806 -0.6923
  190DOPC   C2923445   1.199   1.756  12.497 -0.6115  0.0816 -0.7072
  190DOPC   H9R23446   1.208   1.681  12.418 -0.5254  0.5959 -1.1945
  190DOPC  C21023447   1.193   1.703  12.623 -0.0155  0.3258  0.4756
  190DOPC  H10R23448   1.193   1.595  12.641  2.4406  0.0356 -0.8163
  190DOPC  C21123449   1.202   1.778  12.752 -0.5448 -0.1152  0.6176
  190DOPC  H11R23450   1.105   1.779  12.806 -0.2103 -1.0961  1.2569
  190DOPC  H11S23451   1.225   1.884  12.725  1.8784 -0.3933  1.3189
  190DOPC  C21223452   1.313   1.741  12.853  0.2981 -0.5054 -0.5510
  190DOPC  H12R23453   1.330   1.822  12.927 -0.3975  0.3968 -1.3556
  190DOPC  H12S23454   1.408   1.736  12.795  0.0750  0.7277 -1.0657
  190DOPC  C21323455   1.264   1.619  12.939  0.2224  0.3242  0.2888
  190DOPC  H13R23456   1.276   1.535  12.867  2.5580  0.6541  0.2073
  190DOPC  H13S23457   1.162   1.630  12.982  0.3871 -2.0824  1.4830
  190DOPC  C21423458   1.360   1.573  13.056 -0.0980  0.4219 -0.9166
  190DOPC  H14R23459   1.466   1.570  13.025  0.3334  1.4335  0.3703
  190DOPC  H14S23460   1.325   1.472  13.088 -0.4570  0.9502  0.4132
  190DOPC  C21523461   1.353   1.671  13.174  0.3024 -0.3499 -0.2959
  190DOPC  H15R23462   1.247   1.681  13.207  1.0043 -2.1359  2.8332
  190DOPC  H15S23463   1.384   1.773  13.143  0.1303  0.3389  1.6688
  190DOPC  C21623464   1.441   1.640  13.296  0.2685 -0.5393  0.8835
  190DOPC  H16R23465   1.422   1.719  13.372  1.0791 -2.4082  3.1479
  190DOPC  H16S23466   1.549   1.636  13.270  0.2432  1.5435  0.2474
  190DOPC  C21723467   1.403   1.507  13.356  0.1919  1.0487  0.2829
  190DOPC  H17R23468   1.430   1.427  13.284 -3.5926 -0.2972  0.1254
  190DOPC  H17S23469   1.295   1.502  13.382  0.2552 -5.3651  0.8982
  190DOPC  C21823470   1.487   1.467  13.473 -0.3068 -0.2208 -0.0187
  190DOPC  H18R23471   1.592   1.462  13.438 -0.0176 -0.5862  0.8564
  190DOPC  H18S23472   1.458   1.365  13.507  4.0817 -2.8293 -3.1907
  190DOPC  H18T23473   1.481   1.536  13.560  2.2767 -0.9750  0.8423
  190DOPC   C3323474   0.714   2.490  11.833 -0.4468  0.2985  0.2901
  190DOPC   H3X23475   0.604   2.473  11.830 -0.8973  2.9081 -0.8965
  190DOPC   H3Y23476   0.732   2.593  11.873  2.1875 -0.7499  2.0498
  190DOPC   C3423477   0.792   2.401  11.932 -1.5677  0.3227 -0.2157
  190DOPC   H4X23478   0.903   2.412  11.924 -1.6316 -0.2194 -2.4372
  190DOPC   H4Y23479   0.759   2.298  11.911 -2.3223 -0.2044  2.9480
  190DOPC   C3523480   0.744   2.435  12.075 -0.7166  0.5376  0.4022
  190DOPC   H5X23481   0.634   2.433  12.066 -0.7827  0.9501  1.0055
  190DOPC   H5Y23482   0.767   2.543  12.087  0.5790  0.4543 -0.9722
  190DOPC   C3623483   0.784   2.327  12.183  0.3106 -0.6332  0.1784
  190DOPC   H6X23484   0.756   2.231  12.135  2.3986 -1.9677  1.4402
  190DOPC   H6Y23485   0.896   2.327  12.184  0.4365  1.7394 -2.0408
  190DOPC   C3723486   0.723   2.341  12.321 -0.4759  0.4606 -0.0533
  190DOPC   H7X23487   0.766   2.433  12.366 -0.0005 -0.7672  2.1360
  190DOPC   H7Y23488   0.613   2.353  12.318 -0.4128  0.8474 -2.5485
  190DOPC   C3823489   0.763   2.224  12.418  0.4095 -0.4483 -0.4522
  190DOPC   H8X23490   0.717   2.128  12.388 -1.6445  0.6365 -1.0237
  190DOPC   H8Y23491   0.694   2.259  12.497  0.0589 -3.9099  0.9386
  190DOPC   C3923492   0.907   2.199  12.452  0.7018  0.1260  0.7816
  190DOPC   H9X23493   0.974   2.179  12.366 -0.1881  0.3538  0.0148
  190DOPC  C31023494   0.960   2.222  12.571 -0.1371  0.2649  0.5823
  190DOPC  H10X23495   1.065   2.190  12.583  0.5555  2.8824  2.3496
  190DOPC  C31123496   0.900   2.263  12.700 -0.7952  1.2270 -0.1639
  190DOPC  H11X23497   0.805   2.205  12.698  0.2965 -0.6258 -0.5366
  190DOPC  H11Y23498   0.885   2.372  12.712 -2.1535  0.9840  0.5410
  190DOPC  C31223499   0.971   2.231  12.832 -0.4022  0.3076  0.4787
  190DOPC  H12X23500   0.903   2.271  12.910 -2.5519 -0.4380 -0.9325
  190DOPC  H12Y23501   1.070   2.279  12.847  0.7987 -1.2169 -1.8441
  190DOPC  C31323502   0.986   2.082  12.880  0.5375  0.0829 -0.2118
  190DOPC  H13X23503   0.893   2.021  12.878  1.3604 -1.2302 -0.0146
  190DOPC  H13Y23504   1.051   2.029  12.807  2.4952  1.3310  0.5266
  190DOPC  C31423505   1.034   2.061  13.023  0.2877 -0.0782 -0.2915
  190DOPC  H14X23506   1.140   2.090  13.041  1.0075 -1.7648 -1.5406
  190DOPC  H14Y23507   0.975   2.122  13.094  0.0558 -1.1141  0.4280
  190DOPC  C31523508   1.009   1.913  13.076  0.0964  0.5050 -0.2060
  190DOPC  H15X23509   1.077   1.846  13.021  2.0212  0.6643  1.8112
  190DOPC  H15Y23510   0.904   1.886  13.054  0.4273 -0.3180 -0.8127
  190DOPC  C31623511   1.049   1.896  13.223 -0.0414  0.3334  0.3106
  190DOPC  H16X23512   1.044   1.789  13.252  0.1207  0.2118 -0.1047
  190DOPC  H16Y23513   1.149   1.940  13.242 -0.2250  0.4295  1.1035
  190DOPC  C31723514   0.973   1.978  13.330 -0.1085  0.1429 -0.1662
  190DOPC  H17X23515   0.979   2.089  13.320  1.9739  0.4264  3.0043
  190DOPC  H17Y23516   0.865   1.952  13.319  0.1953 -2.9971  2.6638
  190DOPC  C31823517   1.006   1.948  13.475 -0.3490 -0.1255 -0.3163
  190DOPC  H18X23518   0.944   2.000  13.551  1.8761  0.0155  1.4898
  190DOPC  H18Y23519   0.986   1.843  13.505  0.1110 -0.1520 -0.1036
  190DOPC  H18Z23520   1.112   1.972  13.495 -0.7702  0.4078  1.4598
  191DOPC     N23521   4.010   1.901  10.710  0.8322  0.3741 -0.3948
  191DOPC   C1223522   3.986   1.840  10.852 -0.2938 -0.2469  0.0389
  191DOPC  H12A23523   4.085   1.819  10.891 -0.4930 -1.7580 -0.2157
  191DOPC  H12B23524   3.939   1.743  10.852 -0.8664  0.0244  0.0249
  191DOPC   C1323525   4.094   1.804  10.629 -0.3731  0.3608 -0.3644
  191DOPC  H13A23526   4.066   1.700  10.633  2.1221 -0.3525  2.8709
  191DOPC  H13B23527   4.114   1.845  10.531 -0.8520 -0.9797 -1.0441
  191DOPC  H13C23528   4.196   1.802  10.664  0.1300 -0.2876 -1.7747
  191DOPC   C1423529   4.079   2.030  10.710 -0.4290 -0.4235  0.1955
  191DOPC  H14A23530   4.085   2.075  10.611  0.1183  2.4052  1.4118
  191DOPC  H14B23531   4.031   2.101  10.775 -0.5790 -1.5146  1.2948
  191DOPC  H14C23532   4.177   2.024  10.754 -1.0088 -0.3855  1.5251
  191DOPC   C1523533   3.874   1.912  10.639 -0.8303 -0.3468 -0.7674
  191DOPC  H15A23534   3.812   1.990  10.682 -0.7547 -0.6542 -0.0754
  191DOPC  H15B23535   3.821   1.819  10.657  0.4282 -1.3747 -2.2113
  191DOPC  H15C23536   3.887   1.923  10.533  0.1002  1.2276 -0.5256
  191DOPC   C1123537   3.903   1.923  10.951 -0.4425  0.1500  0.0849
  191DOPC  H11A23538   3.917   1.883  11.053 -0.6834 -0.5329 -0.1470
  191DOPC  H11B23539   3.943   2.027  10.951 -1.3467  0.5317 -1.3432
  191DOPC     P23540   3.682   1.798  10.946 -0.3675  0.5207  0.1812
  191DOPC   O1323541   3.765   1.671  10.950 -0.4088 -0.2059  0.1776
  191DOPC   O1423542   3.565   1.794  10.855  0.6512  0.2708  0.0170
  191DOPC   O1223543   3.770   1.920  10.899  0.0605  0.1555 -0.1219
  191DOPC   O1123544   3.631   1.840  11.089  0.4169  0.5110  0.2726
  191DOPC    C123545   3.563   1.743  11.163  0.6772  0.0683 -0.4648
  191DOPC    HA23546   3.568   1.636  11.133  0.3695  0.2424 -1.1373
  191DOPC    HB23547   3.456   1.770  11.152  0.4395  0.1889  1.7001
  191DOPC    C223548   3.606   1.749  11.312 -0.5730 -0.5800 -0.0530
  191DOPC    HS23549   3.642   1.650  11.346  0.2702  0.0071  0.8284
  191DOPC   O2123550   3.503   1.818  11.390 -0.7881  0.1080  0.2239
  191DOPC   C2123551   3.483   1.753  11.500  0.3586  0.2332  0.6878
  191DOPC   O2223552   3.546   1.654  11.543  0.3742  0.3419 -0.4776
  191DOPC   C2223553   3.366   1.822  11.572  0.6757 -0.2231 -0.5038
  191DOPC   H2R23554   3.288   1.843  11.495 -1.8169 -2.7791  1.1398
  191DOPC   H2S23555   3.403   1.921  11.606 -2.1974  1.0028 -0.6482
  191DOPC    C323556   3.736   1.845  11.318  0.4616 -0.1755  0.1738
  191DOPC    HX23557   3.702   1.947  11.290 -1.5158  0.0983  3.0687
  191DOPC    HY23558   3.821   1.813  11.255  2.0429  1.2698  1.4676
  191DOPC   O3123559   3.779   1.855  11.454  0.6051 -0.5489 -0.0909
  191DOPC   C3123560   3.834   1.757  11.519 -0.4331 -0.1802 -0.6868
  191DOPC   O3223561   3.870   1.652  11.470  0.0961 -0.2102 -0.4845
  191DOPC   C3223562   3.856   1.795  11.668  0.2369 -0.0711 -0.6179
  191DOPC   H2X23563   3.946   1.859  11.661 -0.2081  0.7197  0.5191
  191DOPC   H2Y23564   3.774   1.859  11.708  0.3081 -0.8766  0.8646
  191DOPC   C2323565   3.315   1.753  11.697 -0.1414  0.0787  0.5211
  191DOPC   H3R23566   3.279   1.655  11.661  2.5228 -0.2521 -1.6003
  191DOPC   H3S23567   3.219   1.802  11.724  2.0344  3.9354  2.1091
  191DOPC   C2423568   3.415   1.757  11.814 -0.4213 -0.1324  0.2816
  191DOPC   H4R23569   3.467   1.854  11.812  0.2834 -0.4712  1.2611
  191DOPC   H4S23570   3.490   1.675  11.817  0.4646  0.6967  1.4589
  191DOPC   C2523571   3.357   1.727  11.951 -0.0393  0.3801  0.3016
  191DOPC   H5R23572   3.304   1.629  11.949 -0.0513  0.3301 -3.0984
  191DOPC   H5S23573   3.276   1.800  11.975  0.1860  1.3799 -1.7949
  191DOPC   C2623574   3.454   1.741  12.066 -0.6522 -0.4292 -0.1333
  191DOPC   H6R23575   3.484   1.848  12.067 -0.9578 -0.2923  2.6123
  191DOPC   H6S23576   3.548   1.686  12.046  0.1737  1.5752 -2.1677
  191DOPC   C2723577   3.382   1.704  12.197  0.4038 -0.5334  0.0815
  191DOPC   H7R23578   3.319   1.615  12.175  2.3097 -1.5479 -1.5958
  191DOPC   H7S23579   3.304   1.781  12.215  0.0001 -1.1113  0.8853
  191DOPC   C2823580   3.458   1.679  12.326  0.3909  0.7154  0.0297
  191DOPC   H8R23581   3.526   1.592  12.311  0.1551  0.3967  0.7469
  191DOPC   H8S23582   3.382   1.643  12.399  1.4273  0.2515  0.9215
  191DOPC   C2923583   3.534   1.795  12.384 -0.3254  0.4462  1.4538
  191DOPC   H9R23584   3.510   1.887  12.329  0.9364 -0.4976 -0.7978
  191DOPC  C21023585   3.618   1.788  12.487 -0.6111  0.0659  0.6402
  191DOPC  H10R23586   3.672   1.876  12.528  1.1937 -2.1348  3.4104
  191DOPC  C21123587   3.652   1.664  12.562 -0.0089  1.0274 -0.7253
  191DOPC  H11R23588   3.758   1.642  12.538  0.2268  2.1483 -0.7676
  191DOPC  H11S23589   3.584   1.580  12.536 -0.0391 -0.0717  2.5575
  191DOPC  C21223590   3.633   1.681  12.719  0.0591  0.3970 -0.7126
  191DOPC  H12R23591   3.635   1.576  12.758  1.5864  0.1366 -1.4265
  191DOPC  H12S23592   3.531   1.718  12.742  0.4185  0.4548  0.9411
  191DOPC  C21323593   3.745   1.763  12.778  0.4345  0.1730 -0.8896
  191DOPC  H13R23594   3.739   1.871  12.752 -0.6741  0.9382  2.1351
  191DOPC  H13S23595   3.843   1.723  12.743  0.3378  1.1985 -2.4173
  191DOPC  C21423596   3.743   1.762  12.930 -0.0724  0.6329 -0.1479
  191DOPC  H14R23597   3.745   1.656  12.962 -1.6225  0.2196 -1.3363
  191DOPC  H14S23598   3.657   1.822  12.967  0.4475  3.7160 -3.4147
  191DOPC  C21523599   3.869   1.835  12.982 -0.3353 -0.5159  0.6979
  191DOPC  H15R23600   3.858   1.941  12.952 -1.0507 -0.3772  1.4091
  191DOPC  H15S23601   3.963   1.796  12.939  1.0053  1.9871  1.1512
  191DOPC  C21623602   3.861   1.846  13.140 -0.1587 -0.2024  0.1518
  191DOPC  H16R23603   3.840   1.747  13.187  1.6226  0.6714  3.0272
  191DOPC  H16S23604   3.765   1.896  13.162 -1.3416 -1.8175 -1.0299
  191DOPC  C21723605   3.965   1.927  13.212  0.3214 -0.5773  0.5558
  191DOPC  H17R23606   3.970   2.027  13.164  1.7918 -0.3386  1.1364
  191DOPC  H17S23607   4.062   1.875  13.197 -0.5260 -1.4200 -3.1028
  191DOPC  C21823608   3.932   1.949  13.358  0.1570  0.4316 -0.0670
  191DOPC  H18R23609   3.928   1.849  13.406 -1.1338 -0.2315 -1.4991
  191DOPC  H18S23610   3.836   2.005  13.366  0.1341  0.2856  0.7822
  191DOPC  H18T23611   3.991   2.028  13.409 -1.1880  1.5318 -0.1591
  191DOPC   C3323612   3.881   1.677  11.767  0.0864  0.2563 -0.2862
  191DOPC   H3X23613   3.966   1.610  11.740  2.6590  2.4666  1.7077
  191DOPC   H3Y23614   3.794   1.608  11.771  1.5135 -1.5615  0.6771
  191DOPC   C3423615   3.899   1.732  11.905 -0.4522 -0.3066  0.0786
  191DOPC   H4X23616   3.811   1.795  11.931  0.2625  1.7672 -2.1881
  191DOPC   H4Y23617   3.990   1.796  11.900 -1.0290  0.7607  1.9635
  191DOPC   C3523618   3.931   1.615  11.997  0.3879 -0.3001 -0.2581
  191DOPC   H5X23619   3.992   1.542  11.940  0.9796  1.1468 -1.5205
  191DOPC   H5Y23620   3.838   1.563  12.030 -0.6090  2.1543  1.0565
  191DOPC   C3623621   4.003   1.661  12.126  0.3032  0.7687 -0.0129
  191DOPC   H6X23622   4.092   1.721  12.098  2.6849 -2.3261  0.3852
  191DOPC   H6Y23623   3.945   1.738  12.181 -0.4774  0.0912  0.1167
  191DOPC   C3723624   4.038   1.541  12.219 -0.3406 -1.3173 -0.3634
  191DOPC   H7X23625   3.945   1.487  12.248 -2.0940  0.6654 -1.9261
  191DOPC   H7Y23626   4.095   1.470  12.156  0.2137 -0.1033 -1.2796
  191DOPC   C3823627   4.133   1.574  12.348  1.1045  0.8692  0.6740
  191DOPC   H8X23628   4.229   1.619  12.317  1.2182  2.0395  2.5388
  191DOPC   H8Y23629   4.155   1.474  12.392  1.9900  0.3704 -0.8449
  191DOPC   C3923630   4.051   1.663  12.440  0.0937  0.2480  0.4657
  191DOPC   H9X23631   3.946   1.677  12.409 -0.1796 -0.1097  1.2038
  191DOPC  C31023632   4.097   1.737  12.550  0.4097  0.2568 -0.4050
  191DOPC  H10X23633   4.021   1.796  12.605 -0.6812 -0.4778 -1.1034
  191DOPC  C31123634   4.237   1.742  12.605 -0.4456  0.2214  0.2651
  191DOPC  H11X23635   4.249   1.837  12.662 -2.6926  1.8352 -1.7116
  191DOPC  H11Y23636   4.317   1.752  12.529 -0.5055  0.8791  0.2810
  191DOPC  C31223637   4.262   1.615  12.693 -0.0410  0.6136 -0.1971
  191DOPC  H12X23638   4.365   1.595  12.731  0.2087 -1.7749 -1.8937
  191DOPC  H12Y23639   4.260   1.523  12.631  0.5671  0.7466 -0.4293
  191DOPC  C31323640   4.168   1.606  12.816 -0.2164  0.0483  0.1580
  191DOPC  H13X23641   4.161   1.703  12.870  0.5021  1.4877 -2.1800
  191DOPC  H13Y23642   4.072   1.565  12.778  0.2661 -1.8601  0.8647
  191DOPC  C31423643   4.216   1.513  12.935  0.3563  0.0606 -0.2858
  191DOPC  H14X23644   4.228   1.410  12.895 -0.7363 -0.5188  0.8394
  191DOPC  H14Y23645   4.319   1.553  12.951  0.5485 -0.2180 -0.7805
  191DOPC  C31523646   4.130   1.533  13.055  0.3600 -0.1784 -0.0453
  191DOPC  H15X23647   4.025   1.503  13.032  0.3570  0.1241 -0.4421
  191DOPC  H15Y23648   4.124   1.641  13.080 -0.4199 -0.5429  1.4799
  191DOPC  C31623649   4.187   1.463  13.180 -0.3781  0.1085 -0.5322
  191DOPC  H16X23650   4.208   1.356  13.157 -0.3306 -0.1464  0.6530
  191DOPC  H16Y23651   4.276   1.524  13.208 -0.2787  0.0136 -0.6364
  191DOPC  C31723652   4.093   1.466  13.301 -0.2724  0.1395  0.2354
  191DOPC  H17X23653   4.093   1.568  13.345 -0.0874 -0.3589  1.4264
  191DOPC  H17Y23654   3.992   1.447  13.258  0.3079 -2.1333 -0.2480
  191DOPC  C31823655   4.128   1.373  13.414  0.3636  0.3579  0.2900
  191DOPC  H18X23656   4.208   1.426  13.470  1.7156 -1.0830 -0.2210
  191DOPC  H18Y23657   4.036   1.362  13.475 -0.8700  1.7847 -1.2015
  191DOPC  H18Z23658   4.163   1.272  13.382  1.0424  0.4617  0.6907
  192DOPC     N23659   6.185   5.777  10.842 -0.0296 -0.2421  0.9153
  192DOPC   C1223660   6.206   5.626  10.861 -0.3467 -0.2085  0.4378
  192DOPC  H12A23661   6.312   5.607  10.866 -0.4580 -0.8494  0.4421
  192DOPC  H12B23662   6.157   5.577  10.779 -2.7326  0.8055  1.1620
  192DOPC   C1323663   6.043   5.802  10.827 -0.0743 -1.1071  0.1748
  192DOPC  H13A23664   5.985   5.756  10.906 -0.2969 -2.4971 -0.7681
  192DOPC  H13B23665   6.023   5.908  10.817  2.5194 -0.3270  1.8544
  192DOPC  H13C23666   6.014   5.751  10.737 -1.7403  2.4789 -1.5269
  192DOPC   C1423667   6.256   5.825  10.723 -0.2899 -0.1903  0.0039
  192DOPC  H14A23668   6.363   5.808  10.720  0.0704  1.6753  0.5795
  192DOPC  H14B23669   6.201   5.783  10.641 -2.2484 -0.5664  1.4123
  192DOPC  H14C23670   6.254   5.933  10.718 -1.0242 -0.2105 -0.3117
  192DOPC   C1523671   6.240   5.847  10.964  0.1607  0.5990  0.0868
  192DOPC  H15A23672   6.184   5.806  11.046 -0.4828  0.5258 -0.3768
  192DOPC  H15B23673   6.210   5.950  10.954 -0.8407  0.1735 -1.7889
  192DOPC  H15C23674   6.348   5.847  10.973  0.1626  1.7256  0.1786
  192DOPC   C1123675   6.128   5.555  10.976  0.1527  0.9526  0.3007
  192DOPC  H11A23676   6.174   5.454  10.979  0.2711  1.0003  0.1266
  192DOPC  H11B23677   6.156   5.606  11.071  2.3232  0.4390 -0.0107
  192DOPC     P23678   5.896   5.444  10.912 -0.1884  0.1109 -0.1980
  192DOPC   O1323679   5.981   5.326  10.889 -1.0150  0.4325 -0.3042
  192DOPC   O1423680   5.813   5.488  10.797  0.0199 -0.2343 -0.1677
  192DOPC   O1223681   5.987   5.570  10.951 -0.1389 -0.1287  0.4339
  192DOPC   O1123682   5.809   5.429  11.033 -0.4505  0.2721 -0.3060
  192DOPC    C123683   5.744   5.533  11.103  0.6354  0.2143 -0.9869
  192DOPC    HA23684   5.649   5.493  11.144  1.7545  0.4175  2.1605
  192DOPC    HB23685   5.728   5.625  11.042  2.0125  1.7650  0.8369
  192DOPC    C223686   5.833   5.566  11.225 -0.2893  0.3620 -0.1218
  192DOPC    HS23687   5.939   5.549  11.197 -0.8181 -0.9108 -1.4505
  192DOPC   O2123688   5.803   5.476  11.337 -0.3933  0.0154 -0.0121
  192DOPC   C2123689   5.874   5.363  11.352  0.1717 -0.9383  0.3013
  192DOPC   O2223690   5.971   5.336  11.283  0.3508  0.5029  0.4905
  192DOPC   C2223691   5.822   5.288  11.466  0.2127 -0.0003  0.0798
  192DOPC   H2R23692   5.873   5.190  11.479  0.2174  0.0710  0.6248
  192DOPC   H2S23693   5.714   5.268  11.454 -0.0094  1.9104 -1.7502
  192DOPC    C323694   5.823   5.706  11.277 -0.3886 -0.1862 -0.0824
  192DOPC    HX23695   5.716   5.730  11.295 -0.2743  2.0689 -1.8310
  192DOPC    HY23696   5.843   5.773  11.190 -0.6733  0.0975  0.0677
  192DOPC   O3123697   5.916   5.720  11.387  0.0522  0.2277 -0.3448
  192DOPC   C3123698   5.871   5.746  11.508  0.2105  0.6557  0.4888
  192DOPC   O3223699   5.751   5.765  11.538 -0.1585  0.0003 -0.0076
  192DOPC   C3223700   5.984   5.754  11.606  0.2662  0.0433 -0.3966
  192DOPC   H2X23701   6.047   5.669  11.573 -1.1299 -2.1342  2.1021
  192DOPC   H2Y23702   6.039   5.850  11.599  0.1750  0.0409 -1.2580
  192DOPC   C2323703   5.850   5.359  11.601  0.1201 -0.6103  0.7376
  192DOPC   H3R23704   5.787   5.450  11.599  0.7789 -0.0283  3.0958
  192DOPC   H3S23705   5.956   5.390  11.617 -0.2747  0.2473  1.8479
  192DOPC   C2423706   5.819   5.266  11.723 -0.7662  0.0112 -0.7240
  192DOPC   H4R23707   5.868   5.170  11.697 -1.5125 -0.5621 -0.0778
  192DOPC   H4S23708   5.708   5.259  11.733 -0.7460  1.6850  1.6196
  192DOPC   C2523709   5.872   5.338  11.849  0.0692 -0.5391  0.9732
  192DOPC   H5R23710   5.822   5.437  11.849 -0.5819 -0.8564  1.7099
  192DOPC   H5S23711   5.983   5.343  11.845  0.1373  1.1731  3.3941
  192DOPC   C2623712   5.836   5.271  11.978  0.2577  0.1142 -0.1714
  192DOPC   H6R23713   5.869   5.166  11.991  2.4058  0.9656  1.8385
  192DOPC   H6S23714   5.729   5.290  12.004  0.5209 -0.4027  1.3978
  192DOPC   C2723715   5.925   5.320  12.104 -0.3297  0.0685 -0.8095
  192DOPC   H7R23716   5.918   5.430  12.115  1.7815  0.2129 -0.6589
  192DOPC   H7S23717   6.031   5.305  12.075 -0.1622  0.6393 -0.5055
  192DOPC   C2823718   5.907   5.257  12.241  0.5325  1.0568  0.1056
  192DOPC   H8R23719   5.976   5.300  12.317 -0.5367 -1.3512  2.6342
  192DOPC   H8S23720   5.935   5.150  12.233  0.1958  0.8043  1.8607
  192DOPC   C2923721   5.756   5.277  12.281  0.4528  0.7574 -0.3873
  192DOPC   H9R23722   5.696   5.314  12.197  1.7860  0.5041 -1.4892
  192DOPC  C21023723   5.704   5.247  12.406  0.2525 -0.2381 -0.2464
  192DOPC  H10R23724   5.605   5.292  12.426 -1.0882 -3.4584  1.1831
  192DOPC  C21123725   5.782   5.203  12.529  0.0217  0.0393 -0.2380
  192DOPC  H11R23726   5.765   5.273  12.614 -0.8540 -1.1617  0.5992
  192DOPC  H11S23727   5.890   5.221  12.511  0.2616  0.3616  1.3639
  192DOPC  C21223728   5.746   5.058  12.586  0.2344 -0.5387 -0.2453
  192DOPC  H12R23729   5.828   4.997  12.544  0.8601  1.1187 -1.5462
  192DOPC  H12S23730   5.643   5.035  12.552 -0.7114  0.3493  1.8265
  192DOPC  C21323731   5.744   5.057  12.745 -0.7919 -0.2066 -0.1092
  192DOPC  H13R23732   5.673   5.129  12.792 -1.7990 -1.2050 -0.0458
  192DOPC  H13S23733   5.842   5.103  12.770 -0.6894  0.3026 -1.3951
  192DOPC  C21423734   5.715   4.916  12.803 -0.2790  0.9660  0.4108
  192DOPC  H14R23735   5.782   4.838  12.760 -0.3580  0.3042  1.4617
  192DOPC  H14S23736   5.608   4.887  12.791 -0.1593  0.6529  0.0794
  192DOPC  C21523737   5.738   4.916  12.955 -0.4536 -0.2936  0.1155
  192DOPC  H15R23738   5.844   4.941  12.974 -0.1439 -3.2016  3.0373
  192DOPC  H15S23739   5.734   4.810  12.988  1.3900 -0.7108 -0.8577
  192DOPC  C21623740   5.655   5.011  13.044  0.1089 -0.4246  0.8579
  192DOPC  H16R23741   5.548   5.002  13.013  0.0154  0.4238  0.9256
  192DOPC  H16S23742   5.679   5.117  13.026 -1.6947  0.0774  1.1628
  192DOPC  C21723743   5.671   4.991  13.197  0.0744  0.4436  0.2206
  192DOPC  H17R23744   5.780   5.012  13.204 -0.0109  0.7104  0.7593
  192DOPC  H17S23745   5.656   4.885  13.227  0.2842  0.1682 -0.6234
  192DOPC  C21823746   5.598   5.092  13.280 -0.4584  0.5853 -0.5336
  192DOPC  H18R23747   5.638   5.093  13.383  0.0526  1.1070 -0.7337
  192DOPC  H18S23748   5.490   5.069  13.272 -0.2531 -0.5741 -0.2657
  192DOPC  H18T23749   5.620   5.193  13.240  0.2945  0.1437 -1.2699
  192DOPC   C3323750   5.950   5.723  11.756  0.2696  0.5685  0.1016
  192DOPC   H3X23751   5.885   5.633  11.760 -2.2627  2.3060 -0.2761
  192DOPC   H3Y23752   5.897   5.812  11.794 -1.4277 -0.1206 -0.5488
  192DOPC   C3423753   6.065   5.708  11.855 -0.4183  0.2685 -0.0705
  192DOPC   H4X23754   6.132   5.797  11.855  0.6512 -0.4635  1.8166
  192DOPC   H4Y23755   6.123   5.619  11.820  0.1576  0.3896  0.5368
  192DOPC   C3523756   6.010   5.664  11.988 -0.2459 -0.4348 -0.4072
  192DOPC   H5X23757   6.071   5.578  12.021  0.5231 -0.0241 -0.7252
  192DOPC   H5Y23758   5.908   5.622  11.983  0.3177 -1.7630 -1.1188
  192DOPC   C3623759   6.012   5.779  12.088  0.2044  0.4097  0.8957
  192DOPC   H6X23760   6.118   5.810  12.101  0.7014 -0.5002 -0.6435
  192DOPC   H6Y23761   5.945   5.861  12.056 -0.2204  0.0390  0.8291
  192DOPC   C3723762   5.955   5.738  12.228 -0.2011  0.1507 -0.3379
  192DOPC   H7X23763   5.858   5.684  12.214 -0.8637  1.3710 -0.6025
  192DOPC   H7Y23764   6.023   5.663  12.273 -1.0307  0.0879  0.8683
  192DOPC   C3823765   5.935   5.858  12.321  0.4249  0.3170 -0.2591
  192DOPC   H8X23766   5.888   5.816  12.413 -0.9413 -2.7098 -2.1703
  192DOPC   H8Y23767   5.852   5.916  12.277 -1.3360 -2.7509 -1.2897
  192DOPC   C3923768   6.058   5.933  12.357 -0.7721 -0.9338  0.5349
  192DOPC   H9X23769   6.121   5.968  12.274 -2.8989 -1.7405 -1.5363
  192DOPC  C31023770   6.108   5.953  12.479  0.5931  0.3987 -0.1364
  192DOPC  H10X23771   6.214   5.979  12.486  0.9192 -1.0218  0.6720
  192DOPC  C31123772   6.047   5.897  12.607 -0.2029 -1.2056 -0.1495
  192DOPC  H11X23773   6.106   5.806  12.634  0.3494 -0.9784 -0.5631
  192DOPC  H11Y23774   5.940   5.868  12.610 -1.4247  2.8350  0.0900
  192DOPC  C31223775   6.054   5.989  12.728 -0.1554  0.3567  0.2150
  192DOPC  H12X23776   6.012   6.088  12.701 -0.5847 -0.0667 -0.7315
  192DOPC  H12Y23777   6.159   6.014  12.754  0.1093  2.9971 -2.7518
  192DOPC  C31323778   5.991   5.924  12.858 -0.4290 -0.4197  0.1982
  192DOPC  H13X23779   5.888   5.904  12.823 -0.7173 -0.2887  0.9586
  192DOPC  H13Y23780   6.034   5.824  12.880 -2.4768 -1.4758 -0.4171
  192DOPC  C31423781   5.982   6.015  12.985  0.0128 -0.5285 -0.9999
  192DOPC  H14X23782   6.088   6.027  13.017  0.3055 -4.1268 -0.1948
  192DOPC  H14Y23783   5.944   6.111  12.945  2.4470  0.5594 -0.8821
  192DOPC  C31523784   5.902   5.946  13.088  1.2652  0.3910 -0.5626
  192DOPC  H15X23785   5.899   6.004  13.183 -1.6317 -1.2867  0.5079
  192DOPC  H15Y23786   5.952   5.851  13.119 -0.8426 -0.7174 -0.3900
  192DOPC  C31623787   5.756   5.931  13.061  0.6168 -0.6700  0.1164
  192DOPC  H16X23788   5.705   6.024  13.027 -2.2782 -2.0242  0.3927
  192DOPC  H16Y23789   5.745   5.876  12.965  1.6350 -1.0974  0.2375
  192DOPC  C31723790   5.671   5.863  13.169  0.2443 -0.6360 -0.8851
  192DOPC  H17X23791   5.564   5.860  13.139 -1.3228 -2.2111  3.8808
  192DOPC  H17Y23792   5.709   5.761  13.191 -0.0169 -0.5878 -0.1888
  192DOPC  C31823793   5.663   5.935  13.306  0.4440  0.1650 -0.3778
  192DOPC  H18X23794   5.631   5.867  13.388  0.4566  1.8595  1.1142
  192DOPC  H18Y23795   5.770   5.948  13.337  0.3581 -0.9601  0.4664
  192DOPC  H18Z23796   5.600   6.026  13.300 -2.5028 -1.5801  1.5670
  193DOPC     N23797   5.043   2.834  11.144 -0.2611  0.0166 -0.0115
  193DOPC   C1223798   5.004   2.833  11.291 -0.7030 -0.2962 -0.2276
  193DOPC  H12A23799   4.970   2.738  11.331 -1.7315  0.0947 -0.1223
  193DOPC  H12B23800   4.921   2.901  11.307  0.2018  0.7361  0.1763
  193DOPC   C1323801   4.916   2.824  11.066  0.1713 -1.1378  0.0706
  193DOPC  H13A23802   4.845   2.754  11.108  0.4267 -0.8208  1.0700
  193DOPC  H13B23803   4.874   2.923  11.053 -1.1678 -1.8072 -0.9036
  193DOPC  H13C23804   4.932   2.787  10.966  2.8631  0.3912 -0.1796
  193DOPC   C1423805   5.125   2.711  11.115  0.8870 -0.4480  0.2395
  193DOPC  H14A23806   5.055   2.629  11.109 -0.4867  0.6632  0.5649
  193DOPC  H14B23807   5.179   2.724  11.022  0.6896  0.9340  0.2888
  193DOPC  H14C23808   5.194   2.693  11.196 -0.2989 -0.2303  1.3206
  193DOPC   C1523809   5.119   2.958  11.118 -0.5585 -0.1634  0.3966
  193DOPC  H15A23810   5.200   2.964  11.190  0.1187 -1.2945 -0.2432
  193DOPC  H15B23811   5.054   3.044  11.118  0.7716  0.8864 -0.4670
  193DOPC  H15C23812   5.155   2.952  11.016  0.4900  2.0640  0.5680
  193DOPC   C1123813   5.123   2.867  11.385  0.3534 -0.2764  0.9018
  193DOPC  H11A23814   5.167   2.966  11.362 -0.7296  0.1446  0.5558
  193DOPC  H11B23815   5.080   2.868  11.488 -1.7721 -1.4255  0.0962
  193DOPC     P23816   5.260   2.679  11.511 -0.3989 -0.3069  0.0714
  193DOPC   O1323817   5.388   2.609  11.464  0.5454  0.2580 -0.4530
  193DOPC   O1423818   5.146   2.593  11.537  0.1380  0.1267  0.7216
  193DOPC   O1223819   5.227   2.773  11.387 -0.3760 -0.2256  0.0603
  193DOPC   O1123820   5.275   2.769  11.643 -0.1295 -0.2702  0.0121
  193DOPC    C123821   5.387   2.846  11.658 -0.2164  0.0384  0.3585
  193DOPC    HA23822   5.346   2.944  11.691  2.5732  1.6272 -0.5254
  193DOPC    HB23823   5.438   2.867  11.562 -0.3858  1.1397  0.4992
  193DOPC    C223824   5.486   2.784  11.759  0.3214  0.0309 -0.2130
  193DOPC    HS23825   5.532   2.704  11.697 -0.7303  0.9985 -2.3181
  193DOPC   O2123826   5.414   2.717  11.867  0.1373 -0.5553 -0.1825
  193DOPC   C2123827   5.497   2.623  11.913  0.6275 -1.0287  0.0480
  193DOPC   O2223828   5.612   2.608  11.882 -0.4562 -0.2728  0.4749
  193DOPC   C2223829   5.422   2.556  12.030 -0.0661  0.1263 -0.0280
  193DOPC   H2R23830   5.380   2.459  11.995  0.6457  0.0217 -0.6357
  193DOPC   H2S23831   5.340   2.626  12.053  2.1940  2.6448  0.8680
  193DOPC    C323832   5.577   2.900  11.825 -0.4125  0.7967  0.1495
  193DOPC    HX23833   5.627   2.948  11.738 -1.5250 -1.2778 -1.7210
  193DOPC    HY23834   5.652   2.855  11.894 -1.0409  1.8031  1.5445
  193DOPC   O3123835   5.486   2.999  11.885  0.1990 -0.3189 -0.0458
  193DOPC   C3123836   5.454   2.966  12.011  0.5362  0.0644  0.0627
  193DOPC   O3223837   5.506   2.873  12.073  0.1487  0.0551 -0.3685
  193DOPC   C3223838   5.339   3.058  12.058  0.2770 -0.1585  0.1138
  193DOPC   H2X23839   5.380   3.106  12.149 -0.6914  2.4846 -0.7534
  193DOPC   H2Y23840   5.323   3.143  11.989  0.4304  1.0510  1.5162
  193DOPC   C2323841   5.508   2.530  12.151 -0.3735  0.0925 -0.0355
  193DOPC   H3R23842   5.557   2.628  12.169  1.2067 -0.4404 -1.1760
  193DOPC   H3S23843   5.579   2.449  12.125 -0.9170 -0.1492 -0.8097
  193DOPC   C2423844   5.422   2.496  12.273 -0.3574  0.3615  0.2040
  193DOPC   H4R23845   5.395   2.392  12.245  0.3515  0.5798 -1.4673
  193DOPC   H4S23846   5.332   2.560  12.271 -0.7585 -0.2012 -0.0381
  193DOPC   C2523847   5.487   2.504  12.409  0.4801  0.0640 -0.1140
  193DOPC   H5R23848   5.507   2.612  12.427  1.4977 -0.4067  1.9524
  193DOPC   H5S23849   5.581   2.445  12.407  1.7023  1.8593  1.2103
  193DOPC   C2623850   5.385   2.444  12.524 -0.2585 -0.3197  0.4191
  193DOPC   H6R23851   5.384   2.335  12.503 -3.4518 -0.6561  1.8027
  193DOPC   H6S23852   5.289   2.486  12.487 -1.2006 -1.0194  1.9951
  193DOPC   C2723853   5.432   2.495  12.661 -0.3649  0.7552  0.2249
  193DOPC   H7R23854   5.448   2.605  12.648  0.5274  0.4641 -1.4390
  193DOPC   H7S23855   5.521   2.441  12.701  0.3337  0.8369 -1.1401
  193DOPC   C2823856   5.311   2.469  12.764 -0.2803 -0.4935  0.0367
  193DOPC   H8R23857   5.251   2.384  12.726 -1.2868  0.8647 -1.5605
  193DOPC   H8S23858   5.240   2.554  12.756  1.0296  1.1666  3.7474
  193DOPC   C2923859   5.361   2.444  12.903  0.1817 -0.3999  0.1133
  193DOPC   H9R23860   5.409   2.538  12.933  1.8606 -1.0934 -0.2718
  193DOPC  C21023861   5.359   2.333  12.984 -1.0436  0.4753  0.0842
  193DOPC  H10R23862   5.404   2.328  13.084  0.6720 -0.1257 -0.6716
  193DOPC  C21123863   5.316   2.192  12.943  0.1329 -0.4092 -0.5576
  193DOPC  H11R23864   5.292   2.193  12.834 -0.6897  1.5737 -0.3953
  193DOPC  H11S23865   5.223   2.166  12.997 -1.0043  0.7002 -1.8948
  193DOPC  C21223866   5.420   2.080  12.973  0.0379 -0.4214 -0.0936
  193DOPC  H12R23867   5.464   2.095  13.074 -2.9013 -2.1808  1.5959
  193DOPC  H12S23868   5.504   2.096  12.902 -1.1241  0.8163 -1.2684
  193DOPC  C21323869   5.364   1.939  12.955 -0.0178  0.5813  1.0001
  193DOPC  H13R23870   5.359   1.917  12.846 -2.1941 -2.1879  1.5254
  193DOPC  H13S23871   5.260   1.939  12.995 -0.6305  0.0634 -0.5125
  193DOPC  C21423872   5.435   1.830  13.036  0.5604 -0.4775 -0.2050
  193DOPC  H14R23873   5.543   1.828  13.009  0.6078  2.8030 -0.7420
  193DOPC  H14S23874   5.402   1.729  13.002  0.3283 -0.3120 -0.4800
  193DOPC  C21523875   5.425   1.833  13.188 -0.4359 -0.2788  0.5737
  193DOPC  H15R23876   5.323   1.829  13.232  0.0106  2.2660  2.0012
  193DOPC  H15S23877   5.454   1.937  13.214 -0.0784 -0.3229  0.3473
  193DOPC  C21623878   5.516   1.724  13.255  0.3596 -0.4417  0.3043
  193DOPC  H16R23879   5.624   1.746  13.241  0.1493  1.2326  1.1260
  193DOPC  H16S23880   5.486   1.627  13.208  0.3911  0.2005 -1.1011
  193DOPC  C21723881   5.480   1.722  13.405  0.9936 -0.1121 -0.5258
  193DOPC  H17R23882   5.371   1.704  13.414  1.2856 -1.2194  1.1650
  193DOPC  H17S23883   5.496   1.818  13.459 -1.0250 -0.6852  1.2229
  193DOPC  C21823884   5.553   1.614  13.480 -0.4594  0.1619 -0.5086
  193DOPC  H18R23885   5.544   1.511  13.439  0.3125 -0.3898  0.6399
  193DOPC  H18S23886   5.517   1.612  13.585  1.9897  0.6522  0.4233
  193DOPC  H18T23887   5.662   1.627  13.498 -0.6500 -0.8796  1.8400
  193DOPC   C3323888   5.213   2.967  12.094 -0.0594 -0.1812  0.9277
  193DOPC   H3X23889   5.248   2.863  12.075  2.6290  1.1329 -2.5645
  193DOPC   H3Y23890   5.136   3.002  12.022  0.9552 -0.7520 -0.5046
  193DOPC   C3423891   5.157   2.977  12.231 -0.3671  0.5623 -0.2556
  193DOPC   H4X23892   5.050   2.948  12.232  0.2279 -1.8588  0.9284
  193DOPC   H4Y23893   5.173   3.084  12.257 -0.5552  0.1473  1.8054
  193DOPC   C3523894   5.218   2.889  12.343 -0.2755 -0.1041  0.2822
  193DOPC   H5X23895   5.328   2.901  12.354 -0.2446 -0.5557  0.4742
  193DOPC   H5Y23896   5.205   2.783  12.312  0.5152 -0.5694  1.4534
  193DOPC   C3623897   5.172   2.922  12.481  0.3076 -0.4069 -0.3025
  193DOPC   H6X23898   5.200   3.023  12.518  0.1359 -0.7091  0.6960
  193DOPC   H6Y23899   5.062   2.909  12.471  0.1605  1.6922 -2.2029
  193DOPC   C3723900   5.215   2.814  12.578  0.7262 -0.5829  0.3045
  193DOPC   H7X23901   5.145   2.729  12.565  1.8751 -1.7750  1.5192
  193DOPC   H7Y23902   5.311   2.761  12.559  0.2170 -0.8244 -1.9677
  193DOPC   C3823903   5.191   2.849  12.723 -0.7410 -0.0164 -0.1978
  193DOPC   H8X23904   5.176   2.753  12.778 -0.2117  1.0237  1.8752
  193DOPC   H8Y23905   5.096   2.903  12.739 -1.3742 -1.3157  0.6146
  193DOPC   C3923906   5.298   2.936  12.787 -0.0896 -0.0104  0.1390
  193DOPC   H9X23907   5.338   3.017  12.724  0.5295 -0.4449 -0.0287
  193DOPC  C31023908   5.350   2.916  12.908  0.3848 -0.2618 -0.2479
  193DOPC  H10X23909   5.426   2.989  12.939  0.8732 -0.6390 -0.5463
  193DOPC  C31123910   5.310   2.819  13.014 -0.1794  0.0501  0.6040
  193DOPC  H11X23911   5.383   2.735  13.018  0.0043  0.2146  0.7440
  193DOPC  H11Y23912   5.208   2.776  13.005  1.4528 -4.4307  0.9902
  193DOPC  C31223913   5.304   2.881  13.156 -0.1489 -0.3650 -0.0890
  193DOPC  H12X23914   5.242   2.973  13.160  3.2606  2.0853  2.1531
  193DOPC  H12Y23915   5.410   2.892  13.188  0.2976 -1.4205 -1.1039
  193DOPC  C31323916   5.243   2.796  13.270 -0.5145  0.5019 -0.5480
  193DOPC  H13X23917   5.154   2.738  13.239  1.5449 -2.5193 -1.2257
  193DOPC  H13Y23918   5.317   2.719  13.300 -0.2685  0.9267 -0.0248
  193DOPC  C31423919   5.224   2.878  13.397 -0.1463 -0.1892  0.1652
  193DOPC  H14X23920   5.325   2.920  13.419 -0.1124 -0.0906 -0.1709
  193DOPC  H14Y23921   5.158   2.963  13.370 -0.8721 -1.1408 -1.1839
  193DOPC  C31523922   5.155   2.796  13.501 -0.8760  0.0771  0.1647
  193DOPC  H15X23923   5.220   2.708  13.522 -0.2857  1.0669  3.0314
  193DOPC  H15Y23924   5.053   2.770  13.466 -1.2951  1.9402 -0.0905
  193DOPC  C31623925   5.145   2.874  13.635 -0.3986  0.3924  0.0110
  193DOPC  H16X23926   5.116   2.796  13.709 -0.4917  0.9825  0.6013
  193DOPC  H16Y23927   5.239   2.922  13.670 -0.0706 -0.8361  0.8841
  193DOPC  C31723928   5.029   2.967  13.639 -0.1462  0.4129  0.2191
  193DOPC  H17X23929   5.047   3.040  13.558 -0.3603 -0.1131 -0.3033
  193DOPC  H17Y23930   4.932   2.915  13.624  0.1917  0.0952 -0.9400
  193DOPC  C31823931   5.010   3.052  13.770 -0.1139  0.0389 -0.1352
  193DOPC  H18X23932   5.095   3.123  13.787 -2.9540  3.9700 -0.9483
  193DOPC  H18Y23933   4.923   3.117  13.747 -1.7173 -2.1336 -0.5773
  193DOPC  H18Z23934   4.973   2.994  13.857 -1.6541 -0.8224 -1.3256
  194DOPC     N23935   0.416   1.498  11.042  0.4508  0.3590 -0.1813
  194DOPC   C1223936   0.389   1.623  11.125 -0.2007 -0.3217 -0.9424
  194DOPC  H12A23937   0.452   1.710  11.110  0.0866 -0.3035  0.2944
  194DOPC  H12B23938   0.405   1.592  11.227 -2.8309  0.4129 -0.2339
  194DOPC   C1323939   0.358   1.511  10.906  0.2856  0.2717 -0.3095
  194DOPC  H13A23940   0.251   1.527  10.906 -0.3423 -2.9671  0.7155
  194DOPC  H13B23941   0.402   1.593  10.852  2.1026 -0.2415  0.3284
  194DOPC  H13C23942   0.368   1.423  10.843 -1.3007 -0.5471  0.5052
  194DOPC   C1423943   0.359   1.381  11.122 -0.3580  0.5255  0.1337
  194DOPC  H14A23944   0.394   1.288  11.079  0.4767  0.3519  1.1591
  194DOPC  H14B23945   0.403   1.374  11.220 -1.0603  2.2828  0.6121
  194DOPC  H14C23946   0.251   1.384  11.114 -0.2888 -0.4146 -1.9583
  194DOPC   C1523947   0.560   1.470  11.043 -0.5468 -0.0448  0.2275
  194DOPC  H15A23948   0.586   1.373  11.002 -0.5611 -0.3477  0.9194
  194DOPC  H15B23949   0.607   1.473  11.140  3.2822  1.5176 -1.4760
  194DOPC  H15C23950   0.615   1.540  10.983  0.5039 -0.9223  0.1409
  194DOPC   C1123951   0.246   1.681  11.123  0.3299  0.1957 -0.4467
  194DOPC  H11A23952   0.239   1.764  11.197  0.7086  0.6130 -0.8668
  194DOPC  H11B23953   0.218   1.744  11.035 -0.5446  0.0641 -0.2783
  194DOPC     P23954   0.055   1.573  11.274  0.3940 -0.0608  0.2933
  194DOPC   O1323955   0.065   1.438  11.343 -0.3764 -0.4415 -0.0795
  194DOPC   O1423956  -0.082   1.606  11.222 -0.1933  0.2540 -0.7268
  194DOPC   O1223957   0.152   1.576  11.149  0.2380 -0.2175  0.0950
  194DOPC   O1123958   0.092   1.688  11.377  0.3922  0.4207 -0.1856
  194DOPC    C123959   0.201   1.657  11.466  0.6007 -0.2313 -0.7364
  194DOPC    HA23960   0.295   1.706  11.436  0.5130  0.9005  0.7559
  194DOPC    HB23961   0.223   1.550  11.490  1.3369  0.0070 -0.3289
  194DOPC    C223962   0.164   1.721  11.607 -0.0849  0.2549  0.2964
  194DOPC    HS23963   0.131   1.827  11.605 -3.3650 -0.6779 -1.2399
  194DOPC   O2123964   0.267   1.706  11.705 -0.4240  0.7967 -0.6158
  194DOPC   C2123965   0.395   1.734  11.683 -0.5623 -0.1321  0.4288
  194DOPC   O2223966   0.443   1.787  11.585  0.4509  0.9759  0.2484
  194DOPC   C2223967   0.471   1.685  11.811 -0.1460  0.1203 -0.3304
  194DOPC   H2R23968   0.549   1.616  11.772 -2.2777 -2.7813  0.1223
  194DOPC   H2S23969   0.406   1.628  11.882 -0.3031 -0.2781 -0.7833
  194DOPC    C323970   0.033   1.666  11.677 -0.5724 -0.2151  0.6607
  194DOPC    HX23971   0.040   1.555  11.672  0.2688 -0.1265 -1.2388
  194DOPC    HY23972  -0.045   1.702  11.607  0.0664  1.4317  0.7499
  194DOPC   O3123973   0.021   1.716  11.812  0.6705  0.2178  0.2350
  194DOPC   C3123974   0.053   1.631  11.908  0.8446  0.5332  0.4228
  194DOPC   O3223975   0.074   1.513  11.892 -0.1685  0.7103 -0.3248
  194DOPC   C3223976   0.062   1.698  12.038 -0.3877  0.1772 -0.5517
  194DOPC   H2X23977   0.083   1.806  12.024 -0.0616  0.0740 -0.9044
  194DOPC   H2Y23978  -0.038   1.705  12.085 -0.4221 -2.1388 -0.1858
  194DOPC   C2323979   0.542   1.798  11.895  0.5334  0.4969  0.4029
  194DOPC   H3R23980   0.461   1.864  11.934 -0.3710 -0.0897 -0.4526
  194DOPC   H3S23981   0.609   1.857  11.829 -1.6397 -0.8711 -3.3163
  194DOPC   C2423982   0.620   1.732  12.007 -0.2753  0.6509  0.2533
  194DOPC   H4R23983   0.708   1.675  11.971 -0.0553 -0.6314  2.5942
  194DOPC   H4S23984   0.555   1.656  12.056 -2.2640  1.5739 -0.8027
  194DOPC   C2523985   0.676   1.829  12.114 -0.2689 -0.3036 -0.4924
  194DOPC   H5R23986   0.585   1.889  12.135  0.5398  0.3510  1.4336
  194DOPC   H5S23987   0.742   1.909  12.074 -0.6181  0.8586  1.1493
  194DOPC   C2623988   0.746   1.762  12.233 -0.6062 -0.0005  0.1948
  194DOPC   H6R23989   0.833   1.699  12.205 -0.9912 -1.6286  2.4125
  194DOPC   H6S23990   0.675   1.688  12.276 -1.4131  1.0879  0.8122
  194DOPC   C2723991   0.766   1.865  12.344 -0.8223  0.5049 -0.4592
  194DOPC   H7R23992   0.673   1.924  12.353 -0.6766  0.4028  2.7502
  194DOPC   H7S23993   0.851   1.937  12.334  0.0281 -0.2715  0.9575
  194DOPC   C2823994   0.797   1.791  12.473  0.2220 -0.5314  0.2553
  194DOPC   H8R23995   0.907   1.775  12.475  0.2788 -0.1260  0.4471
  194DOPC   H8S23996   0.772   1.684  12.458 -1.0378 -0.5313  2.0514
  194DOPC   C2923997   0.759   1.876  12.592 -0.1004  0.0728 -0.1886
  194DOPC   H9R23998   0.761   1.985  12.575 -1.0021  0.6929  2.9473
  194DOPC  C21023999   0.719   1.822  12.708  0.1247  0.6986 -0.0906
  194DOPC  H10R24000   0.711   1.888  12.795 -0.2843 -0.2522  0.6107
  194DOPC  C21124001   0.698   1.679  12.737 -0.7555  0.3365 -0.0592
  194DOPC  H11R24002   0.747   1.611  12.663  1.4742 -0.0384  1.6383
  194DOPC  H11S24003   0.589   1.661  12.747 -0.6864  0.5142  1.1818
  194DOPC  C21224004   0.765   1.642  12.865 -0.0246  0.8077 -0.5996
  194DOPC  H12R24005   0.719   1.706  12.943 -1.3078 -0.2467 -0.4530
  194DOPC  H12S24006   0.873   1.668  12.854  0.1516 -0.2644 -1.6259
  194DOPC  C21324007   0.771   1.490  12.910  0.6996  0.3030 -0.0301
  194DOPC  H13R24008   0.769   1.421  12.823  0.7520 -1.8395  1.6197
  194DOPC  H13S24009   0.682   1.475  12.974  0.3673 -2.9142 -1.1010
  194DOPC  C21424010   0.894   1.462  12.999 -0.0974  0.1087 -0.4376
  194DOPC  H14R24011   0.989   1.499  12.955  0.2133  0.1081  0.2229
  194DOPC  H14S24012   0.921   1.355  13.015 -1.2679 -0.1321  0.0047
  194DOPC  C21524013   0.870   1.524  13.143 -0.1316 -0.8671 -0.4841
  194DOPC  H15R24014   0.764   1.513  13.176  0.1100 -1.6021  0.0939
  194DOPC  H15S24015   0.889   1.634  13.146  0.0140 -0.8973 -0.2514
  194DOPC  C21624016   0.968   1.452  13.241  0.1145 -0.5532 -0.6778
  194DOPC  H16R24017   1.071   1.452  13.201  0.7019 -0.3042  0.7993
  194DOPC  H16S24018   0.946   1.344  13.257 -1.0841 -0.2318 -0.0500
  194DOPC  C21724019   0.998   1.518  13.377 -0.1415  0.7726 -0.5074
  194DOPC  H17R24020   1.042   1.619  13.360  0.1471  0.6858 -0.2668
  194DOPC  H17S24021   1.070   1.458  13.436 -0.6197  0.3050 -0.3890
  194DOPC  C21824022   0.863   1.516  13.456 -0.2437  0.4248  0.2082
  194DOPC  H18R24023   0.802   1.426  13.436 -0.1887  0.0801  1.5049
  194DOPC  H18S24024   0.810   1.608  13.423  1.8334  1.5195 -0.2863
  194DOPC  H18T24025   0.862   1.534  13.566 -2.3712  1.8566  0.0168
  194DOPC   C3324026   0.182   1.655  12.136  0.1140  0.2371  0.3112
  194DOPC   H3X24027   0.275   1.697  12.092  0.1445 -0.3307 -0.1875
  194DOPC   H3Y24028   0.192   1.545  12.138  2.8308  0.4102 -0.1328
  194DOPC   C3424029   0.163   1.712  12.279  0.3323 -0.0406 -0.0723
  194DOPC   H4X24030   0.129   1.817  12.268  0.7027  0.1659  0.6647
  194DOPC   H4Y24031   0.259   1.723  12.333  0.2106  1.7082 -0.1613
  194DOPC   C3524032   0.072   1.618  12.364  0.0999  0.2566  1.0958
  194DOPC   H5X24033   0.128   1.523  12.358 -0.1948  0.1694 -1.4398
  194DOPC   H5Y24034  -0.035   1.605  12.334 -0.7458  0.8009  3.6049
  194DOPC   C3624035   0.073   1.661  12.508  0.3193  0.8011 -0.3461
  194DOPC   H6X24036   0.056   1.771  12.504  2.2559  1.1057 -1.6690
  194DOPC   H6Y24037  -0.011   1.627  12.573  0.9673 -0.5770 -0.1845
  194DOPC   C3724038   0.202   1.645  12.585  0.7947  0.1906  0.4631
  194DOPC   H7X24039   0.293   1.657  12.524  2.5946 -1.5153  2.6320
  194DOPC   H7Y24040   0.214   1.729  12.657  1.3644 -1.1111  1.9428
  194DOPC   C3824041   0.192   1.519  12.675 -0.0357  0.2945 -0.3705
  194DOPC   H8X24042   0.167   1.442  12.599 -0.1221  1.3058 -1.3983
  194DOPC   H8Y24043   0.100   1.522  12.737 -1.4384 -2.6573 -2.0891
  194DOPC   C3924044   0.320   1.496  12.750 -0.4852  0.1319 -0.1474
  194DOPC   H9X24045   0.401   1.453  12.688 -0.4057 -0.2533  0.2193
  194DOPC  C31024046   0.342   1.525  12.884  0.0660 -0.4622 -0.4420
  194DOPC  H10X24047   0.432   1.479  12.928 -1.2014 -0.8135  1.9693
  194DOPC  C31124048   0.250   1.588  12.980  0.6632  0.0632  0.9716
  194DOPC  H11X24049   0.162   1.523  12.999  0.1110 -0.1404 -1.8544
  194DOPC  H11Y24050   0.212   1.679  12.931  0.9094  0.4837  1.5546
  194DOPC  C31224051   0.317   1.640  13.106 -0.3529 -0.1679 -1.1468
  194DOPC  H12X24052   0.268   1.729  13.153  0.4016  0.3926 -1.4090
  194DOPC  H12Y24053   0.421   1.675  13.088  0.9198 -2.0265  1.7600
  194DOPC  C31324054   0.319   1.526  13.210 -0.0760 -0.0591  0.4868
  194DOPC  H13X24055   0.212   1.497  13.224 -0.1126 -1.5401 -2.1624
  194DOPC  H13Y24056   0.372   1.437  13.169 -0.0855  0.4519 -0.6423
  194DOPC  C31424057   0.389   1.570  13.342 -0.1237 -0.1508 -0.1721
  194DOPC  H14X24058   0.404   1.491  13.419 -0.4882  1.2287  1.3917
  194DOPC  H14Y24059   0.496   1.579  13.315 -0.5748  1.7827 -1.5443
  194DOPC  C31524060   0.338   1.698  13.414 -0.1297 -0.0635  0.3755
  194DOPC  H15X24061   0.333   1.778  13.337  1.9731  2.0614  2.3035
  194DOPC  H15Y24062   0.400   1.743  13.494 -2.6268  2.1551  1.1951
  194DOPC  C31624063   0.204   1.671  13.473  0.7404  0.6118 -0.3123
  194DOPC  H16X24064   0.143   1.618  13.397 -1.5553  0.2561  1.6492
  194DOPC  H16Y24065   0.203   1.606  13.563 -0.1278 -2.0447 -2.1301
  194DOPC  C31724066   0.126   1.799  13.515 -0.0714 -0.2369 -0.1097
  194DOPC  H17X24067   0.179   1.872  13.580  0.0495 -0.2245 -0.2208
  194DOPC  H17Y24068   0.098   1.859  13.425  0.7833  0.8286  0.3210
  194DOPC  C31824069  -0.006   1.780  13.588  0.4602  0.1928 -0.1593
  194DOPC  H18X24070   0.009   1.770  13.697  1.8080 -1.1509 -0.4275
  194DOPC  H18Y24071  -0.083   1.855  13.560  1.2234  1.3264  0.7143
  194DOPC  H18Z24072  -0.045   1.683  13.549 -3.7176  1.5329  0.2510
  195DOPC     N24073   4.630   2.042  11.127 -0.9456 -0.2508 -0.4220
  195DOPC   C1224074   4.506   2.001  11.201  0.3885  0.8693  0.0595
  195DOPC  H12A24075   4.511   1.893  11.204 -1.4454  0.6340 -2.0003
  195DOPC  H12B24076   4.420   2.035  11.145  1.5384  1.5582 -1.3474
  195DOPC   C1324077   4.649   1.978  10.999 -0.6825 -0.1441 -0.2958
  195DOPC  H13A24078   4.740   2.011  10.952  0.6994 -0.0105  2.2707
  195DOPC  H13B24079   4.650   1.871  11.015  1.4226  0.0297  1.1867
  195DOPC  H13C24080   4.562   2.005  10.942 -2.5278  0.6706  2.6765
  195DOPC   C1424081   4.751   2.017  11.210  0.1346 -0.6979  0.2482
  195DOPC  H14A24082   4.843   2.045  11.161 -1.4374  0.4806 -2.2689
  195DOPC  H14B24083   4.741   2.069  11.303 -0.4225 -0.3570  0.0049
  195DOPC  H14C24084   4.754   1.914  11.242 -0.3505 -0.8116 -0.0510
  195DOPC   C1524085   4.631   2.197  11.107  0.2950  0.9560 -0.2445
  195DOPC  H15A24086   4.720   2.225  11.052  1.7337 -2.2463  0.2517
  195DOPC  H15B24087   4.610   2.263  11.190 -3.2619  1.1460 -1.1361
  195DOPC  H15C24088   4.548   2.218  11.041 -1.2714 -1.9284  0.6745
  195DOPC   C1124089   4.473   2.064  11.344  0.5668  0.5289  0.5117
  195DOPC  H11A24090   4.404   1.999  11.401 -1.1740  1.1230 -0.8210
  195DOPC  H11B24091   4.567   2.069  11.403 -0.5208  3.1008  2.2236
  195DOPC     P24092   4.286   2.246  11.392 -0.4219  0.1299 -0.0521
  195DOPC   O1324093   4.175   2.159  11.346  0.0702  0.4851 -0.0592
  195DOPC   O1424094   4.275   2.390  11.368  0.2478  0.2766  0.2223
  195DOPC   O1224095   4.420   2.193  11.329  0.2869 -0.2400  0.3993
  195DOPC   O1124096   4.305   2.226  11.546  0.3212 -0.0524 -0.6715
  195DOPC    C124097   4.424   2.265  11.621 -0.0135 -0.5449 -0.4393
  195DOPC    HA24098   4.422   2.375  11.632  1.4456 -0.3729 -1.6724
  195DOPC    HB24099   4.518   2.229  11.574  0.7430  0.3388  0.3476
  195DOPC    C224100   4.416   2.202  11.764  0.3238  0.0967 -0.2586
  195DOPC    HS24101   4.321   2.244  11.802  2.0746  3.1674  1.0618
  195DOPC   O2124102   4.532   2.241  11.843  0.1781  0.4811 -0.0169
  195DOPC   C2124103   4.499   2.269  11.966 -1.1251 -0.0573  0.0404
  195DOPC   O2224104   4.389   2.291  12.011  0.0455  0.5321 -0.2384
  195DOPC   C2224105   4.618   2.257  12.060  0.0431 -0.4279  0.4813
  195DOPC   H2R24106   4.706   2.257  11.992  1.3442 -0.7573  2.0744
  195DOPC   H2S24107   4.616   2.153  12.101 -2.9763 -0.7223 -0.2387
  195DOPC    C324108   4.413   2.052  11.746 -0.1492  0.4359  0.5652
  195DOPC    HX24109   4.493   2.017  11.678 -1.2746  1.3684 -1.3365
  195DOPC    HY24110   4.318   2.038  11.689  1.0191  0.9536 -1.6024
  195DOPC   O3124111   4.435   1.977  11.863  0.8633 -0.6310  0.1880
  195DOPC   C3124112   4.316   1.952  11.930 -0.4694 -0.3917 -0.1238
  195DOPC   O3224113   4.208   1.997  11.892 -0.1978 -0.4037  0.0479
  195DOPC   C3224114   4.343   1.888  12.069 -0.0616 -0.4609  0.1746
  195DOPC   H2X24115   4.287   1.792  12.061 -0.8057 -0.0775  0.7084
  195DOPC   H2Y24116   4.453   1.878  12.085  0.0968  2.1251  1.1737
  195DOPC   C2324117   4.633   2.357  12.179  0.4527 -0.0495  0.5053
  195DOPC   H3R24118   4.547   2.350  12.249 -0.4053  0.0426 -0.5141
  195DOPC   H3S24119   4.648   2.459  12.138 -2.6726  0.1318 -0.5094
  195DOPC   C2424120   4.761   2.325  12.260  0.3420  0.1985 -0.2937
  195DOPC   H4R24121   4.851   2.321  12.195 -0.2991  1.2187 -1.3024
  195DOPC   H4S24122   4.740   2.225  12.304 -1.3493  0.5483 -0.2264
  195DOPC   C2524123   4.781   2.431  12.366 -0.1153 -0.0766 -0.3576
  195DOPC   H5R24124   4.769   2.532  12.320  0.5486 -0.3121 -1.0817
  195DOPC   H5S24125   4.883   2.418  12.407 -0.1825 -0.6328 -0.3669
  195DOPC   C2624126   4.693   2.404  12.491 -0.2737 -0.1611 -0.2813
  195DOPC   H6R24127   4.720   2.298  12.509 -2.3524 -0.9232 -1.3559
  195DOPC   H6S24128   4.584   2.400  12.470 -0.1294 -0.4445 -1.0176
  195DOPC   C2724129   4.731   2.494  12.607  0.0035 -0.1468 -0.1925
  195DOPC   H7R24130   4.694   2.596  12.586  0.5900  0.1151  0.0363
  195DOPC   H7S24131   4.841   2.486  12.615 -0.1915 -1.1969  3.4644
  195DOPC   C2824132   4.673   2.451  12.748 -0.7113  0.6556 -0.3035
  195DOPC   H8R24133   4.712   2.352  12.780  0.4564  2.0370  2.9779
  195DOPC   H8S24134   4.562   2.454  12.748 -0.8594 -1.8830  0.5589
  195DOPC   C2924135   4.728   2.548  12.849 -0.5342 -0.1730  0.1364
  195DOPC   H9R24136   4.662   2.633  12.872 -0.7532 -0.5584  0.9489
  195DOPC  C21024137   4.855   2.538  12.904 -0.6574 -0.2080 -0.0618
  195DOPC  H10R24138   4.884   2.618  12.974 -1.5425  0.5896 -0.5773
  195DOPC  C21124139   4.956   2.427  12.886  0.4780  0.1568 -0.1924
  195DOPC  H11R24140   5.062   2.453  12.864  0.5245  0.7520  0.6756
  195DOPC  H11S24141   4.926   2.356  12.806 -1.3772  1.1290 -0.4191
  195DOPC  C21224142   4.968   2.344  13.018  0.2978  0.7765  0.0014
  195DOPC  H12R24143   5.043   2.269  12.985  0.4128  0.8594  0.0698
  195DOPC  H12S24144   4.870   2.294  13.032  2.8495 -4.6366  1.0170
  195DOPC  C21324145   5.023   2.417  13.151  0.4823  0.6448  0.1338
  195DOPC  H13R24146   4.943   2.478  13.197 -1.2198 -1.5376  0.2529
  195DOPC  H13S24147   5.115   2.475  13.131  0.1560  0.6613 -1.4718
  195DOPC  C21424148   5.071   2.317  13.256  0.6339  0.3467  0.5481
  195DOPC  H14R24149   5.138   2.247  13.202 -0.4313 -0.7605  0.6264
  195DOPC  H14S24150   4.976   2.265  13.282 -0.4247  1.8856 -0.0506
  195DOPC  C21524151   5.139   2.385  13.382  0.2610  0.3723  0.0566
  195DOPC  H15R24152   5.091   2.350  13.476  1.2490 -1.1940  0.0202
  195DOPC  H15S24153   5.119   2.494  13.383 -0.8738  0.2149  2.8053
  195DOPC  C21624154   5.287   2.364  13.381 -0.0133 -0.1966 -0.2993
  195DOPC  H16R24155   5.329   2.453  13.432  1.2243 -0.8148 -0.1870
  195DOPC  H16S24156   5.331   2.374  13.280 -0.8058 -0.9640 -0.7359
  195DOPC  C21724157   5.333   2.224  13.422 -0.4273  0.7817  0.6224
  195DOPC  H17R24158   5.287   2.147  13.356  1.1452  0.3317  0.0023
  195DOPC  H17S24159   5.332   2.202  13.531 -2.6329 -1.5717  0.2238
  195DOPC  C21824160   5.484   2.205  13.393  0.5501 -0.5851  0.0255
  195DOPC  H18R24161   5.530   2.281  13.460 -1.2022 -0.0620  0.7087
  195DOPC  H18S24162   5.519   2.236  13.292  0.0967  0.1689  0.0892
  195DOPC  H18T24163   5.520   2.102  13.410 -3.4577 -2.2910 -0.7266
  195DOPC   C3324164   4.295   1.974  12.180 -0.3912  0.6526 -0.5330
  195DOPC   H3X24165   4.185   1.957  12.189 -0.2737  0.8840  1.8519
  195DOPC   H3Y24166   4.306   2.080  12.149  1.1946  0.6715 -0.0090
  195DOPC   C3424167   4.363   1.951  12.315 -0.6371 -0.4788  0.6079
  195DOPC   H4X24168   4.367   1.842  12.337 -0.3553 -0.2356  1.8099
  195DOPC   H4Y24169   4.284   1.991  12.382 -0.5393 -2.4748  2.0000
  195DOPC   C3524170   4.502   2.006  12.331 -0.6202  0.3394 -0.2963
  195DOPC   H5X24171   4.508   2.103  12.278 -0.4765 -0.3670 -1.6055
  195DOPC   H5Y24172   4.570   1.938  12.276 -2.2932 -0.8039 -1.0355
  195DOPC   C3624173   4.552   2.027  12.475  0.2937 -0.5849  1.0801
  195DOPC   H6X24174   4.557   1.928  12.527  0.1119 -1.2078 -0.0471
  195DOPC   H6Y24175   4.658   2.063  12.476  0.0827  0.0535  0.8146
  195DOPC   C3724176   4.464   2.125  12.557  0.4900  0.6967 -0.3719
  195DOPC   H7X24177   4.457   2.218  12.498 -1.1762  1.1436  0.4659
  195DOPC   H7Y24178   4.357   2.095  12.551  1.0752 -1.3798 -1.4281
  195DOPC   C3824179   4.506   2.141  12.703  0.5204  0.0454 -0.7212
  195DOPC   H8X24180   4.464   2.235  12.745 -1.3022 -1.5810  1.3126
  195DOPC   H8Y24181   4.616   2.146  12.689  0.6454 -3.0419 -1.5590
  195DOPC   C3924182   4.470   2.015  12.777 -0.5116 -0.1241 -0.0316
  195DOPC   H9X24183   4.502   1.925  12.723  2.5933  0.5749  0.4427
  195DOPC  C31024184   4.414   2.000  12.901  0.2425  0.0057 -0.2054
  195DOPC  H10X24185   4.355   1.908  12.917 -0.6515  0.2180 -2.0476
  195DOPC  C31124186   4.384   2.114  12.993 -0.1113 -0.6125 -0.1140
  195DOPC  H11X24187   4.306   2.090  13.068 -0.7492  3.0184  0.6139
  195DOPC  H11Y24188   4.325   2.193  12.940  1.4316  0.4675 -0.2934
  195DOPC  C31224189   4.513   2.172  13.065 -0.3799  0.1389 -0.3867
  195DOPC  H12X24190   4.575   2.203  12.978 -0.7413 -1.0582 -1.0921
  195DOPC  H12Y24191   4.579   2.106  13.125  1.8574  2.1271 -0.5011
  195DOPC  C31324192   4.474   2.282  13.162  0.0232  0.8278  0.7351
  195DOPC  H13X24193   4.394   2.342  13.114  1.2630  1.4560 -0.6437
  195DOPC  H13Y24194   4.439   2.230  13.254  1.0294  0.6363  1.0229
  195DOPC  C31424195   4.589   2.368  13.205  0.2498  0.1629 -0.3273
  195DOPC  H14X24196   4.679   2.306  13.223  1.3100  1.8561  0.4637
  195DOPC  H14Y24197   4.614   2.438  13.123  0.6384  1.1378  0.6035
  195DOPC  C31524198   4.540   2.448  13.327  0.2481  0.2238 -0.1402
  195DOPC  H15X24199   4.510   2.387  13.414 -1.5589 -0.7301 -1.3562
  195DOPC  H15Y24200   4.442   2.493  13.300 -0.4232 -2.2033 -2.2081
  195DOPC  C31624201   4.632   2.561  13.376  0.3154  0.0720 -0.1998
  195DOPC  H16X24202   4.674   2.622  13.292  1.5226 -0.2648  0.1301
  195DOPC  H16Y24203   4.577   2.637  13.435 -1.6031 -1.1081 -0.4067
  195DOPC  C31724204   4.752   2.503  13.446 -0.0940 -0.8019  0.3694
  195DOPC  H17X24205   4.721   2.442  13.533  1.8185 -2.3453  0.0464
  195DOPC  H17Y24206   4.804   2.433  13.376  1.8468  1.1971 -0.2966
  195DOPC  C31824207   4.853   2.611  13.487  0.3843 -0.1662 -0.4264
  195DOPC  H18X24208   4.948   2.573  13.530  0.0450  0.5480  1.0352
  195DOPC  H18Y24209   4.895   2.666  13.401 -1.7513  0.9349 -0.8216
  195DOPC  H18Z24210   4.813   2.694  13.549 -0.4240 -0.2604 -0.8034
  196DOPC     N24211   6.008   3.636  11.072 -0.1299  0.2551 -0.2179
  196DOPC   C1224212   6.109   3.561  11.160 -0.2510 -0.2030 -0.1339
  196DOPC  H12A24213   6.189   3.628  11.188 -0.6249  0.6718 -1.0886
  196DOPC  H12B24214   6.149   3.481  11.101  2.4438  1.5633 -0.8751
  196DOPC   C1324215   5.917   3.552  10.996 -0.1066  0.1972  0.5158
  196DOPC  H13A24216   5.849   3.613  10.938  0.1836 -0.7565 -0.8860
  196DOPC  H13B24217   5.979   3.497  10.926  0.6011  0.1160  1.2028
  196DOPC  H13C24218   5.858   3.493  11.064 -1.3762  1.5173  0.6113
  196DOPC   C1424219   6.082   3.701  10.964 -0.0107 -0.0088  1.0606
  196DOPC  H14A24220   6.129   3.793  10.997  0.4907  0.4717 -0.8614
  196DOPC  H14B24221   6.156   3.639  10.916  0.2649  1.2115 -0.1564
  196DOPC  H14C24222   6.026   3.733  10.878  0.4192  1.2718  1.2355
  196DOPC   C1524223   5.932   3.741  11.152 -0.1810 -0.3524 -0.2800
  196DOPC  H15A24224   5.996   3.825  11.176 -2.1639  0.9560  0.6833
  196DOPC  H15B24225   5.892   3.686  11.235 -0.3038  1.6885  1.0747
  196DOPC  H15C24226   5.847   3.788  11.105  0.9597  0.9852 -1.1045
  196DOPC   C1124227   6.056   3.497  11.296 -0.0476 -0.4618 -0.3442
  196DOPC  H11A24228   6.142   3.455  11.352 -0.3859 -0.1579  0.4110
  196DOPC  H11B24229   6.021   3.582  11.359  1.4442 -0.7530  0.9193
  196DOPC     P24230   5.974   3.256  11.268 -0.3902 -0.2735 -0.4782
  196DOPC   O1324231   6.086   3.217  11.180  0.1551  0.7178  0.2477
  196DOPC   O1424232   5.850   3.183  11.248 -0.6237  0.6683 -0.7497
  196DOPC   O1224233   5.948   3.412  11.268  0.1129  0.1477  0.6291
  196DOPC   O1124234   6.030   3.215  11.410 -0.0775 -0.5837  0.3660
  196DOPC    C124235   5.941   3.248  11.518 -0.0797  0.1674 -0.5321
  196DOPC    HA24236   5.854   3.179  11.521  0.2210 -0.1822  0.4799
  196DOPC    HB24237   5.902   3.352  11.518  1.5856  0.8527 -2.3919
  196DOPC    C224238   6.028   3.227  11.641 -0.8321 -0.3189  0.7987
  196DOPC    HS24239   6.101   3.146  11.618 -2.3845 -1.8327  0.9684
  196DOPC   O2124240   5.942   3.193  11.748 -0.1372  0.1700 -0.2341
  196DOPC   C2124241   6.004   3.112  11.837 -0.2545  0.2030 -0.0648
  196DOPC   O2224242   6.105   3.047  11.821 -0.4565  0.0521  0.0866
  196DOPC   C2224243   5.915   3.090  11.955 -0.1419 -0.5118 -0.3799
  196DOPC   H2R24244   5.814   3.065  11.917 -0.5294 -0.9159  0.8746
  196DOPC   H2S24245   5.906   3.186  12.010  0.6366  0.0647 -1.2263
  196DOPC    C324246   6.106   3.355  11.676 -0.1616  0.3388  0.4392
  196DOPC    HX24247   6.028   3.432  11.693 -1.1364 -1.0891  3.0897
  196DOPC    HY24248   6.163   3.390  11.588 -1.1219  2.1988  0.5115
  196DOPC   O3124249   6.198   3.339  11.782 -0.5583  0.2719 -0.0498
  196DOPC   C3124250   6.316   3.283  11.757 -0.0560  0.1034  0.5387
  196DOPC   O3224251   6.356   3.253  11.645  0.4379  0.2067 -0.6580
  196DOPC   C3224252   6.386   3.244  11.892  0.1107  0.4671  0.8384
  196DOPC   H2X24253   6.349   3.141  11.915  3.0394 -1.0725 -0.6892
  196DOPC   H2Y24254   6.491   3.221  11.865 -0.4165  0.1658 -1.1239
  196DOPC   C2324255   5.946   2.966  12.033  0.0611 -0.0230 -0.3363
  196DOPC   H3R24256   6.032   2.992  12.099 -2.2423  1.3069  2.3464
  196DOPC   H3S24257   5.948   2.876  11.968  1.3942 -0.8310  0.7659
  196DOPC   C2424258   5.837   2.953  12.141 -0.2701  0.6079 -0.2299
  196DOPC   H4R24259   5.743   2.928  12.088 -0.0135 -1.1754  0.0950
  196DOPC   H4S24260   5.826   3.047  12.199  0.2397  0.2710  0.4202
  196DOPC   C2524261   5.862   2.844  12.250 -0.2693  0.0824  0.1700
  196DOPC   H5R24262   5.968   2.864  12.279  0.0430 -0.7313 -0.3663
  196DOPC   H5S24263   5.850   2.743  12.206  1.4162  0.0750 -0.3749
  196DOPC   C2624264   5.769   2.860  12.375 -0.0623 -0.2418  0.1112
  196DOPC   H6R24265   5.663   2.860  12.343  0.3861  2.0953 -1.6195
  196DOPC   H6S24266   5.786   2.958  12.423 -0.0870  1.3328 -2.8345
  196DOPC   C2724267   5.796   2.749  12.471  0.4134  0.4876  0.2700
  196DOPC   H7R24268   5.906   2.760  12.478  0.4128  1.1637 -0.5394
  196DOPC   H7S24269   5.771   2.652  12.423  0.5423 -0.0055  1.1833
  196DOPC   C2824270   5.718   2.753  12.606  0.0882 -0.0241  0.1941
  196DOPC   H8R24271   5.609   2.734  12.592 -0.2497  1.8010  0.1229
  196DOPC   H8S24272   5.719   2.860  12.633  1.6083  0.2642 -0.8833
  196DOPC   C2924273   5.786   2.657  12.711  0.1903 -0.3249 -0.3339
  196DOPC   H9R24274   5.822   2.561  12.671  2.0444 -0.2467  1.0122
  196DOPC  C21024275   5.811   2.679  12.840  0.1091 -0.2145  0.5577
  196DOPC  H10R24276   5.840   2.592  12.901 -1.8693 -1.2364  0.1497
  196DOPC  C21124277   5.775   2.803  12.924 -0.1889  0.1598 -0.1115
  196DOPC  H11R24278   5.694   2.868  12.883  0.1292  1.6774  1.5385
  196DOPC  H11S24279   5.865   2.866  12.939 -0.6855  1.0509 -0.7466
  196DOPC  C21224280   5.732   2.773  13.070 -0.0062  0.0527  0.3464
  196DOPC  H12R24281   5.639   2.712  13.073 -1.0633  1.5027 -1.3687
  196DOPC  H12S24282   5.701   2.865  13.125 -3.4130  1.0288 -2.8408
  196DOPC  C21324283   5.842   2.703  13.149  0.2037 -0.3549  0.5773
  196DOPC  H13R24284   5.907   2.784  13.187 -0.7538  1.4832 -1.5031
  196DOPC  H13S24285   5.904   2.631  13.091  0.6002  1.2641 -1.0891
  196DOPC  C21424286   5.797   2.632  13.283  0.3095  0.1499 -0.3059
  196DOPC  H14R24287   5.887   2.579  13.320 -0.4155 -0.6952  0.2560
  196DOPC  H14S24288   5.730   2.546  13.263  1.4167 -0.9824  0.6590
  196DOPC  C21524289   5.759   2.722  13.405  0.0346  0.6426  0.1193
  196DOPC  H15R24290   5.655   2.761  13.397  0.2567  1.2653  0.1651
  196DOPC  H15S24291   5.837   2.801  13.407 -0.4296  1.1954 -1.7479
  196DOPC  C21624292   5.774   2.640  13.539 -0.2188  0.0133  0.3949
  196DOPC  H16R24293   5.752   2.710  13.623  3.2720 -1.0221  2.3936
  196DOPC  H16S24294   5.880   2.614  13.557  0.6284  2.3926 -0.7652
  196DOPC  C21724295   5.682   2.517  13.557  0.3792 -0.1394 -0.1017
  196DOPC  H17R24296   5.709   2.449  13.474 -0.4162 -1.5431  0.7633
  196DOPC  H17S24297   5.578   2.554  13.548  0.1269 -0.9646 -0.5823
  196DOPC  C21824298   5.696   2.450  13.697 -0.1702  0.2795 -0.9397
  196DOPC  H18R24299   5.640   2.354  13.705  0.4848 -0.0044  0.4454
  196DOPC  H18S24300   5.656   2.503  13.786  0.5581 -0.8056  0.0692
  196DOPC  H18T24301   5.801   2.417  13.710 -0.9423 -2.5797 -1.1468
  196DOPC   C3324302   6.369   3.352  12.000  0.1236 -0.0623 -0.7571
  196DOPC   H3X24303   6.264   3.384  12.014 -0.0793 -0.6647 -0.8678
  196DOPC   H3Y24304   6.432   3.440  11.977  1.0361 -1.2609 -3.2436
  196DOPC   C3424305   6.417   3.288  12.128  0.5300  0.0698 -0.8036
  196DOPC   H4X24306   6.518   3.246  12.108  0.9498  0.7148 -0.1073
  196DOPC   H4Y24307   6.344   3.208  12.153  0.0619  0.9762  0.9183
  196DOPC   C3524308   6.422   3.387  12.248 -0.4679  0.0632  0.0284
  196DOPC   H5X24309   6.319   3.414  12.280 -1.1316 -2.5251  0.3168
  196DOPC   H5Y24310   6.485   3.474  12.222  0.0902  0.1310  1.5038
  196DOPC   C3624311   6.491   3.317  12.367  0.3128  0.4683 -0.2089
  196DOPC   H6X24312   6.419   3.234  12.388  1.0454 -0.0435  0.3307
  196DOPC   H6Y24313   6.589   3.276  12.335 -0.5866 -1.1405 -0.9966
  196DOPC   C3724314   6.504   3.398  12.499  0.2868 -0.0795  0.0766
  196DOPC   H7X24315   6.582   3.475  12.483 -0.3575  0.4018 -0.9452
  196DOPC   H7Y24316   6.417   3.463  12.523  2.0799  1.6699  2.2163
  196DOPC   C3824317   6.525   3.319  12.632  0.1340  0.0526 -0.1394
  196DOPC   H8X24318   6.622   3.266  12.622  0.4110  0.5552 -0.1675
  196DOPC   H8Y24319   6.454   3.235  12.643  0.6202 -0.0558  2.9677
  196DOPC   C3924320   6.520   3.396  12.753 -0.5658 -0.6008 -0.3130
  196DOPC   H9X24321   6.472   3.495  12.739  0.6087 -0.0812 -0.7805
  196DOPC  C31024322   6.562   3.366  12.874  0.0740 -0.5338 -0.3112
  196DOPC  H10X24323   6.561   3.445  12.950  0.1495  1.9787 -2.7545
  196DOPC  C31124324   6.597   3.234  12.925  0.1331  0.5292  1.4421
  196DOPC  H11X24325   6.562   3.154  12.856  1.1223  1.5927 -0.3746
  196DOPC  H11Y24326   6.545   3.229  13.023  0.6864  0.7290  1.7513
  196DOPC  C31224327   6.742   3.227  12.963 -0.7630  0.1194 -0.2472
  196DOPC  H12X24328   6.816   3.242  12.881  0.0602 -0.5072  0.3632
  196DOPC  H12Y24329   6.753   3.123  13.000 -1.4590  0.6281  1.4722
  196DOPC  C31324330   6.789   3.328  13.077  0.0181  0.3712  0.2178
  196DOPC  H13X24331   6.893   3.302  13.105  0.4966 -0.8347 -2.3829
  196DOPC  H13Y24332   6.796   3.432  13.039  1.5714  0.5896  1.0196
  196DOPC  C31424333   6.700   3.335  13.205  0.7543  0.3691 -0.3965
  196DOPC  H14X24334   6.608   3.392  13.182 -0.1083 -1.8008 -2.7236
  196DOPC  H14Y24335   6.661   3.231  13.210  0.2479  0.6119  2.0456
  196DOPC  C31524336   6.780   3.364  13.332 -0.0707  0.0333  0.0677
  196DOPC  H15X24337   6.821   3.465  13.308 -0.5069  0.0944 -0.4539
  196DOPC  H15Y24338   6.865   3.294  13.347 -0.0251  0.1640  0.4219
  196DOPC  C31624339   6.693   3.373  13.456  0.0142 -0.1650 -0.1629
  196DOPC  H16X24340   6.631   3.465  13.443 -0.9170 -0.4608  1.8317
  196DOPC  H16Y24341   6.637   3.278  13.463 -0.4156  0.0886 -0.0826
  196DOPC  C31724342   6.784   3.394  13.578 -0.1389  0.5722  0.0551
  196DOPC  H17X24343   6.852   3.306  13.579 -1.8792 -0.8669 -1.1254
  196DOPC  H17Y24344   6.837   3.491  13.574  0.7555  0.1836  1.5826
  196DOPC  C31824345   6.708   3.384  13.711 -0.5384 -0.7906 -0.4740
  196DOPC  H18X24346   6.619   3.449  13.727  1.6978  2.9416 -1.7486
  196DOPC  H18Y24347   6.677   3.278  13.714  1.3465 -1.3711 -0.3711
  196DOPC  H18Z24348   6.783   3.391  13.793 -0.5102 -0.3475 -0.5351
  197DOPC     N24349   6.351   0.169  10.939  0.5063  0.1282 -0.1067
  197DOPC   C1224350   6.465   0.139  11.033 -0.1624  0.1460  0.9288
  197DOPC  H12A24351   6.489   0.221  11.098  3.9430  1.1172 -1.4385
  197DOPC  H12B24352   6.554   0.151  10.973 -1.3177 -0.8868 -1.1103
  197DOPC   C1324353   6.224   0.105  10.982  0.5266  0.6072  0.4370
  197DOPC  H13A24354   6.139   0.139  10.925 -0.0359 -0.7336  0.4496
  197DOPC  H13B24355   6.225  -0.001  10.960 -0.8637  0.6831 -0.0691
  197DOPC  H13C24356   6.208   0.110  11.089  0.7591  0.2785  0.4875
  197DOPC   C1424357   6.396   0.136  10.798  0.5293 -0.0753  0.1123
  197DOPC  H14A24358   6.312   0.141  10.729 -0.3683  0.4798  1.1992
  197DOPC  H14B24359   6.484   0.196  10.782  0.3492  0.1596 -0.0155
  197DOPC  H14C24360   6.428   0.033  10.803  0.9099  0.0962  1.5047
  197DOPC   C1524361   6.334   0.313  10.951  0.6399  0.9483  0.2843
  197DOPC  H15A24362   6.253   0.339  10.886 -1.5520 -1.7882  1.6764
  197DOPC  H15B24363   6.426   0.365  10.929  1.3343 -1.0003 -1.8768
  197DOPC  H15C24364   6.291   0.339  11.046 -1.9671  0.5738 -0.7254
  197DOPC   C1124365   6.484  -0.007  11.087  0.5718 -0.2345  0.4929
  197DOPC  H11A24366   6.577  -0.006  11.149  2.6114 -1.0015 -2.3362
  197DOPC  H11B24367   6.401  -0.030  11.157 -0.1722  0.8847  0.0051
  197DOPC     P24368   6.630  -0.133  10.914 -0.3379 -0.3917 -0.2234
  197DOPC   O1324369   6.658  -0.010  10.835 -0.2592  0.1688  0.9591
  197DOPC   O1424370   6.613  -0.264  10.848 -0.3611  0.7239 -0.0782
  197DOPC   O1224371   6.495  -0.109  10.992  0.7329  0.0464  0.7654
  197DOPC   O1124372   6.732  -0.154  11.025  0.1390  0.1884 -0.5052
  197DOPC    C124373   6.706  -0.268  11.110 -0.9369 -0.4106 -0.8878
  197DOPC    HA24374   6.718  -0.358  11.046  3.1492 -0.7870  0.0907
  197DOPC    HB24375   6.604  -0.262  11.153 -0.2803 -1.5902  0.9191
  197DOPC    C224376   6.802  -0.279  11.232  0.2236 -0.7998  0.0833
  197DOPC    HS24377   6.755  -0.359  11.294  1.4353 -1.5440  0.0726
  197DOPC   O2124378   6.808  -0.156  11.308 -0.1075  0.7946  0.7315
  197DOPC   C2124379   6.693  -0.126  11.374 -0.3284  0.4052 -0.0522
  197DOPC   O2224380   6.589  -0.186  11.385  0.2379 -0.6135  0.0690
  197DOPC   C2224381   6.708   0.014  11.434  0.0088 -0.1153  0.3377
  197DOPC   H2R24382   6.687   0.096  11.362  2.6193 -0.3059 -0.7588
  197DOPC   H2S24383   6.816   0.025  11.461  0.3470 -0.2203 -0.9281
  197DOPC    C324384   6.938  -0.311  11.191 -0.4224  0.1924  0.6120
  197DOPC    HX24385   6.965  -0.250  11.102  0.0295 -0.7045  0.1223
  197DOPC    HY24386   6.936  -0.417  11.157  0.7375 -0.4695  2.4611
  197DOPC   O3124387   7.037  -0.313  11.292 -0.4467  0.2704 -0.1817
  197DOPC   C3124388   7.093  -0.195  11.323  0.1791 -0.3592  0.3340
  197DOPC   O3224389   7.085  -0.091  11.256  0.0916 -0.9039  0.3205
  197DOPC   C3224390   7.192  -0.209  11.435  0.2538  0.0653 -0.3976
  197DOPC   H2X24391   7.174  -0.301  11.493  1.8375 -0.1038 -0.1360
  197DOPC   H2Y24392   7.293  -0.217  11.390  1.2220  1.0410  1.5213
  197DOPC   C2324393   6.624   0.036  11.566 -0.3561  0.1542 -0.1363
  197DOPC   H3R24394   6.645  -0.047  11.637 -0.3175  0.4095  0.1536
  197DOPC   H3S24395   6.514   0.033  11.550 -0.1355 -0.6728 -1.7160
  197DOPC   C2424396   6.650   0.165  11.646 -0.0153  0.1372  0.5627
  197DOPC   H4R24397   6.640   0.245  11.570 -0.3657  0.9085  1.4019
  197DOPC   H4S24398   6.758   0.165  11.674 -0.2637 -2.4921  1.8139
  197DOPC   C2524399   6.559   0.194  11.759  0.1484  0.6008  0.1178
  197DOPC   H5R24400   6.578   0.111  11.830 -1.1268  0.7481  0.6505
  197DOPC   H5S24401   6.456   0.176  11.722 -0.5210  0.6929  1.8833
  197DOPC   C2624402   6.581   0.327  11.835  0.5861  0.2725 -0.8947
  197DOPC   H6R24403   6.497   0.346  11.907 -0.5255 -0.9224 -1.8278
  197DOPC   H6S24404   6.562   0.398  11.752 -2.9246 -0.9837 -1.3720
  197DOPC   C2724405   6.719   0.342  11.901 -0.0121 -0.2519 -0.3923
  197DOPC   H7R24406   6.787   0.402  11.836  0.2830 -0.7416 -0.5468
  197DOPC   H7S24407   6.760   0.239  11.911  1.7757  0.4213 -0.3685
  197DOPC   C2824408   6.716   0.402  12.040  0.3894  0.8174 -0.0324
  197DOPC   H8R24409   6.819   0.401  12.082 -0.0050  0.2342  0.9477
  197DOPC   H8S24410   6.650   0.337  12.101 -0.0616 -0.5414 -1.8768
  197DOPC   C2924411   6.671   0.547  12.042 -0.6651  0.2912 -0.2458
  197DOPC   H9R24412   6.694   0.589  11.944 -0.1317 -0.0535 -0.2740
  197DOPC  C21024413   6.602   0.608  12.144  0.0227  0.4692 -0.1585
  197DOPC  H10R24414   6.565   0.711  12.141 -3.6498 -0.7060  0.5814
  197DOPC  C21124415   6.566   0.537  12.277 -0.2139 -0.0859 -0.0116
  197DOPC  H11R24416   6.626   0.443  12.285 -0.9356 -0.9570 -3.4337
  197DOPC  H11S24417   6.459   0.514  12.295 -0.1692 -0.6633 -0.4519
  197DOPC  C21224418   6.600   0.620  12.403 -0.0235 -0.1958 -0.0152
  197DOPC  H12R24419   6.543   0.716  12.405  0.1639 -0.0780 -0.2503
  197DOPC  H12S24420   6.707   0.651  12.398 -0.3070  0.8790  0.2785
  197DOPC  C21324421   6.586   0.557  12.542  0.0343 -0.1747  0.8719
  197DOPC  H13R24422   6.637   0.458  12.541  0.1555 -0.1099 -0.2979
  197DOPC  H13S24423   6.478   0.545  12.566 -0.4006  0.6894 -0.5603
  197DOPC  C21424424   6.638   0.650  12.654 -0.3735  0.5760 -0.0740
  197DOPC  H14R24425   6.619   0.755  12.622  1.1211  1.6143  2.1851
  197DOPC  H14S24426   6.744   0.626  12.674 -0.3034  0.4143 -0.6275
  197DOPC  C21524427   6.574   0.631  12.790 -0.0347  0.1189 -0.2722
  197DOPC  H15R24428   6.465   0.635  12.768 -0.2181 -0.2065  0.5558
  197DOPC  H15S24429   6.607   0.721  12.847  0.5505  0.3027 -0.8975
  197DOPC  C21624430   6.600   0.497  12.858  0.1525 -0.7785 -0.5399
  197DOPC  H16R24431   6.603   0.411  12.787  1.7742 -1.4546  0.2899
  197DOPC  H16S24432   6.508   0.475  12.917 -2.8973  1.3334 -4.0990
  197DOPC  C21724433   6.724   0.486  12.949 -0.7008 -0.4642  0.2418
  197DOPC  H17R24434   6.819   0.480  12.893 -2.7259 -1.0859 -3.4518
  197DOPC  H17S24435   6.703   0.386  12.993 -0.7627 -1.0997 -1.1984
  197DOPC  C21824436   6.724   0.595  13.059  0.4531  0.1410 -0.2993
  197DOPC  H18R24437   6.732   0.691  13.004  2.6795  0.4827  0.5219
  197DOPC  H18S24438   6.807   0.581  13.132 -0.1340  1.8437  0.7435
  197DOPC  H18T24439   6.631   0.585  13.120  1.4933  2.2048  1.7973
  197DOPC   C3324440   7.173  -0.090  11.540 -0.4883  0.2511 -0.2571
  197DOPC   H3X24441   7.170   0.005  11.482 -1.9954 -0.8930 -2.2034
  197DOPC   H3Y24442   7.267  -0.069  11.595 -1.1771  1.9296  0.3472
  197DOPC   C3424443   7.061  -0.114  11.635 -0.0733  0.5545 -0.0133
  197DOPC   H4X24444   7.077  -0.217  11.675 -0.1591  0.5284 -0.0453
  197DOPC   H4Y24445   6.962  -0.125  11.585  0.7743 -2.6912 -1.2772
  197DOPC   C3524446   7.061  -0.008  11.742  0.3374 -0.2134 -0.1641
  197DOPC   H5X24447   7.049   0.092  11.695  1.2327  1.8484  3.5627
  197DOPC   H5Y24448   7.160  -0.017  11.791  1.0709  1.9818 -1.1475
  197DOPC   C3624449   6.947  -0.033  11.838 -0.7910  0.4568  0.4643
  197DOPC   H6X24450   6.904   0.063  11.873 -1.7904  0.5675 -0.9883
  197DOPC   H6Y24451   6.860  -0.078  11.785  0.1828  0.8135 -1.5214
  197DOPC   C3724452   6.985  -0.120  11.961  0.1916  0.4707 -0.0650
  197DOPC   H7X24453   7.021  -0.223  11.937 -0.6668  0.3762 -1.0131
  197DOPC   H7Y24454   7.071  -0.068  12.008  0.5781  0.0600 -0.3043
  197DOPC   C3824455   6.884  -0.128  12.069 -0.4596  0.6503 -0.6621
  197DOPC   H8X24456   6.906  -0.188  12.159 -2.5016  0.8055 -0.0137
  197DOPC   H8Y24457   6.799  -0.192  12.036  0.4614 -0.3645 -1.1381
  197DOPC   C3924458   6.838   0.009  12.107  0.4355  0.1985  0.5403
  197DOPC   H9X24459   6.791   0.068  12.027 -0.4013 -1.3701 -0.1746
  197DOPC  C31024460   6.844   0.065  12.227 -0.7155  0.5683  0.2886
  197DOPC  H10X24461   6.787   0.159  12.240 -1.0760  0.3286  0.4508
  197DOPC  C31124462   6.895   0.004  12.359 -0.2836  0.6162  1.1516
  197DOPC  H11X24463   7.001  -0.030  12.351 -0.3542  0.7375 -0.7601
  197DOPC  H11Y24464   6.836  -0.086  12.388  0.2861 -0.2406 -0.2174
  197DOPC  C31224465   6.872   0.105  12.468 -0.0823  0.1796 -0.5549
  197DOPC  H12X24466   6.765   0.130  12.485  0.1777  0.9101  0.1191
  197DOPC  H12Y24467   6.935   0.195  12.450  0.0731  0.6722  1.9729
  197DOPC  C31324468   6.914   0.041  12.601 -0.4126 -0.2407 -0.1134
  197DOPC  H13X24469   6.870  -0.061  12.609 -0.5069 -0.0324  3.1883
  197DOPC  H13Y24470   7.024   0.025  12.606 -0.6040 -2.7222 -1.9523
  197DOPC  C31424471   6.888   0.127  12.724  0.2102  0.6377 -0.1174
  197DOPC  H14X24472   6.943   0.223  12.719  1.6434  0.0191  2.3530
  197DOPC  H14Y24473   6.780   0.149  12.730 -0.2484 -1.3537 -0.1267
  197DOPC  C31524474   6.928   0.060  12.854  0.1009  0.0319 -0.0552
  197DOPC  H15X24475   7.025   0.005  12.847 -1.2696 -2.7884  1.3110
  197DOPC  H15Y24476   6.852  -0.018  12.876  1.3973 -1.2296  0.1811
  197DOPC  C31624477   6.932   0.173  12.953  0.3085  0.1489 -0.2745
  197DOPC  H16X24478   7.021   0.236  12.934 -1.5802  2.3919 -2.1941
  197DOPC  H16Y24479   6.837   0.228  12.940  0.5077  0.6607  0.3732
  197DOPC  C31724480   6.944   0.126  13.098  0.3208  0.4654  0.1681
  197DOPC  H17X24481   6.860   0.055  13.116 -2.2507  2.4980 -2.6156
  197DOPC  H17Y24482   7.040   0.070  13.102  0.8902  1.1598 -2.0582
  197DOPC  C31824483   6.942   0.235  13.202 -0.1452  0.4476  0.6802
  197DOPC  H18X24484   7.039   0.289  13.205  0.3783 -0.4147  0.0106
  197DOPC  H18Y24485   6.854   0.301  13.189 -0.7328  0.0154  2.2421
  197DOPC  H18Z24486   6.920   0.195  13.303 -1.8558 -0.6851 -0.0974
  198DOPC     N24487   4.946   1.218  10.600 -0.0375 -0.1545 -0.2428
  198DOPC   C1224488   4.898   1.176  10.734 -0.5974 -0.0625 -0.0704
  198DOPC  H12A24489   4.955   1.091  10.769  0.3376  0.6942  0.3036
  198DOPC  H12B24490   4.795   1.145  10.729 -1.0409  0.8428  2.0525
  198DOPC   C1324491   5.094   1.234  10.593 -0.7246  0.2929 -0.0630
  198DOPC  H13A24492   5.117   1.279  10.498  1.2996 -3.7408 -1.7122
  198DOPC  H13B24493   5.127   1.290  10.679  1.0107  0.6872 -0.9479
  198DOPC  H13C24494   5.146   1.140  10.598 -0.3096  0.2267 -3.4302
  198DOPC   C1424495   4.887   1.344  10.558 -0.2653  0.1443 -0.3587
  198DOPC  H14A24496   4.780   1.337  10.546 -0.3824 -2.5338  1.4190
  198DOPC  H14B24497   4.899   1.415  10.638 -1.4309  0.3915 -0.3812
  198DOPC  H14C24498   4.945   1.385  10.477  0.5247  1.2543  0.7280
  198DOPC   C1524499   4.925   1.101  10.498 -0.0411 -0.2040 -0.2184
  198DOPC  H15A24500   4.987   1.017  10.525  3.1726  1.2459 -2.4780
  198DOPC  H15B24501   4.965   1.112  10.399 -1.1767 -0.7849 -0.7657
  198DOPC  H15C24502   4.819   1.079  10.489 -0.0168  0.1767 -1.6421
  198DOPC   C1124503   4.915   1.279  10.842  0.5899  0.9739 -0.4661
  198DOPC  H11A24504   4.880   1.380  10.814  1.6637  1.6302  0.4943
  198DOPC  H11B24505   4.852   1.252  10.930  0.9099  2.2727  0.1877
  198DOPC     P24506   5.122   1.196  10.975 -0.0541  0.3194  0.2032
  198DOPC   O1324507   5.250   1.256  11.024 -0.1152 -0.3389  0.2224
  198DOPC   O1424508   5.137   1.066  10.911 -0.4190  0.5766  0.3041
  198DOPC   O1224509   5.047   1.299  10.880 -0.4426  0.1171 -0.3637
  198DOPC   O1124510   5.025   1.179  11.103 -0.0845  0.0455 -0.1089
  198DOPC    C124511   5.003   1.287  11.196  0.2852 -0.0463  0.3653
  198DOPC    HA24512   4.904   1.277  11.245  0.5676  0.2850  1.0220
  198DOPC    HB24513   5.013   1.387  11.148 -1.9116  0.2117  0.3610
  198DOPC    C224514   5.105   1.282  11.302 -0.5301 -0.5036  1.0741
  198DOPC    HS24515   5.203   1.316  11.261 -1.5410 -0.2030 -1.2075
  198DOPC   O2124516   5.124   1.146  11.350 -0.0474 -0.1641 -0.2339
  198DOPC   C2124517   5.237   1.120  11.422 -0.4836 -0.3995  0.3578
  198DOPC   O2224518   5.337   1.189  11.426  0.7761 -0.1661  0.2364
  198DOPC   C2224519   5.221   0.970  11.471 -0.7583  0.6085  0.3173
  198DOPC   H2R24520   5.250   0.911  11.381 -1.1949 -0.4367  0.8518
  198DOPC   H2S24521   5.114   0.951  11.491 -0.5743 -1.0974 -0.1736
  198DOPC    C324522   5.075   1.378  11.425 -0.4417  0.2781 -0.3716
  198DOPC    HX24523   5.072   1.480  11.381 -1.8161  0.2310 -0.4428
  198DOPC    HY24524   5.161   1.388  11.495 -1.8360 -0.4418  1.5362
  198DOPC   O3124525   4.943   1.344  11.488 -0.6986 -0.1299  0.2609
  198DOPC   C3124526   4.953   1.268  11.597 -0.0597  0.4157  0.3144
  198DOPC   O3224527   5.060   1.239  11.650 -0.4104  0.2273 -0.7453
  198DOPC   C3224528   4.811   1.227  11.644  0.3285  0.0309  0.1970
  198DOPC   H2X24529   4.746   1.316  11.655  0.3756 -0.0246  0.9296
  198DOPC   H2Y24530   4.769   1.162  11.564 -1.4900  1.6243 -0.2074
  198DOPC   C2324531   5.323   0.930  11.570 -0.6489  0.1260  0.0655
  198DOPC   H3R24532   5.427   0.951  11.538 -0.7197  1.5663  0.6863
  198DOPC   H3S24533   5.314   0.822  11.591 -2.9278  0.0458 -0.9710
  198DOPC   C2424534   5.315   0.999  11.705  0.0058 -0.3607 -0.2738
  198DOPC   H4R24535   5.292   1.108  11.702  1.3930 -0.0704 -1.2544
  198DOPC   H4S24536   5.418   0.985  11.744  0.0009  1.0952  0.3434
  198DOPC   C2524537   5.211   0.937  11.796 -0.7393 -0.1442 -0.0310
  198DOPC   H5R24538   5.215   0.826  11.788 -0.1203 -0.0751 -0.7449
  198DOPC   H5S24539   5.108   0.966  11.766 -0.2554  1.4791 -0.2048
  198DOPC   C2624540   5.226   0.981  11.939  0.1167 -0.0465  0.1388
  198DOPC   H6R24541   5.231   1.092  11.933 -0.1980 -0.0721 -0.8837
  198DOPC   H6S24542   5.332   0.963  11.967  0.5669  2.8916  0.6736
  198DOPC   C2724543   5.120   0.934  12.039 -0.6109  0.0087  0.7763
  198DOPC   H7R24544   5.113   0.823  12.035 -3.7294  0.1481 -0.4481
  198DOPC   H7S24545   5.028   0.971  11.989  0.7734  2.9938  0.1986
  198DOPC   C2824546   5.148   0.971  12.182 -0.6362  0.5160  0.3788
  198DOPC   H8R24547   5.063   0.926  12.238 -0.2539  1.5430  1.8440
  198DOPC   H8S24548   5.126   1.080  12.183 -2.5660  0.2008 -1.3011
  198DOPC   C2924549   5.281   0.928  12.233 -0.0915  0.0897  0.0850
  198DOPC   H9R24550   5.366   0.959  12.170  1.5820  0.4288  2.3703
  198DOPC  C21024551   5.310   0.858  12.340 -0.1014 -0.3499  0.1243
  198DOPC  H10R24552   5.417   0.845  12.362  0.0439 -0.7638 -0.7618
  198DOPC  C21124553   5.207   0.813  12.441 -0.3375  0.1781 -0.5300
  198DOPC  H11R24554   5.145   0.729  12.403 -1.1029  0.3738  0.2479
  198DOPC  H11S24555   5.143   0.901  12.462  1.6038  1.3735  0.7501
  198DOPC  C21224556   5.272   0.756  12.570  0.0836 -0.0698 -0.2415
  198DOPC  H12R24557   5.350   0.684  12.537  0.8609  0.1123  1.1092
  198DOPC  H12S24558   5.194   0.695  12.619 -0.0927 -0.8617 -1.4634
  198DOPC  C21324559   5.342   0.863  12.660 -0.1717  0.3405 -0.0686
  198DOPC  H13R24560   5.405   0.926  12.595  0.0212  0.5904  0.3527
  198DOPC  H13S24561   5.404   0.810  12.737 -1.2831  1.8030  1.9273
  198DOPC  C21424562   5.238   0.950  12.731 -0.4411  0.2026 -0.5668
  198DOPC  H14R24563   5.185   0.889  12.808 -0.2498  0.8131  0.0562
  198DOPC  H14S24564   5.163   0.980  12.655 -0.2316 -0.4747 -1.0559
  198DOPC  C21524565   5.297   1.068  12.813 -0.0004 -0.1980  0.4884
  198DOPC  H15R24566   5.207   1.120  12.853  1.8877  2.2782  1.8455
  198DOPC  H15S24567   5.339   1.141  12.741  0.5814 -0.8746  0.1360
  198DOPC  C21624568   5.379   1.037  12.935  0.2128 -0.1486 -0.4743
  198DOPC  H16R24569   5.436   1.126  12.971 -0.5415  0.1254  0.0747
  198DOPC  H16S24570   5.450   0.954  12.917  2.7402  1.8430 -0.1941
  198DOPC  C21724571   5.291   0.990  13.053  0.3164 -0.1877  0.0704
  198DOPC  H17R24572   5.234   0.904  13.011 -0.1948  0.3714 -0.3835
  198DOPC  H17S24573   5.228   1.074  13.089  2.0718  1.3805 -0.4150
  198DOPC  C21824574   5.376   0.938  13.176  0.0155 -0.4694 -0.3418
  198DOPC  H18R24575   5.416   0.836  13.157  1.7946 -0.0147  0.7367
  198DOPC  H18S24576   5.302   0.928  13.259 -0.2096 -2.5602 -0.7377
  198DOPC  H18T24577   5.458   1.011  13.188 -1.6205  1.5454 -0.7596
  198DOPC   C3324578   4.822   1.152  11.778 -0.5096 -0.2684 -0.0530
  198DOPC   H3X24579   4.861   1.218  11.859 -2.1727 -1.0667  1.4615
  198DOPC   H3Y24580   4.896   1.069  11.781  0.6566  0.7446  2.9202
  198DOPC   C3424581   4.696   1.089  11.837  0.4775 -0.0626  0.2851
  198DOPC   H4X24582   4.656   1.035  11.749 -1.0383  1.5983 -0.1106
  198DOPC   H4Y24583   4.614   1.160  11.861 -0.5810 -0.7434 -1.2163
  198DOPC   C3524584   4.709   1.000  11.959 -0.3831  0.0604  0.5795
  198DOPC   H5X24585   4.787   0.921  11.947 -0.9614 -0.3988 -0.2964
  198DOPC   H5Y24586   4.611   0.949  11.969 -0.7276  0.6104  0.0276
  198DOPC   C3624587   4.741   1.061  12.090 -0.3991 -0.3238 -0.5931
  198DOPC   H6X24588   4.849   1.087  12.091 -1.0522  2.7726  0.6466
  198DOPC   H6Y24589   4.674   1.150  12.091 -1.2368 -0.8474  3.2760
  198DOPC   C3724590   4.699   0.980  12.210  0.0493  0.2484 -0.4969
  198DOPC   H7X24591   4.596   0.942  12.191 -0.1556  0.8824 -0.6962
  198DOPC   H7Y24592   4.756   0.886  12.222  0.3240  0.3992 -0.6241
  198DOPC   C3824593   4.678   1.070  12.336  0.3188  0.7551 -0.4058
  198DOPC   H8X24594   4.610   1.011  12.400 -3.0848  0.3862 -4.0005
  198DOPC   H8Y24595   4.609   1.150  12.302 -0.3503  0.3987  0.1033
  198DOPC   C3924596   4.812   1.116  12.385  0.0639 -0.1189  0.1670
  198DOPC   H9X24597   4.851   1.203  12.331  1.0015 -0.8574 -0.3675
  198DOPC  C31024598   4.876   1.075  12.494 -0.0696 -1.1333 -0.6950
  198DOPC  H10X24599   4.974   1.124  12.510 -1.0266  0.1269  1.6985
  198DOPC  C31124600   4.828   0.964  12.582  0.1113 -0.3394  0.8075
  198DOPC  H11X24601   4.919   0.923  12.630  0.2575 -1.3189 -0.2668
  198DOPC  H11Y24602   4.769   0.888  12.526 -0.0362  0.1447  0.3020
  198DOPC  C31224603   4.736   1.012  12.699 -0.1138  1.1678 -1.0470
  198DOPC  H12X24604   4.631   1.001  12.664 -0.1614 -1.1764 -0.3277
  198DOPC  H12Y24605   4.754   1.119  12.723  0.4643  0.2964  3.1414
  198DOPC  C31324606   4.763   0.934  12.835 -0.4065 -0.1662  0.2824
  198DOPC  H13X24607   4.744   0.825  12.832 -2.3545  0.1521 -0.4064
  198DOPC  H13Y24608   4.869   0.940  12.866 -0.3394  1.0495 -0.1064
  198DOPC  C31424609   4.671   0.988  12.952  0.3024  0.0359 -0.3075
  198DOPC  H14X24610   4.684   1.098  12.942  1.0485 -0.1290 -1.3560
  198DOPC  H14Y24611   4.569   0.963  12.914  0.1589 -1.3790  0.9736
  198DOPC  C31524612   4.702   0.937  13.087 -0.5656  0.4853 -0.4049
  198DOPC  H15X24613   4.729   0.829  13.077 -0.1313  0.5718 -0.1626
  198DOPC  H15Y24614   4.622   0.944  13.164  0.2538 -2.2756  0.8343
  198DOPC  C31624615   4.829   1.002  13.144 -0.3680 -0.3309  0.0103
  198DOPC  H16X24616   4.899   0.997  13.058 -1.4440 -0.4569 -0.8838
  198DOPC  H16Y24617   4.808   1.109  13.166  1.2909  0.0760 -0.2228
  198DOPC  C31724618   4.887   0.932  13.263 -0.3921 -0.2684  0.4481
  198DOPC  H17X24619   4.987   0.974  13.287  0.1033 -1.1259 -0.0548
  198DOPC  H17Y24620   4.820   0.938  13.351 -0.4960 -3.2183  0.6836
  198DOPC  C31824621   4.914   0.785  13.244  0.3949 -0.5745 -0.0335
  198DOPC  H18X24622   4.977   0.745  13.327 -0.0699 -0.9466  0.1493
  198DOPC  H18Y24623   4.818   0.730  13.259  0.8486 -1.2793  0.3452
  198DOPC  H18Z24624   4.949   0.758  13.142 -0.0577 -0.0015 -0.3511
  199DOPC     N24625   4.448   1.284  10.939 -0.6488 -0.3623  0.0719
  199DOPC   C1224626   4.594   1.341  10.941  0.0694 -0.4932 -0.5190
  199DOPC  H12A24627   4.609   1.425  10.875  2.5371 -0.0885  0.4573
  199DOPC  H12B24628   4.655   1.259  10.905  0.7679 -0.6304  0.9339
  199DOPC   C1324629   4.423   1.224  10.805 -0.1069  0.2983 -0.1032
  199DOPC  H13A24630   4.494   1.147  10.777 -0.2287  0.3934 -0.7010
  199DOPC  H13B24631   4.328   1.177  10.787 -0.5560  2.0663 -3.0823
  199DOPC  H13C24632   4.433   1.302  10.730  1.2525 -0.7551 -1.0775
  199DOPC   C1424633   4.350   1.388  10.962  0.7959  0.8968  0.2574
  199DOPC  H14A24634   4.374   1.479  10.908  0.2090  1.1574  0.4297
  199DOPC  H14B24635   4.252   1.355  10.931  0.7567 -0.7296  1.9619
  199DOPC  H14C24636   4.346   1.399  11.069 -2.0584  1.5485  0.1671
  199DOPC   C1524637   4.426   1.186  11.041 -0.0832  0.5408  0.2122
  199DOPC  H15A24638   4.494   1.103  11.029 -0.9902  0.0518 -2.0353
  199DOPC  H15B24639   4.325   1.151  11.032  1.0702 -3.1438 -0.1842
  199DOPC  H15C24640   4.451   1.226  11.138 -0.8962 -0.4273  0.8384
  199DOPC   C1124641   4.663   1.384  11.079  0.0807 -0.5936 -0.1567
  199DOPC  H11A24642   4.681   1.300  11.149 -1.2102 -1.2703 -0.5885
  199DOPC  H11B24643   4.758   1.435  11.055 -0.4021  0.2294 -0.3653
  199DOPC     P24644   4.569   1.623  11.123 -0.4673  0.1618  0.3608
  199DOPC   O1324645   4.433   1.664  11.104  0.3263  0.0567  0.0818
  199DOPC   O1424646   4.665   1.649  11.017 -0.1644 -0.0393  0.2125
  199DOPC   O1224647   4.577   1.467  11.153 -0.4508 -0.2428 -0.7179
  199DOPC   O1124648   4.627   1.680  11.254  0.2585 -0.0766  0.2668
  199DOPC    C124649   4.698   1.607  11.351 -0.0587 -0.3420 -0.1047
  199DOPC    HA24650   4.808   1.615  11.337  0.1034  0.1362  1.2246
  199DOPC    HB24651   4.679   1.498  11.355  3.9971 -1.1892  0.7929
  199DOPC    C224652   4.675   1.657  11.499  0.3130 -0.2195 -0.5549
  199DOPC    HS24653   4.712   1.581  11.571  0.9589  0.8876  0.3125
  199DOPC   O2124654   4.535   1.690  11.512 -0.1754 -0.3289 -0.1539
  199DOPC   C2124655   4.460   1.580  11.512 -0.1003 -1.3401 -0.3995
  199DOPC   O2224656   4.502   1.469  11.520  0.3479  0.3789 -0.0406
  199DOPC   C2224657   4.315   1.621  11.516 -0.2889 -0.0831  0.7240
  199DOPC   H2R24658   4.251   1.530  11.513 -0.3599 -0.1885  3.4520
  199DOPC   H2S24659   4.298   1.678  11.422 -1.1586 -0.9704  0.3259
  199DOPC    C324660   4.751   1.779  11.534 -0.2215  0.8396  0.5748
  199DOPC    HX24661   4.719   1.856  11.460  0.1165  0.3891 -0.0478
  199DOPC    HY24662   4.856   1.750  11.511 -1.1848 -0.5962 -2.7615
  199DOPC   O3124663   4.745   1.815  11.676 -0.1947 -0.2436 -0.6617
  199DOPC   C3124664   4.807   1.932  11.699 -0.2270  0.7428  0.3931
  199DOPC   O3224665   4.854   2.007  11.618 -0.1366 -0.0017  0.0955
  199DOPC   C3224666   4.783   1.962  11.847 -0.6718  0.0722  0.7148
  199DOPC   H2X24667   4.758   2.070  11.849  0.1912  0.2756  1.2470
  199DOPC   H2Y24668   4.708   1.895  11.894 -2.0256 -0.4037 -1.9453
  199DOPC   C2324669   4.265   1.694  11.642  0.3775 -0.8100 -0.6844
  199DOPC   H3R24670   4.165   1.731  11.611  0.9072  0.1870 -1.2200
  199DOPC   H3S24671   4.330   1.782  11.660 -2.0745  0.6229  2.2445
  199DOPC   C2424672   4.260   1.600  11.766 -0.4360 -0.1260  0.6949
  199DOPC   H4R24673   4.219   1.502  11.735 -1.0282  0.7946 -1.6567
  199DOPC   H4S24674   4.180   1.634  11.836 -0.0466 -2.1892  2.2516
  199DOPC   C2524675   4.398   1.590  11.827 -0.5031 -0.2547 -0.4832
  199DOPC   H5R24676   4.450   1.688  11.827 -1.1181  0.1568  2.6148
  199DOPC   H5S24677   4.460   1.524  11.762 -1.0498 -1.2753 -0.0025
  199DOPC   C2624678   4.406   1.537  11.979 -0.6913  0.3277  0.0461
  199DOPC   H6R24679   4.316   1.479  12.008 -1.2204  1.5538  0.9876
  199DOPC   H6S24680   4.404   1.623  12.050  4.1451  1.5323 -0.9286
  199DOPC   C2724681   4.536   1.457  12.004 -0.0489  0.8363 -0.0037
  199DOPC   H7R24682   4.618   1.521  11.965  1.7141 -0.5791  1.2186
  199DOPC   H7S24683   4.536   1.363  11.945 -0.8580  0.2214  0.9493
  199DOPC   C2824684   4.557   1.426  12.157 -0.3238 -0.1936  0.1487
  199DOPC   H8R24685   4.525   1.320  12.164 -0.2893 -0.2904 -1.0259
  199DOPC   H8S24686   4.495   1.484  12.229  1.6187  2.0737  0.1298
  199DOPC   C2924687   4.703   1.432  12.185  0.4118  0.2657 -0.2449
  199DOPC   H9R24688   4.764   1.346  12.152  1.4156  1.6635 -2.2090
  199DOPC  C21024689   4.764   1.532  12.245  0.4975  0.2733  0.4193
  199DOPC  H10R24690   4.868   1.513  12.277  1.1860 -0.2548 -1.9291
  199DOPC  C21124691   4.701   1.652  12.300  0.0641 -0.6899 -0.3650
  199DOPC  H11R24692   4.598   1.667  12.260  0.3736  1.8305 -0.3518
  199DOPC  H11S24693   4.754   1.743  12.266 -1.1927 -0.0681 -0.7297
  199DOPC  C21224694   4.692   1.655  12.451  0.5871 -0.0108  1.0491
  199DOPC  H12R24695   4.661   1.757  12.482  2.1190  1.1604 -1.0037
  199DOPC  H12S24696   4.790   1.644  12.502 -0.4068 -1.9478  2.7217
  199DOPC  C21324697   4.605   1.548  12.518 -0.9397 -0.2671  0.3283
  199DOPC  H13R24698   4.641   1.451  12.478 -2.6310 -0.2562 -1.4008
  199DOPC  H13S24699   4.498   1.548  12.485 -1.0800 -1.7916  0.7112
  199DOPC  C21424700   4.615   1.532  12.669  0.5907 -0.3273 -1.4578
  199DOPC  H14R24701   4.529   1.468  12.700  1.5184 -0.6317  0.6150
  199DOPC  H14S24702   4.600   1.633  12.712  1.7777 -0.7287 -0.0303
  199DOPC  C21524703   4.736   1.450  12.720  0.1453 -0.2490 -0.3631
  199DOPC  H15R24704   4.831   1.507  12.711 -0.7505  1.3255 -0.3091
  199DOPC  H15S24705   4.748   1.373  12.641 -0.6767 -1.2374  0.4501
  199DOPC  C21624706   4.727   1.392  12.859  0.4946 -0.2670 -0.4173
  199DOPC  H16R24707   4.793   1.303  12.868  0.4663 -0.1971  0.5830
  199DOPC  H16S24708   4.625   1.351  12.875 -0.3662  2.3462  1.6215
  199DOPC  C21724709   4.761   1.491  12.975  0.0345 -0.6234  0.1697
  199DOPC  H17R24710   4.715   1.592  12.971  1.1854 -0.0856  0.3323
  199DOPC  H17S24711   4.869   1.509  12.962 -0.0479 -0.2315  0.0275
  199DOPC  C21824712   4.729   1.436  13.112 -0.6515 -0.0018  0.1342
  199DOPC  H18R24713   4.619   1.422  13.126 -0.7248  1.6894  1.5867
  199DOPC  H18S24714   4.761   1.507  13.191 -1.7610  0.2081  0.4195
  199DOPC  H18T24715   4.768   1.334  13.130 -0.9973 -0.0524  0.6259
  199DOPC   C3324716   4.924   1.953  11.911 -0.1996 -0.6284  0.3391
  199DOPC   H3X24717   4.983   2.041  11.878 -1.6565  0.2681  0.0320
  199DOPC   H3Y24718   4.975   1.860  11.879  0.5991 -0.0556 -0.0955
  199DOPC   C3424719   4.918   1.946  12.065  0.1990 -0.5735  0.0467
  199DOPC   H4X24720   4.914   1.836  12.081  4.1472 -1.0326 -1.0321
  199DOPC   H4Y24721   4.819   1.988  12.093 -0.4163 -2.4303  0.7978
  199DOPC   C3524722   5.028   2.015  12.143 -0.3095 -0.2560  0.1953
  199DOPC   H5X24723   5.018   2.123  12.117  0.0820  0.2506  1.9870
  199DOPC   H5Y24724   5.122   1.971  12.103 -0.3284 -0.9569  0.9101
  199DOPC   C3624725   5.024   1.992  12.299 -0.1221 -0.5318 -0.0895
  199DOPC   H6X24726   4.939   2.043  12.348 -0.3615  1.4743 -2.4077
  199DOPC   H6Y24727   5.003   1.883  12.301 -0.3072 -0.4863  0.3925
  199DOPC   C3724728   5.148   2.026  12.386 -0.0288 -0.1140 -0.8769
  199DOPC   H7X24729   5.242   1.976  12.353 -0.4331 -2.1364  0.8153
  199DOPC   H7Y24730   5.146   2.134  12.360 -1.9533  0.2920  0.7109
  199DOPC   C3824731   5.126   2.012  12.541 -0.3978 -0.1447 -0.1910
  199DOPC   H8X24732   5.228   2.028  12.581 -0.6625 -0.1631  0.5132
  199DOPC   H8Y24733   5.119   1.904  12.564  1.1175  0.0094  1.1405
  199DOPC   C3924734   5.020   2.085  12.619  1.0233  0.6646  0.2803
  199DOPC   H9X24735   5.021   2.193  12.596 -1.2547  0.1200 -3.2423
  199DOPC  C31024736   4.908   2.041  12.684  0.5596  0.1181  0.4232
  199DOPC  H10X24737   4.837   2.115  12.725  0.4240  0.4851 -0.4412
  199DOPC  C31124738   4.863   1.901  12.719 -0.1339  0.3799 -0.5698
  199DOPC  H11X24739   4.917   1.840  12.643  0.3043  0.9995 -0.7586
  199DOPC  H11Y24740   4.758   1.874  12.697 -0.4796 -0.9129  2.1789
  199DOPC  C31224741   4.896   1.847  12.859  0.2862  0.9465 -0.3405
  199DOPC  H12X24742   5.006   1.829  12.870  0.3311  2.2752  2.1280
  199DOPC  H12Y24743   4.851   1.745  12.867  0.1534  1.1355  2.2572
  199DOPC  C31324744   4.845   1.933  12.971  0.4555  0.0967 -0.2666
  199DOPC  H13X24745   4.898   2.031  12.968  1.1082 -0.2289  0.2689
  199DOPC  H13Y24746   4.736   1.949  12.953  0.0221 -0.2490  1.8150
  199DOPC  C31424747   4.877   1.880  13.110  0.7078 -0.0179 -0.3766
  199DOPC  H14X24748   4.834   1.779  13.130 -1.2585  0.7277 -0.5974
  199DOPC  H14Y24749   4.988   1.875  13.117  0.6985  1.1690  1.0233
  199DOPC  C31524750   4.831   1.972  13.225 -0.4100  0.2412  0.5126
  199DOPC  H15X24751   4.723   1.982  13.199 -0.4169 -0.9443  0.0125
  199DOPC  H15Y24752   4.875   2.073  13.214  0.9612 -0.0592  2.7083
  199DOPC  C31624753   4.865   1.935  13.369 -0.2035 -0.0159  0.2738
  199DOPC  H16X24754   4.975   1.922  13.366 -0.2110 -0.0373  0.1088
  199DOPC  H16Y24755   4.849   2.030  13.424 -1.5197  0.8822 -1.5395
  199DOPC  C31724756   4.788   1.813  13.425  0.3659 -0.3106  0.1717
  199DOPC  H17X24757   4.789   1.735  13.346  2.2002 -0.1796  0.0216
  199DOPC  H17Y24758   4.839   1.774  13.516  1.5678  2.9465  1.0258
  199DOPC  C31824759   4.635   1.842  13.445 -0.5982 -0.2181 -0.2896
  199DOPC  H18X24760   4.614   1.912  13.528 -4.0914 -0.9721 -0.4213
  199DOPC  H18Y24761   4.596   1.890  13.352  1.5160  0.8440 -0.7097
  199DOPC  H18Z24762   4.574   1.752  13.466  0.0177 -0.5770 -0.0118
  200DOPC     N24763   6.111   2.395  11.159 -0.6698  0.2313 -0.0737
  200DOPC   C1224764   6.226   2.493  11.167 -0.3281  0.1955 -0.4043
  200DOPC  H12A24765   6.290   2.490  11.081 -1.5880 -1.3296 -1.3425
  200DOPC  H12B24766   6.286   2.477  11.256  0.8568  1.4880 -0.9374
  200DOPC   C1324767   6.159   2.256  11.173  0.6399 -0.3141  0.2605
  200DOPC  H13A24768   6.217   2.234  11.262 -0.4232 -2.0175  0.5801
  200DOPC  H13B24769   6.070   2.196  11.174 -1.3272  2.3144 -2.0605
  200DOPC  H13C24770   6.209   2.232  11.081  0.0808 -0.9373  0.1159
  200DOPC   C1424771   6.045   2.411  11.029  0.4159  0.4569  1.5042
  200DOPC  H14A24772   5.951   2.358  11.025  0.3932  0.5681 -0.6291
  200DOPC  H14B24773   6.030   2.513  10.996  0.5024  0.8133  2.5140
  200DOPC  H14C24774   6.109   2.369  10.954  1.8472  1.1166  2.3202
  200DOPC   C1524775   6.015   2.423  11.269  0.1643 -0.4839 -0.3937
  200DOPC  H15A24776   6.053   2.384  11.362  4.2049 -1.0632 -2.0822
  200DOPC  H15B24777   5.916   2.383  11.249 -0.4311 -0.6346  2.4041
  200DOPC  H15C24778   5.993   2.528  11.269  1.3783 -0.2173  0.4345
  200DOPC   C1124779   6.197   2.643  11.188  0.6415  0.7349  0.5990
  200DOPC  H11A24780   6.132   2.677  11.106 -0.0685  0.0837  0.8778
  200DOPC  H11B24781   6.132   2.658  11.277  0.9679 -0.6843  1.1195
  200DOPC     P24782   6.395   2.762  11.326 -0.3048 -0.1306  0.1230
  200DOPC   O1324783   6.497   2.869  11.282 -0.0955 -0.4002 -0.2235
  200DOPC   O1424784   6.458   2.635  11.369  0.0841 -0.4509 -0.7607
  200DOPC   O1224785   6.309   2.727  11.197 -0.4505  0.0024  0.0689
  200DOPC   O1124786   6.301   2.821  11.440  0.1810 -0.1581  0.4308
  200DOPC    C124787   6.268   2.736  11.549  0.1253  0.0996 -0.3868
  200DOPC    HA24788   6.244   2.631  11.519  0.7281 -0.5724  1.3517
  200DOPC    HB24789   6.178   2.781  11.598  0.7733  1.6497 -0.5822
  200DOPC    C224790   6.377   2.739  11.662 -0.6039 -0.3598  0.6036
  200DOPC    HS24791   6.476   2.699  11.632 -0.5285 -0.3853  0.8845
  200DOPC   O2124792   6.321   2.664  11.774 -0.4157 -0.4993 -0.0483
  200DOPC   C2124793   6.416   2.623  11.855  0.1293 -0.7023 -0.5913
  200DOPC   O2224794   6.533   2.625  11.834 -0.0502  0.2440  0.1893
  200DOPC   C2224795   6.343   2.544  11.965 -1.1147  0.3679 -0.7779
  200DOPC   H2R24796   6.400   2.449  11.967  0.8705  1.4510  2.3695
  200DOPC   H2S24797   6.237   2.543  11.934 -0.6914 -1.6275 -2.3633
  200DOPC    C324798   6.388   2.887  11.706 -0.0005 -0.3735  0.4099
  200DOPC    HX24799   6.288   2.903  11.750  0.2894 -0.1545  0.9981
  200DOPC    HY24800   6.397   2.951  11.616 -0.5444  0.1310  0.7092
  200DOPC   O3124801   6.499   2.923  11.801  1.0164  0.4642  0.4688
  200DOPC   C3124802   6.617   2.927  11.746  0.2577 -0.5178 -0.8886
  200DOPC   O3224803   6.639   2.922  11.625  0.0340  0.5401  0.0002
  200DOPC   C3224804   6.732   2.916  11.855  0.4224 -0.7316  0.1796
  200DOPC   H2X24805   6.735   2.813  11.896  2.3313 -0.0222  1.9859
  200DOPC   H2Y24806   6.821   2.955  11.801 -0.1416  1.5669  0.7795
  200DOPC   C2324807   6.371   2.601  12.106 -0.1022  0.7834  0.3867
  200DOPC   H3R24808   6.480   2.607  12.125 -0.1700 -0.3834  1.2664
  200DOPC   H3S24809   6.324   2.534  12.181 -3.5424  1.1771 -1.1894
  200DOPC   C2424810   6.311   2.736  12.130 -0.5272 -0.7963  0.8430
  200DOPC   H4R24811   6.206   2.743  12.093 -0.0918  2.5150 -0.1090
  200DOPC   H4S24812   6.369   2.799  12.059  1.2501 -1.5866  1.5516
  200DOPC   C2524813   6.324   2.781  12.273  0.4291 -0.5422 -0.0114
  200DOPC   H5R24814   6.262   2.706  12.328  0.8879  0.0811  1.4025
  200DOPC   H5S24815   6.276   2.877  12.299 -1.1469 -1.0607 -0.9027
  200DOPC   C2624816   6.467   2.782  12.325  0.6686 -0.7029  0.5317
  200DOPC   H6R24817   6.538   2.819  12.248  0.8447 -2.3216 -0.1103
  200DOPC   H6S24818   6.502   2.680  12.352 -0.5185 -0.5414  2.9528
  200DOPC   C2724819   6.479   2.877  12.453 -0.3730 -0.1572 -0.0390
  200DOPC   H7R24820   6.433   2.971  12.417 -2.0490 -0.3493  1.4637
  200DOPC   H7S24821   6.582   2.907  12.482 -0.3373 -0.1744 -0.1451
  200DOPC   C2824822   6.399   2.839  12.582 -0.0754 -0.3198 -0.5835
  200DOPC   H8R24823   6.291   2.824  12.558 -0.5135  0.6454  0.6773
  200DOPC   H8S24824   6.391   2.934  12.639 -2.4879 -0.2068 -1.0015
  200DOPC   C2924825   6.460   2.716  12.655  0.1872 -0.3233  0.2702
  200DOPC   H9R24826   6.441   2.618  12.608 -2.1954  0.9742 -1.7014
  200DOPC  C21024827   6.543   2.722  12.758 -0.1668  0.0252  0.3730
  200DOPC  H10R24828   6.574   2.627  12.803 -1.1137  0.2513  1.5610
  200DOPC  C21124829   6.590   2.848  12.832  0.5627  0.3689  0.8425
  200DOPC  H11R24830   6.498   2.905  12.855 -0.7722 -1.3816  0.0888
  200DOPC  H11S24831   6.648   2.907  12.757 -0.1615 -0.7279 -0.6376
  200DOPC  C21224832   6.662   2.826  12.963 -0.1221  0.3941  0.0337
  200DOPC  H12R24833   6.693   2.926  12.998  1.3281  0.4915 -1.4058
  200DOPC  H12S24834   6.749   2.764  12.933 -1.2615  0.0771 -2.9549
  200DOPC  C21324835   6.572   2.763  13.074  0.3973  0.0281  0.6004
  200DOPC  H13R24836   6.583   2.654  13.053 -2.0548 -0.0764 -0.4672
  200DOPC  H13S24837   6.466   2.794  13.063  0.6447  0.4862 -0.7323
  200DOPC  C21424838   6.619   2.794  13.216 -0.1712  0.4947  0.3263
  200DOPC  H14R24839   6.722   2.756  13.228 -0.0594  1.0970  1.3529
  200DOPC  H14S24840   6.555   2.740  13.289  0.2967  0.7085  0.8979
  200DOPC  C21524841   6.609   2.942  13.251  0.4426  0.1409 -0.2411
  200DOPC  H15R24842   6.502   2.974  13.246 -1.0666 -3.7378  2.2828
  200DOPC  H15S24843   6.671   3.005  13.185 -0.3574 -0.4571 -1.6125
  200DOPC  C21624844   6.664   2.960  13.396  0.4344 -0.2794  0.1060
  200DOPC  H16R24845   6.649   2.866  13.453 -1.1674 -0.7291 -1.0009
  200DOPC  H16S24846   6.593   3.033  13.442 -0.6572 -1.9621  1.1835
  200DOPC  C21724847   6.810   2.999  13.401  0.2965 -0.1559 -0.4241
  200DOPC  H17R24848   6.802   3.096  13.347  0.8534 -0.3954 -0.9545
  200DOPC  H17S24849   6.875   2.935  13.338 -0.4707 -0.7693 -0.6143
  200DOPC  C21824850   6.866   3.015  13.542  0.3443  0.2578 -0.3697
  200DOPC  H18R24851   6.787   3.066  13.601  0.3932 -0.2750  0.1707
  200DOPC  H18S24852   6.958   3.077  13.545  0.0595  0.7057 -0.7046
  200DOPC  H18T24853   6.881   2.914  13.585  0.7522 -0.0085 -1.1181
  200DOPC   C3324854   6.705   3.006  11.982 -0.3228  0.1064  0.4708
  200DOPC   H3X24855   6.600   2.997  12.015  0.5923 -0.1757  3.5496
  200DOPC   H3Y24856   6.708   3.114  11.956  2.3952 -0.2778 -1.3251
  200DOPC   C3424857   6.802   2.965  12.094 -1.0832  0.3696 -0.6751
  200DOPC   H4X24858   6.904   2.989  12.057  0.3190  1.2496  3.2316
  200DOPC   H4Y24859   6.797   2.855  12.111  0.0213  0.5088  0.8042
  200DOPC   C3524860   6.785   3.049  12.222  0.6021  0.0029 -0.3044
  200DOPC   H5X24861   6.679   3.038  12.254 -0.2794  2.2716 -2.2177
  200DOPC   H5Y24862   6.806   3.157  12.208  1.8812 -0.1508  0.2336
  200DOPC   C3624863   6.871   2.983  12.335  0.3180  0.1038 -0.4801
  200DOPC   H6X24864   6.844   2.876  12.351 -1.8067  0.7885  1.1388
  200DOPC   H6Y24865   6.976   2.991  12.302 -0.0840  1.5530 -1.4918
  200DOPC   C3724866   6.847   3.034  12.478  0.1586  0.7221  0.0777
  200DOPC   H7X24867   6.894   3.135  12.484  1.0314  0.2359  2.7135
  200DOPC   H7Y24868   6.738   3.050  12.494 -0.2527 -1.1175 -0.6885
  200DOPC   C3824869   6.891   2.927  12.578  0.2509 -0.2509  0.0843
  200DOPC   H8X24870   6.999   2.903  12.565  0.1217 -1.9177  1.6871
  200DOPC   H8Y24871   6.835   2.832  12.564  2.0326 -0.9151 -3.7062
  200DOPC   C3924872   6.886   2.996  12.713  0.0984 -0.2950  0.7910
  200DOPC   H9X24873   6.830   3.091  12.714 -0.5260 -0.6444  0.2664
  200DOPC  C31024874   6.978   2.974  12.810  0.4132 -0.3255 -0.5841
  200DOPC  H10X24875   6.961   3.024  12.907  1.5082  0.1974 -0.6387
  200DOPC  C31124876   7.076   2.861  12.814 -0.0123  0.3702 -0.3252
  200DOPC  H11X24877   7.169   2.910  12.777 -0.0454  0.6963  0.0174
  200DOPC  H11Y24878   7.049   2.787  12.735 -0.2128  0.3417 -0.2297
  200DOPC  C31224879   7.075   2.794  12.949  0.3525  0.5154 -0.0892
  200DOPC  H12X24880   7.116   2.691  12.941  0.6960  0.6859 -0.5539
  200DOPC  H12Y24881   6.969   2.788  12.983 -0.3591 -1.8818 -2.4132
  200DOPC  C31324882   7.138   2.876  13.065  0.4387 -0.9745  0.3015
  200DOPC  H13X24883   7.246   2.895  13.050  0.6675 -2.3406  0.0720
  200DOPC  H13Y24884   7.078   2.970  13.072 -0.6915 -1.2824 -3.1299
  200DOPC  C31424885   7.119   2.790  13.186 -0.3297 -0.4919  0.0759
  200DOPC  H14X24886   7.018   2.749  13.203  0.4199 -2.2891  0.4693
  200DOPC  H14Y24887   7.184   2.702  13.170 -0.7687 -0.6610 -0.8253
  200DOPC  C31524888   7.170   2.858  13.317  0.3712 -0.4092 -0.1350
  200DOPC  H15X24889   7.148   2.792  13.404  1.9739  2.2179  2.4753
  200DOPC  H15Y24890   7.111   2.949  13.339  2.2968  0.8927 -0.0944
  200DOPC  C31624891   7.322   2.891  13.316 -0.6994 -0.5371 -0.4061
  200DOPC  H16X24892   7.378   2.796  13.324  0.6489  0.2772  0.2837
  200DOPC  H16Y24893   7.362   2.944  13.227  1.5170  1.4049  1.6150
  200DOPC  C31724894   7.361   2.975  13.440 -0.3996 -0.3008 -0.5262
  200DOPC  H17X24895   7.365   3.083  13.417 -1.6457  0.1397  1.1136
  200DOPC  H17Y24896   7.274   2.958  13.508 -1.6988  0.7732 -1.8451
  200DOPC  C31824897   7.484   2.921  13.514 -0.0053 -0.5125 -0.2762
  200DOPC  H18X24898   7.489   2.810  13.504  2.0516 -0.4198 -0.6418
  200DOPC  H18Y24899   7.581   2.961  13.478  0.0361 -0.5309 -0.1848
  200DOPC  H18Z24900   7.488   2.942  13.623 -0.6383  0.8973 -0.5038
  201SOD    SOD24901   2.085   1.587  16.944 -0.7732 -0.1196  0.2563
  202SOD    SOD24902   6.675   2.322  11.430  0.3325 -0.0750  0.3744
  203SOD    SOD24903   3.584   1.599  17.812  0.2967  0.0854 -0.2117
  204SOD    SOD24904   2.080   4.662  10.154  0.3835  0.0602  0.1310
  205SOD    SOD24905   4.753   3.411  17.705 -0.0168  0.2159 -0.7748
  206SOD    SOD24906   6.291   6.511   9.802 -0.4883  0.2813 -0.1719
  207SOD    SOD24907   0.902   5.422  10.274 -0.4180  0.2442  0.1833
  208SOD    SOD24908   2.779   0.774  16.386 -0.3156 -0.0294  0.2792
  209SOD    SOD24909   3.251   3.596   9.886 -0.1353 -0.1550  0.1067
  210SOD    SOD24910   1.519   6.522  18.161  0.0916  0.1130 -0.3800
  211SOD    SOD24911   3.617   6.007  17.331  0.4658 -0.1864  0.3715
  212SOD    SOD24912   3.510   1.755  16.315  0.1700  0.4741  0.2069
  213SOD    SOD24913   4.997   6.631  10.755  0.1384  0.3196  0.2004
  214SOD    SOD24914   6.427   3.244  18.894  0.8895  0.0730  0.6305
  215SOD    SOD24915   4.289   4.482  17.824 -0.0226 -0.7618 -0.5580
  216SOD    SOD24916   2.073   5.509  18.834 -0.0901  0.5529 -0.1967
  217SOD    SOD24917   1.735   4.037  10.296  0.0722 -0.5583 -0.2974
  218SOD    SOD24918   4.015   6.283  16.866  0.1797  0.4002  0.0151
  219SOD    SOD24919   2.662   0.987  17.946 -0.0575 -0.2453  0.3779
  220SOD    SOD24920   0.990   1.769   9.532 -0.2419 -0.1068 -0.2299
  221SOD    SOD24921   0.336   3.330   9.307  0.1496 -0.0711  0.1775
  222SOD    SOD24922   5.120   3.160  16.187  0.2816  0.2797 -0.1048
  223SOD    SOD24923   1.164   3.620   8.188 -0.1379 -0.1010  0.1084
  224SOD    SOD24924   6.459   3.338  11.453  0.2536 -0.3139 -0.4516
  225SOD    SOD24925   4.581   1.663   9.303  0.1220 -0.3608  0.0083
  226SOD    SOD24926   6.203   5.883  15.412 -0.0942  0.1668  0.0996
  227CLA    CLA24927   0.931   3.743   9.838 -0.2222 -0.1539 -0.3274
  228CLA    CLA24928   0.313   3.766  10.805 -0.1444 -0.3208  0.0769
  229CLA    CLA24929   2.435   4.225  10.166  0.1226  0.1270 -0.4055
  230CLA    CLA24930   0.526   3.855  18.524  0.1581 -0.1334 -0.5167
  231CLA    CLA24931   5.407   6.105  16.769 -0.2693  0.1344  0.3711
  232CLA    CLA24932   2.746   0.068  18.285  0.1685 -0.0545  0.0523
  233CLA    CLA24933   2.350   6.197  16.804  0.1500  0.3959 -0.1428
  234CLA    CLA24934   3.281   1.015  17.422 -0.1408 -0.0393 -0.0438
  235CLA    CLA24935   0.894   2.824   8.297  0.1810  0.0498  0.2552
  236CLA    CLA24936   2.315   1.116  17.077 -0.0214  0.1240  0.2800
  237CLA    CLA24937   4.885   2.469  17.985  0.0119 -0.3707 -0.1138
  238CLA    CLA24938   3.978   4.145  10.128 -0.2793  0.0400  0.0918
  239CLA    CLA24939   4.074   4.466   9.132  0.1211  0.0739  0.1995
  240CLA    CLA24940   3.999   5.159  18.287  0.0015  0.0728  0.2523
  241CLA    CLA24941   5.911   1.965  10.013 -0.1865  0.3426  0.0979
  242CLA    CLA24942   6.479   2.838  19.083 -0.0020 -0.3502  0.0600
  243CLA    CLA24943   4.237   1.249   9.964  0.4467  0.0705 -0.0809
  244CLA    CLA24944   6.434   4.722   9.049  0.0697 -0.0270 -0.0071
  245CLA    CLA24945   1.031   0.851   9.543  0.1718  0.4198 -0.3387
  246CLA    CLA24946   1.159   6.346  18.154 -0.4659 -0.0105  0.3081
  247CLA    CLA24947   1.068   3.611   9.073  0.0780  0.2291  0.2563
  248CLA    CLA24948   5.552   1.682   9.507 -0.3296  0.3620 -0.1725
  249CLA    CLA24949   6.567   0.751   9.690 -0.2828  0.2391  0.1947
  250CLA    CLA24950   1.169   2.169  17.232  0.3190  0.0041 -0.2054
  251CLA    CLA24951   1.512   3.443  18.452  0.0587  0.4124 -0.0125
  252CLA    CLA24952   4.680   5.330   9.788  0.1876  0.0304  0.0462
  253TIP3   OH224953   0.384   0.428  16.411 -0.1837 -0.4666  0.0985
  253TIP3    H124954   0.377   0.372  16.334 -0.4521  0.6912 -0.7546
  253TIP3    H224955   0.413   0.513  16.377  0.1608 -0.0615  1.3380
  254TIP3   OH224956   1.023   2.697  16.926 -0.1702  0.2376 -0.0009
  254TIP3    H124957   0.975   2.700  17.010  2.6639 -0.7896  1.8182
  254TIP3    H224958   0.994   2.774  16.879 -2.0849  0.7357  1.8177
  255TIP3   OH224959   2.285   4.777  18.591  0.1658 -0.0071  0.3039
  255TIP3    H124960   2.359   4.769  18.531  0.6937  0.2402  0.9067
  255TIP3    H224961   2.228   4.843  18.551  0.9371  0.7897  0.4852
  256TIP3   OH224962   2.716   4.396  18.721  0.2499 -0.1101 -0.7313
  256TIP3    H124963   2.789   4.356  18.674  0.9377 -0.2354  0.3976
  256TIP3    H224964   2.756   4.465  18.774 -0.4971  0.0324 -0.3288
  257TIP3   OH224965   5.613   1.746  16.758  0.4349 -0.0586  0.3880
  257TIP3    H124966   5.686   1.786  16.805 -0.2354 -1.0296  2.3602
  257TIP3    H224967   5.618   1.783  16.670  1.9278  1.6186  1.1190
  258TIP3   OH224968   1.073   1.603  18.106 -0.2923  0.1399  0.1872
  258TIP3    H124969   1.129   1.615  18.183  2.8536 -3.2970 -1.2559
  258TIP3    H224970   1.103   1.669  18.044 -1.2116  1.3515  0.9625
  259TIP3   OH224971   1.470   4.900  16.258 -0.1835  0.0257 -0.0815
  259TIP3    H124972   1.424   4.868  16.336  1.2735 -2.2204 -0.0521
  259TIP3    H224973   1.401   4.938  16.204 -1.1862  2.1430  2.4626
  260TIP3   OH224974   4.552   1.461  16.437 -0.6527  0.8155 -0.1802
  260TIP3    H124975   4.587   1.385  16.391  0.0757  0.0542  1.5573
  260TIP3    H224976   4.599   1.462  16.520 -2.4937  1.6721  0.9018
  261TIP3   OH224977   1.768   1.918  16.166  0.2981  0.0100  0.0449
  261TIP3    H124978   1.784   1.885  16.255 -3.0214 -0.1841  0.6980
  261TIP3    H224979   1.743   2.009  16.179  2.1232  0.7130 -1.0131
  262TIP3   OH224980   1.745   1.673  19.122  0.3095 -0.1443 -0.2824
  262TIP3    H124981   1.764   1.582  19.099  4.1657  0.5524 -0.5020
  262TIP3    H224982   1.725   1.715  19.038 -2.1563 -0.7760 -0.1120
  263TIP3   OH224983   0.859   2.129  18.855 -0.5772  0.7739 -0.1543
  263TIP3    H124984   0.851   2.150  18.948  1.5479  2.3486 -0.2251
  263TIP3    H224985   0.892   2.210  18.815  2.5444 -0.9597 -1.5305
  264TIP3   OH224986   1.773   3.974  18.594 -0.3712 -0.2480 -0.8144
  264TIP3    H124987   1.686   4.005  18.620 -1.8293 -3.5574 -1.3338
  264TIP3    H224988   1.792   4.023  18.514 -0.8518  1.8912  0.3061
  265TIP3   OH224989   0.693   1.264  18.309  0.0490 -0.0558 -0.5144
  265TIP3    H124990   0.764   1.328  18.316  1.0644 -1.1642 -0.3854
  265TIP3    H224991   0.624   1.299  18.366  0.0620  1.5490 -1.4203
  266TIP3   OH224992   4.104   2.085  17.334  0.1147  0.3947 -0.6401
  266TIP3    H124993   4.164   2.125  17.271 -0.6344  1.7366 -0.5339
  266TIP3    H224994   4.017   2.097  17.296 -0.1161 -2.0920 -1.1012
  267TIP3   OH224995   6.635   0.896  16.659 -0.1554 -0.4046 -0.2443
  267TIP3    H124996   6.552   0.851  16.672  0.2090 -1.1870 -0.5298
  267TIP3    H224997   6.689   0.870  16.734  0.0097 -0.3306 -0.3354
  268TIP3   OH224998   1.700   1.606  19.389 -0.1429  0.5724  0.0599
  268TIP3    H124999   1.608   1.601  19.413 -0.3641  1.1153 -0.6603
  268TIP3    H225000   1.701   1.644  19.302  0.6729 -0.9758 -0.6508
  269TIP3   OH225001   3.275   0.709  17.321 -0.6124  0.5167 -0.2251
  269TIP3    H125002   3.280   0.800  17.348  0.3424 -0.1773  2.2401
  269TIP3    H225003   3.264   0.712  17.226  0.6890  3.1726 -0.3760
  270TIP3   OH225004   2.158   0.278  16.861 -0.3248  0.5553  0.1039
  270TIP3    H125005   2.085   0.248  16.807  0.9288  0.9149 -1.8991
  270TIP3    H225006   2.162   0.215  16.934 -2.3634  0.3260  0.0591
  271TIP3   OH225007   0.530   1.464  17.989 -0.0340 -0.1843  0.2192
  271TIP3    H125008   0.523   1.510  18.072 -2.6077  5.4164 -2.5933
  271TIP3    H225009   0.617   1.487  17.956  0.1336 -0.5509  0.4003
  272TIP3   OH225010   5.630   4.553  17.237 -0.2515  0.0686 -0.0569
  272TIP3    H125011   5.704   4.587  17.186 -0.7592  0.6763 -0.3926
  272TIP3    H225012   5.552   4.590  17.195 -0.6761  0.6968  1.2237
  273TIP3   OH225013   4.898   4.027  17.122  0.1457 -0.0371  0.0321
  273TIP3    H125014   4.854   3.967  17.182 -1.1095  0.8208  0.0309
  273TIP3    H225015   4.854   4.013  17.038  1.0214 -0.3277 -0.3863
  274TIP3   OH225016   2.158   4.980  18.439 -0.3092  0.1356  0.1777
  274TIP3    H125017   2.223   4.966  18.370 -0.5558 -0.4324  0.0574
  274TIP3    H225018   2.183   5.064  18.478  1.9974 -1.1630  1.7505
  275TIP3   OH225019   4.362   6.021  16.446  0.5932 -0.2089  0.5059
  275TIP3    H125020   4.324   6.105  16.473  0.1817 -0.1447 -0.2359
  275TIP3    H225021   4.324   6.005  16.360  0.5563 -1.2335  0.7017
  276TIP3   OH225022   1.733   0.958  19.431 -0.4320  0.0108  0.4593
  276TIP3    H125023   1.688   0.889  19.479 -0.1738 -0.6071 -0.1809
  276TIP3    H225024   1.754   1.023  19.498 -2.5337  0.4921  0.7464
  277TIP3   OH225025   5.279   6.687  16.358  0.1529 -0.4583 -0.2800
  277TIP3    H125026   5.343   6.707  16.426 -0.3636 -0.4995  0.2239
  277TIP3    H225027   5.205   6.649  16.405 -0.8058  0.8417 -0.6988
  278TIP3   OH225028   0.873   2.613  19.255  0.3468 -0.5310 -0.1786
  278TIP3    H125029   0.798   2.581  19.205  0.7736  2.2010 -2.8614
  278TIP3    H225030   0.843   2.696  19.294  0.9100 -1.2203  1.8777
  279TIP3   OH225031   3.664   1.834  18.791  0.2440  0.2076 -0.1247
  279TIP3    H125032   3.578   1.797  18.773 -0.7302  0.5928  3.0238
  279TIP3    H225033   3.725   1.778  18.743 -1.4707 -2.8720  1.0077
  280TIP3   OH225034   6.054   5.055  17.705  0.2492 -0.0701 -0.3433
  280TIP3    H125035   6.009   5.073  17.623 -2.9699 -2.2769  0.7215
  280TIP3    H225036   5.988   5.011  17.759  2.3482  0.8105  3.2658
  281TIP3   OH225037   3.585   3.617  16.705  0.4443 -0.0376  0.3781
  281TIP3    H125038   3.591   3.670  16.626  0.0532  1.4971  1.3284
  281TIP3    H225039   3.675   3.604  16.733  0.6215 -1.1161 -0.6290
  282TIP3   OH225040   1.724   5.180  17.297  0.3104  0.0535 -0.1165
  282TIP3    H125041   1.793   5.119  17.270  0.0143 -0.9015  1.2135
  282TIP3    H225042   1.766   5.237  17.362  0.1531  0.2197 -0.1597
  283TIP3   OH225043   5.521   4.930  18.077 -0.8571  0.2710 -0.2159
  283TIP3    H125044   5.469   4.852  18.058 -1.9927  0.5775  1.3881
  283TIP3    H225045   5.459   4.989  18.121  0.8988  0.5117  2.1324
  284TIP3   OH225046   4.096   2.414   8.350  0.0390  0.3562  0.2312
  284TIP3    H125047   4.152   2.352   8.397  0.1255  1.2089  1.3044
  284TIP3    H225048   4.007   2.386   8.371  0.0786  0.3240  0.3605
  285TIP3   OH225049   3.587   1.450   9.388  0.4180  0.0198  0.1591
  285TIP3    H125050   3.507   1.410   9.421  0.0567  1.1241  0.6709
  285TIP3    H225051   3.573   1.544   9.398  1.8589  0.2266  0.4618
  286TIP3   OH225052   3.213   3.615   9.666  0.5753 -0.2252  0.3802
  286TIP3    H125053   3.225   3.707   9.640  2.2685 -0.2071  1.1321
  286TIP3    H225054   3.157   3.578   9.597  0.3201  1.2266 -0.2251
  287TIP3   OH225055   0.929   4.571   8.521  0.2108 -0.1398  0.0077
  287TIP3    H125056   0.882   4.508   8.576  1.3883 -0.9328  0.1495
  287TIP3    H225057   1.021   4.562   8.548  0.4113  1.7134  0.0977
  288TIP3   OH225058   1.321   1.094  11.296 -0.0684 -0.0135  0.3302
  288TIP3    H125059   1.407   1.134  11.295 -0.0697  0.0884 -1.8006
  288TIP3    H225060   1.328   1.021  11.357  1.5430 -0.0424  0.1389
  289TIP3   OH225061   6.197   3.896  10.084  0.1614  0.1869  0.1573
  289TIP3    H125062   6.226   3.833  10.018  0.5785 -0.5683  1.0352
  289TIP3    H225063   6.248   3.874  10.162 -0.8406  0.5819  0.9468
  290TIP3   OH225064   5.590   5.689  10.715 -0.5786  0.0183  0.0591
  290TIP3    H125065   5.679   5.672  10.746 -0.3722  1.1772  0.1228
  290TIP3    H225066   5.559   5.604  10.682 -0.7700 -1.2760  3.2881
  291TIP3   OH225067   3.297   1.147   9.280 -0.3370  0.3745 -0.0283
  291TIP3    H125068   3.250   1.065   9.265 -0.1942  0.2716  0.0914
  291TIP3    H225069   3.282   1.167   9.372  0.8524 -0.2875  0.3286
  292TIP3   OH225070   2.759   6.037   9.334  0.2122 -0.2021  0.4741
  292TIP3    H125071   2.793   5.948   9.322  1.0563 -0.0421  1.5675
  292TIP3    H225072   2.836   6.093   9.333 -0.2669  0.4656  0.3726
  293TIP3   OH225073   3.075   0.315  11.151  0.7832  0.0271  0.5475
  293TIP3    H125074   3.070   0.311  11.246 -0.5040 -0.9432  0.4570
  293TIP3    H225075   3.048   0.404  11.129 -0.9129 -0.3319  1.0151
  294TIP3   OH225076   5.548   0.570   9.027  0.3290 -0.2824 -0.4388
  294TIP3    H125077   5.537   0.633   8.955  0.2180 -0.8444 -0.9195
  294TIP3    H225078   5.609   0.505   8.992 -0.3194 -0.9753 -0.3043
  295TIP3   OH225079   0.286   4.819   8.492  0.0216 -0.1126  0.2392
  295TIP3    H125080   0.355   4.766   8.453  0.5915  0.2671  0.6922
  295TIP3    H225081   0.226   4.756   8.532 -1.1774 -0.5682 -2.1395
  296TIP3   OH225082   1.709   3.379   7.832  0.1012  0.3024  0.2167
  296TIP3    H125083   1.662   3.454   7.795  0.4731 -0.0177 -0.9436
  296TIP3    H225084   1.717   3.318   7.759  0.6191 -0.4708  0.9135
  297TIP3   OH225085   3.345   6.569   9.203 -0.1365  0.0483  0.0885
  297TIP3    H125086   3.403   6.626   9.254  0.1662  0.6195 -0.8795
  297TIP3    H225087   3.325   6.619   9.124  0.4905 -1.3622 -1.0019
  298TIP3   OH225088   5.702   1.154  11.214  0.1602 -0.3906 -1.2235
  298TIP3    H125089   5.657   1.197  11.287  0.8665  2.2495 -2.2498
  298TIP3    H225090   5.634   1.142  11.148  0.3693  1.1188 -1.7360
  299TIP3   OH225091   1.598   1.803  10.973  0.4833  0.5216 -0.7821
  299TIP3    H125092   1.663   1.869  10.999  0.8750  0.4545 -1.5589
  299TIP3    H225093   1.625   1.776  10.885  0.5397 -0.9493 -0.3397
  300TIP3   OH225094   6.222   2.221   9.430  0.3093  0.2917  0.5298
  300TIP3    H125095   6.292   2.282   9.405  0.4053  0.4987  1.2740
  300TIP3    H225096   6.259   2.170   9.502  0.5079 -1.2116 -0.6070
  301TIP3   OH225097   6.668   1.406  11.534 -0.1392 -0.1401 -0.5716
  301TIP3    H125098   6.740   1.393  11.472 -0.4119 -2.1570 -0.5379
  301TIP3    H225099   6.593   1.427  11.480  0.2387  0.9655 -0.6844
  302TIP3   OH225100   4.578   3.186  11.400  0.6353 -0.3161 -0.4219
  302TIP3    H125101   4.616   3.205  11.314 -0.6736 -0.3611 -1.0218
  302TIP3    H225102   4.590   3.092  11.412 -1.4076 -0.7948 -1.7004
  303TIP3   OH225103   0.877   5.457  10.499  0.2453 -1.0980 -0.4025
  303TIP3    H125104   0.810   5.503  10.550 -0.9640 -1.2720 -1.7585
  303TIP3    H225105   0.945   5.436  10.562  1.2160  3.0951  0.2593
  304TIP3   OH225106   6.393   0.999  10.067 -0.1891  0.1436 -0.1237
  304TIP3    H125107   6.360   0.949  10.142 -0.6488 -0.2625 -0.5916
  304TIP3    H225108   6.314   1.039  10.029  0.1393  1.0224  0.0957
  305TIP3   OH225109   0.136   0.366   8.028 -0.1042 -0.1727 -0.4240
  305TIP3    H125110   0.129   0.448   8.077 -1.0330 -0.7613  0.4622
  305TIP3    H225111   0.068   0.309   8.066 -1.2398 -0.4774 -2.7314
  306TIP3   OH225112   4.921   6.089   8.353  0.8158 -0.0170 -0.5675
  306TIP3    H125113   4.848   6.059   8.406  0.4827 -0.2366 -1.1412
  306TIP3    H225114   4.881   6.143   8.284  1.2000 -0.0276 -0.8060
  307TIP3   OH225115   4.297   0.561   9.001  0.2371  0.4052 -0.1740
  307TIP3    H125116   4.207   0.540   9.029  0.4454 -2.6722 -1.3942
  307TIP3    H225117   4.286   0.618   8.925 -0.7566 -0.5982 -0.8204
  308TIP3   OH225118   5.541   6.539   9.247  0.3972 -0.0601  0.2463
  308TIP3    H125119   5.457   6.536   9.294  0.9765  1.4643  1.4783
  308TIP3    H225120   5.587   6.614   9.285  2.0625 -0.4606 -0.8627
  309TIP3   OH225121   6.066   4.851  10.041  0.6785  0.2506  0.0272
  309TIP3    H125122   6.040   4.943  10.038  1.4325  0.4455 -1.9004
  309TIP3    H225123   6.022   4.816  10.119 -2.0578  1.5034 -0.8296
  310TIP3   OH225124   3.037   5.807   9.139  0.4026  0.3366  0.2794
  310TIP3    H125125   3.005   5.801   9.229  0.3575  1.1391  0.3298
  310TIP3    H225126   3.058   5.900   9.128  0.2482  0.2751 -0.5953
  311TIP3   OH225127   3.109   3.323   7.911  0.1049  0.1540  0.8400
  311TIP3    H125128   3.183   3.312   7.850  1.1168  4.4507  0.9867
  311TIP3    H225129   3.149   3.321   7.998  0.0165  1.7353  0.9509
  312TIP3   OH225130   3.088   6.571  11.481 -0.6783 -0.6711  0.3071
  312TIP3    H125131   3.072   6.526  11.398 -1.3225 -1.8010  1.0170
  312TIP3    H225132   3.042   6.655  11.472 -0.2321 -0.5188 -0.6966
  313TIP3   OH225133   0.233   5.083   8.162  0.5345  0.0825 -0.1322
  313TIP3    H125134   0.176   5.151   8.198  2.9553  2.1994  0.0347
  313TIP3    H225135   0.174   5.023   8.116 -1.8089  1.8842  0.3526
  314TIP3   OH225136   0.543   6.559  10.511 -0.4001 -0.1381 -0.1849
  314TIP3    H125137   0.537   6.616  10.587 -1.1860  0.3021 -0.5611
  314TIP3    H225138   0.624   6.510  10.524 -0.0642  0.5717  0.4828
  315TIP3   OH225139   2.995   2.640  10.330  0.1843 -0.2981 -0.1194
  315TIP3    H125140   3.013   2.621  10.422  0.7195  2.8157  0.5438
  315TIP3    H225141   3.062   2.705  10.306 -0.0879 -0.8493 -2.6676
  316TIP3   OH225142   4.550   4.579   8.612 -0.0069  0.1942  0.1179
  316TIP3    H125143   4.474   4.627   8.647 -0.5328 -1.5014  1.4547
  316TIP3    H225144   4.522   4.551   8.525 -1.1998 -0.9033  0.8115
  317TIP3   OH225145   5.206   3.425   8.521 -0.2566  0.4757 -0.7388
  317TIP3    H125146   5.239   3.483   8.453  1.7108  0.3918  0.0540
  317TIP3    H225147   5.146   3.478   8.573  0.2002  1.3054 -1.0436
  318TIP3   OH225148   0.103   5.681  10.344  0.1182  0.2089 -0.3279
  318TIP3    H125149   0.119   5.695  10.251 -2.8500  0.8820 -0.8405
  318TIP3    H225150   0.047   5.603  10.347  1.3926 -0.7057  1.0514
  319TIP3   OH225151   6.132   2.324   8.781 -0.4916  0.4703  0.4622
  319TIP3    H125152   6.220   2.289   8.766 -0.9794 -0.6791  0.1701
  319TIP3    H225153   6.073   2.256   8.748 -1.4878  1.8639 -0.7519
  320TIP3   OH225154   3.252   2.903  10.812 -0.2593  0.6970 -0.0562
  320TIP3    H125155   3.302   2.969  10.860 -0.8554  0.3885  1.0162
  320TIP3    H225156   3.269   2.923  10.720 -0.9123  2.7393  0.2118
  321TIP3   OH225157   0.286   6.307   9.477  0.9092  0.1513  0.2324
  321TIP3    H125158   0.293   6.289   9.571  1.9969  1.1861  0.3589
  321TIP3    H225159   0.206   6.260   9.451  0.6875 -0.3106  1.6224
  322TIP3   OH225160   2.049   3.244   8.627 -0.0865 -0.4112 -0.7809
  322TIP3    H125161   1.962   3.252   8.666  0.3006  1.6211 -0.2263
  322TIP3    H225162   2.109   3.254   8.700  0.7132 -3.7818 -0.8040
  323TIP3   OH225163   4.609   0.565  16.075  0.2011  1.1353  0.0844
  323TIP3    H125164   4.520   0.540  16.052  0.2401  0.4592  0.6463
  323TIP3    H225165   4.615   0.553  16.169  1.2293  0.0528 -0.0936
  324TIP3   OH225166   1.061   0.067  18.470  0.0971  0.1066  0.9304
  324TIP3    H125167   1.047   0.137  18.406 -0.3160 -0.5858  0.2447
  324TIP3    H225168   1.043  -0.014  18.421  0.5898 -0.4821  1.6972
  325TIP3   OH225169   4.710   3.981  19.507 -0.0931 -0.1235  0.1138
  325TIP3    H125170   4.619   3.954  19.517  0.2074 -1.1465  0.1981
  325TIP3    H225171   4.759   3.899  19.496  1.0190  0.2898  1.6225
  326TIP3   OH225172   0.935   6.233  18.816 -0.6339  0.7401  0.2194
  326TIP3    H125173   0.893   6.163  18.767  0.3041  2.2835 -3.0435
  326TIP3    H225174   0.864   6.275  18.864 -1.5058 -1.1615  0.7102
  327TIP3   OH225175   6.598   2.532  17.116 -0.2013 -0.2069 -0.3167
  327TIP3    H125176   6.662   2.603  17.102  0.6275 -0.8783  0.0029
  327TIP3    H225177   6.526   2.553  17.056  0.3854  0.4839 -0.7962
  328TIP3   OH225178   6.631   2.699  18.023  0.6475  0.7464 -0.1812
  328TIP3    H125179   6.694   2.750  17.972 -2.1106  2.3146 -2.3020
  328TIP3    H225180   6.659   2.709  18.113  2.8763  2.1163 -0.9524
  329TIP3   OH225181   3.215   0.419  17.714  0.0382 -0.2399  0.6642
  329TIP3    H125182   3.223   0.327  17.689  0.9772 -0.6591  2.3912
  329TIP3    H225183   3.274   0.465  17.653 -0.8902 -0.6560 -0.6027
  330TIP3   OH225184   1.716   3.516  18.684  0.0703  0.4354 -0.5699
  330TIP3    H125185   1.765   3.590  18.649 -0.8140  1.0831 -0.4718
  330TIP3    H225186   1.657   3.491  18.613  0.0862  0.0828 -0.4586
  331TIP3   OH225187   3.592   5.823  18.534 -0.5167  0.3544  0.1251
  331TIP3    H125188   3.597   5.747  18.477  0.2166  0.1656  0.4284
  331TIP3    H225189   3.588   5.898  18.474  2.1747  0.2925 -0.2575
  332TIP3   OH225190   1.013   3.410  17.001 -0.2307 -0.0624  0.5610
  332TIP3    H125191   0.944   3.407  16.935 -0.4426 -1.3018  0.8139
  332TIP3    H225192   1.088   3.451  16.956  0.3092 -2.6809 -1.1377
  333TIP3   OH225193   0.241   3.067  17.177  0.4359  0.3554  0.0095
  333TIP3    H125194   0.306   3.083  17.245 -0.2891 -0.6894  0.9765
  333TIP3    H225195   0.290   3.072  17.095  1.3745  1.3787  0.6068
  334TIP3   OH225196   4.986   0.380  17.501 -0.4139 -0.7063 -0.0593
  334TIP3    H125197   4.915   0.437  17.473  1.4771  1.7243 -0.2176
  334TIP3    H225198   4.942   0.300  17.532 -3.2652  1.1342  1.0343
  335TIP3   OH225199   5.810   4.634  16.828  0.4485  0.1595 -0.5685
  335TIP3    H125200   5.890   4.680  16.854  1.0836 -1.0571 -0.3103
  335TIP3    H225201   5.840   4.550  16.794 -0.7878 -0.8449  0.7063
  336TIP3   OH225202   3.385   4.369  19.195  0.1923 -0.2524  0.3824
  336TIP3    H125203   3.302   4.324  19.215 -0.3172 -0.6585 -2.2770
  336TIP3    H225204   3.373   4.458  19.230 -0.7290 -0.7387  1.3715
  337TIP3   OH225205   4.983   6.050  18.406  0.1863  0.1131  0.1339
  337TIP3    H125206   5.034   6.129  18.421 -1.7893  1.1913  1.6535
  337TIP3    H225207   5.037   5.980  18.443  1.3016  0.9660  0.1731
  338TIP3   OH225208   5.586   6.533  17.439 -0.4346  0.2549  0.5486
  338TIP3    H125209   5.591   6.560  17.531 -0.3272 -0.9723  0.9249
  338TIP3    H225210   5.492   6.529  17.420 -0.4488  1.1046  0.4118
  339TIP3   OH225211   0.735   1.244  17.735  0.3610  0.4458 -0.0465
  339TIP3    H125212   0.672   1.316  17.728 -0.6879 -0.4263  0.2336
  339TIP3    H225213   0.791   1.254  17.658 -0.6115  0.7732 -0.7301
  340TIP3   OH225214   3.925   3.037  18.468 -0.0594 -0.1184  0.0130
  340TIP3    H125215   3.864   3.021  18.396 -1.0553 -0.6182  0.9409
  340TIP3    H225216   3.869   3.048  18.545  1.0401 -1.5762  1.0697
  341TIP3   OH225217   1.449   2.156  17.361 -0.1413 -0.7160  0.6675
  341TIP3    H125218   1.360   2.153  17.325 -0.0041 -2.0484  0.3732
  341TIP3    H225219   1.496   2.088  17.313  0.9003 -0.3753  1.1867
  342TIP3   OH225220   4.684   4.756  16.704  0.4853  0.0603  0.7241
  342TIP3    H125221   4.599   4.773  16.665  0.3483 -0.1974  0.9091
  342TIP3    H225222   4.730   4.704  16.639  1.3300  2.0183 -0.3558
  343TIP3   OH225223   1.812   2.798  19.289  0.0266 -0.1420  0.6262
  343TIP3    H125224   1.761   2.880  19.286  0.2342  0.0100  1.1982
  343TIP3    H225225   1.903   2.827  19.298  0.1553 -0.4291  0.2612
  344TIP3   OH225226   6.116   5.204  18.992 -0.3851  0.0992 -0.3697
  344TIP3    H125227   6.070   5.263  19.052 -2.4747 -0.3960 -1.4157
  344TIP3    H225228   6.075   5.219  18.907  0.2617 -1.5884 -1.0194
  345TIP3   OH225229   6.646   3.063  19.697  0.5476  0.0735 -0.1709
  345TIP3    H125230   6.721   3.007  19.675 -0.6112 -1.2928 -0.7681
  345TIP3    H225231   6.650   3.071  19.793  1.0413 -0.6023 -0.1263
  346TIP3   OH225232   3.461   6.307  19.413 -0.5723 -0.3556 -0.5505
  346TIP3    H125233   3.389   6.288  19.473  0.0541 -0.8293  0.0723
  346TIP3    H225234   3.430   6.279  19.327 -1.3730  0.0661 -0.4055
  347TIP3   OH225235   2.556   0.812  16.319  0.1836 -0.3604  0.1724
  347TIP3    H125236   2.527   0.863  16.395 -1.1061 -1.1912  0.2709
  347TIP3    H225237   2.491   0.742  16.312 -0.2243  0.1772 -2.1963
  348TIP3   OH225238   4.476   4.762  16.355 -0.0069 -0.4297  0.1372
  348TIP3    H125239   4.561   4.792  16.324 -0.3103 -0.1435 -0.4239
  348TIP3    H225240   4.476   4.668  16.339  1.1060 -0.8639  2.2670
  349TIP3   OH225241   3.444   0.083  18.273 -0.0860  0.7007  0.0688
  349TIP3    H125242   3.470   0.152  18.211  0.3539  1.2609  0.8596
  349TIP3    H225243   3.492   0.104  18.353 -2.0691  1.0568  1.2044
  350TIP3   OH225244   1.788   5.002  19.336 -0.3471  0.0549 -0.1037
  350TIP3    H125245   1.701   4.972  19.310  0.1058 -1.9154  0.4572
  350TIP3    H225246   1.811   4.947  19.412  1.1475  0.9305  0.1380
  351TIP3   OH225247   3.236   4.201  16.106 -0.2446  0.1992  0.6236
  351TIP3    H125248   3.303   4.266  16.122  0.8684 -0.7146 -0.1688
  351TIP3    H225249   3.243   4.181  16.013 -0.8198 -0.7672  0.7681
  352TIP3   OH225250   3.187   4.692  18.071 -0.1488 -0.1902 -0.3141
  352TIP3    H125251   3.203   4.783  18.046  1.1937 -0.8015 -1.8391
  352TIP3    H225252   3.232   4.681  18.154 -2.0829  1.0581  0.9783
  353TIP3   OH225253   2.267   1.819  16.398  0.1537  0.0701  0.3186
  353TIP3    H125254   2.304   1.802  16.311  1.0263  0.7043  0.5494
  353TIP3    H225255   2.333   1.872  16.442  0.1996 -1.0930  1.7472
  354TIP3   OH225256   1.756   3.785  17.088 -0.1138 -0.3152 -0.0184
  354TIP3    H125257   1.719   3.727  17.154 -0.3125  0.7764  0.8572
  354TIP3    H225258   1.775   3.728  17.014 -0.1978 -1.5093  0.8554
  355TIP3   OH225259   5.021   0.013  15.915 -0.4277  0.1472 -0.1939
  355TIP3    H125260   4.950  -0.039  15.877 -0.1507  0.2053 -0.8083
  355TIP3    H225261   4.977   0.083  15.963 -0.7916 -0.0846 -0.1893
  356TIP3   OH225262   2.440   0.757  15.958 -0.4851  0.2210  0.2642
  356TIP3    H125263   2.413   0.705  15.883 -1.1271  0.4081  0.3641
  356TIP3    H225264   2.359   0.792  15.994 -0.2464 -0.3821  1.4268
  357TIP3   OH225265   0.496   2.260  18.681  0.1309 -0.0951  0.2902
  357TIP3    H125266   0.582   2.286  18.648  0.1649 -0.5713 -0.0124
  357TIP3    H225267   0.489   2.167  18.658 -1.1870  0.3386 -1.2510
  358TIP3   OH225268   1.598   5.973  17.333  0.7020  0.0232  0.2500
  358TIP3    H125269   1.662   5.928  17.278 -0.0471  0.4802 -1.0293
  358TIP3    H225270   1.552   5.902  17.378  2.4571 -0.3078  1.6866
  359TIP3   OH225271   4.455   5.869  19.096 -0.4204 -0.2432 -0.9433
  359TIP3    H125272   4.386   5.818  19.054 -0.1885 -0.4560 -1.0719
  359TIP3    H225273   4.527   5.807  19.106  1.3420  0.9037 -4.6469
  360TIP3   OH225274   6.479   3.670  18.978 -0.2453  0.3362  0.1792
  360TIP3    H125275   6.537   3.648  18.905 -0.3058  0.1390  0.1878
  360TIP3    H225276   6.537   3.683  19.052 -0.2084  0.1709  0.1802
  361TIP3   OH225277   1.366   3.728  19.185 -0.3001 -0.0864  0.0125
  361TIP3    H125278   1.293   3.674  19.215 -1.2558  0.4692 -1.1882
  361TIP3    H225279   1.360   3.724  19.089  1.6148 -0.4956 -0.1243
  362TIP3   OH225280   2.200   1.731  17.109  0.5954 -0.4747 -0.0212
  362TIP3    H125281   2.278   1.786  17.096 -0.3906  0.5858 -1.9149
  362TIP3    H225282   2.147   1.779  17.173  0.4870 -0.0367 -0.4295
  363TIP3   OH225283   3.715   2.365  18.676  0.1048 -0.4653  0.1306
  363TIP3    H125284   3.786   2.320  18.720 -0.6153 -0.9032  0.8857
  363TIP3    H225285   3.646   2.371  18.742 -0.8415 -0.7455 -0.8029
  364TIP3   OH225286   3.243   3.773  18.383  0.0564  0.1949 -0.0378
  364TIP3    H125287   3.323   3.768  18.435  0.8704 -0.5393 -1.3231
  364TIP3    H225288   3.214   3.864  18.391  0.0188  0.0625  1.8653
  365TIP3   OH225289   5.602   4.775  17.712 -0.2063 -0.2390 -0.5433
  365TIP3    H125290   5.526   4.763  17.654 -0.4202 -0.5454 -0.2032
  365TIP3    H225291   5.658   4.838  17.666  0.2033 -1.3815 -1.6617
  366TIP3   OH225292   1.105   2.861  17.351 -0.5803 -0.1214 -0.4296
  366TIP3    H125293   1.074   2.875  17.262  2.8204  3.3649 -1.3227
  366TIP3    H225294   1.182   2.806  17.341 -0.3184  0.0863  0.4123
  367TIP3   OH225295   1.521   1.642  17.272  0.2021  0.8557  0.3268
  367TIP3    H125296   1.533   1.627  17.366  1.4132  0.3660  0.1117
  367TIP3    H225297   1.443   1.591  17.250 -1.5154  2.8239  1.4736
  368TIP3   OH225298   4.077   2.806  18.510  0.0541 -0.5833 -0.0432
  368TIP3    H125299   4.103   2.813  18.602 -1.3533 -0.1574  0.3591
  368TIP3    H225300   4.032   2.889  18.492  0.5275 -0.5640 -1.1916
  369TIP3   OH225301   4.346   3.393  16.488 -0.0399 -0.0092  0.4786
  369TIP3    H125302   4.386   3.335  16.424  1.4652 -0.2903  1.6090
  369TIP3    H225303   4.311   3.335  16.555 -1.1755  0.3002  0.1768
  370TIP3   OH225304   6.673   3.743  17.756 -0.2199 -0.5490 -0.2643
  370TIP3    H125305   6.709   3.655  17.761  0.1642 -0.5150 -1.9477
  370TIP3    H225306   6.591   3.733  17.706  0.4955  0.1989 -1.6512
  371TIP3   OH225307   4.568   2.392  18.802 -0.1706 -0.6479 -0.1056
  371TIP3    H125308   4.503   2.341  18.754 -1.6625  1.1962 -0.1719
  371TIP3    H225309   4.583   2.342  18.882 -1.0320 -1.5328 -0.4785
  372TIP3   OH225310   0.377   4.437  18.903  0.3084  0.3478  0.2109
  372TIP3    H125311   0.324   4.486  18.841  0.8440  1.6613  0.7583
  372TIP3    H225312   0.450   4.495  18.925  1.4223 -1.0052  0.2743
  373TIP3   OH225313   2.287   3.239  19.447 -0.3040  0.5434 -0.5262
  373TIP3    H125314   2.247   3.319  19.481 -1.8183 -0.0258 -0.8757
  373TIP3    H225315   2.261   3.170  19.508 -0.1281  0.1067 -0.9295
  374TIP3   OH225316   4.389   5.715  18.130 -0.0892 -0.9132 -0.3247
  374TIP3    H125317   4.361   5.731  18.220  1.0263 -0.6989  0.0000
  374TIP3    H225318   4.308   5.719  18.079 -0.5998  0.0194  0.5187
  375TIP3   OH225319   6.077   1.467  19.512 -0.0282 -0.0505 -0.1421
  375TIP3    H125320   6.107   1.558  19.509  1.5501 -0.5624 -1.3711
  375TIP3    H225321   6.110   1.434  19.595  0.5516  0.1492 -0.2875
  376TIP3   OH225322   2.440   0.445  16.016  0.3842 -0.2363 -0.2831
  376TIP3    H125323   2.422   0.472  15.927  3.5474  0.3851 -0.8589
  376TIP3    H225324   2.444   0.349  16.012 -1.3187 -0.3245 -0.3513
  377TIP3   OH225325   2.984   3.265  16.678 -0.1069  0.0467 -0.0568
  377TIP3    H125326   3.071   3.228  16.690  0.6086  2.0276  1.4826
  377TIP3    H225327   2.999   3.359  16.669 -2.0381  0.3499 -0.6886
  378TIP3   OH225328   3.291   5.360  18.466  0.1789 -0.1489 -0.2587
  378TIP3    H125329   3.315   5.407  18.546 -0.2153  1.2913 -0.9516
  378TIP3    H225330   3.366   5.373  18.408 -0.9305  1.8533 -1.3635
  379TIP3   OH225331   4.829   3.646  17.768  0.1555  0.7604 -0.0141
  379TIP3    H125332   4.922   3.658  17.788 -0.2058 -0.1468  2.6329
  379TIP3    H225333   4.795   3.735  17.758  1.5226  1.0902 -2.6633
  380TIP3   OH225334   2.198   5.850  19.057 -0.2845 -0.1074  0.0757
  380TIP3    H125335   2.210   5.784  19.125 -1.9316 -1.6682 -1.0248
  380TIP3    H225336   2.110   5.884  19.071 -0.2580  0.2902 -0.6522
  381TIP3   OH225337   6.351   5.581  18.297 -0.0728 -0.4480  0.3160
  381TIP3    H125338   6.399   5.565  18.216  1.1182 -1.8641  1.2445
  381TIP3    H225339   6.380   5.667  18.326 -1.0138  0.3747 -1.0584
  382TIP3   OH225340   2.041   3.485  18.380 -0.0377  0.6857  0.4889
  382TIP3    H125341   2.011   3.448  18.463  0.7544  0.2966  0.6121
  382TIP3    H225342   2.080   3.411  18.334  0.5713  1.1450  0.2649
  383TIP3   OH225343   2.668   0.506  19.147  0.2011  0.3552 -0.2110
  383TIP3    H125344   2.637   0.416  19.147  0.9693  0.0738  0.5404
  383TIP3    H225345   2.690   0.524  19.239  2.2020  0.5288 -0.6636
  384TIP3   OH225346   0.664   5.474  16.707 -0.0485 -0.1140 -0.0990
  384TIP3    H125347   0.729   5.404  16.704 -0.0523 -0.0793 -2.4950
  384TIP3    H225348   0.715   5.554  16.721  0.4449 -0.1045 -1.7976
  385TIP3   OH225349   6.490   6.164  17.184 -0.2101  0.4685  0.2642
  385TIP3    H125350   6.544   6.085  17.187 -2.6752 -1.3292 -0.0705
  385TIP3    H225351   6.532   6.219  17.117  1.6896 -0.3864  0.6714
  386TIP3   OH225352   3.361   5.986  18.978  0.0577 -0.3898 -0.1400
  386TIP3    H125353   3.310   6.066  18.964  1.1760  0.6992  1.6153
  386TIP3    H225354   3.393   5.963  18.890  0.2641  1.4994 -0.6079
  387TIP3   OH225355   4.041   0.146  16.968  0.0757 -0.4934 -0.0908
  387TIP3    H125356   4.029   0.072  16.909  1.4014 -0.5450 -0.3155
  387TIP3    H225357   4.131   0.175  16.953  0.4946 -0.5793  1.9645
  388TIP3   OH225358   5.209   1.599  17.260  0.9944  0.1931 -0.4080
  388TIP3    H125359   5.220   1.607  17.355 -0.0279 -0.8043 -0.1923
  388TIP3    H225360   5.298   1.608  17.225  1.3948  0.4691  0.6435
  389TIP3   OH225361   4.275   6.414  15.861  0.0255 -0.1929  0.2839
  389TIP3    H125362   4.201   6.355  15.850 -0.5482 -0.4867  4.3975
  389TIP3    H225363   4.334   6.392  15.789 -3.9438  0.5142 -3.6697
  390TIP3   OH225364   6.001   6.377  17.232  0.5850 -0.0167  0.5147
  390TIP3    H125365   6.062   6.306  17.252 -0.5026 -1.0382  0.3503
  390TIP3    H225366   5.914   6.338  17.245 -0.1095  0.5450 -1.8369
  391TIP3   OH225367   3.405   4.323  17.786  0.6534 -0.3380  0.0757
  391TIP3    H125368   3.353   4.391  17.831 -1.1364 -0.3827 -1.7742
  391TIP3    H225369   3.354   4.243  17.798  1.7921 -1.0012  0.6181
  392TIP3   OH225370   3.426   2.002  17.134 -0.1070  0.2296 -0.3684
  392TIP3    H125371   3.382   2.021  17.217  0.0171 -1.2737  0.0844
  392TIP3    H225372   3.391   1.917  17.108 -1.6064  1.4993 -2.8943
  393TIP3   OH225373   1.212   6.710  16.509 -0.3503  0.2956  0.0235
  393TIP3    H125374   1.278   6.775  16.484 -0.1834  0.3203  0.5313
  393TIP3    H225375   1.245   6.670  16.589  0.2554 -1.4475 -1.0400
  394TIP3   OH225376   4.404   0.819  16.104  0.0733 -0.4127  0.1867
  394TIP3    H125377   4.493   0.821  16.139  1.3289  0.1461 -2.7156
  394TIP3    H225378   4.396   0.732  16.064 -0.7843 -0.5567  0.6560
  395TIP3   OH225379   6.583   6.752  18.136 -0.2369 -0.2352 -0.8904
  395TIP3    H125380   6.667   6.708  18.121 -0.4800 -0.4586 -1.6049
  395TIP3    H225381   6.607   6.844  18.147  0.2703 -0.5079  0.5581
  396TIP3   OH225382   2.184   3.840  17.724  0.1421  0.1410  0.0983
  396TIP3    H125383   2.270   3.873  17.697 -0.3890  1.7374  0.2598
  396TIP3    H225384   2.195   3.816  17.816 -0.1372  2.5241  0.8032
  397TIP3   OH225385   2.852   6.104  15.645  0.4524 -0.6945  0.4231
  397TIP3    H125386   2.884   6.076  15.559  0.8341  1.4049 -0.1824
  397TIP3    H225387   2.932   6.128  15.692  0.1228 -0.1654  0.7132
  398TIP3   OH225388   0.075   2.431  18.614 -0.1006 -0.8039 -0.1788
  398TIP3    H125389  -0.006   2.435  18.666  0.6223 -1.0186  1.0034
  398TIP3    H225390   0.104   2.522  18.609 -1.2423 -0.4920 -2.0121
  399TIP3   OH225391   3.004   2.622  17.038 -0.0765  0.1577 -0.4970
  399TIP3    H125392   3.094   2.652  17.049  0.9425 -1.9910 -2.2956
  399TIP3    H225393   2.984   2.636  16.946 -1.3117 -0.1094 -0.2987
  400TIP3   OH225394   4.455   6.009  18.314 -0.1426  0.3982 -0.6848
  400TIP3    H125395   4.459   6.089  18.262 -0.0784  1.0089  0.2210
  400TIP3    H225396   4.367   5.974  18.298 -0.1515  0.6245 -1.1308
  401TIP3   OH225397   3.236   0.359  17.326  0.4676  0.1661 -0.0320
  401TIP3    H125398   3.188   0.277  17.337  0.4561  0.1117 -0.4502
  401TIP3    H225399   3.179   0.426  17.364  0.0763  0.0929 -0.4705
  402TIP3   OH225400   4.016   1.646  18.822  0.4166 -0.3850  0.5533
  402TIP3    H125401   3.993   1.554  18.812 -0.4832  0.0507 -2.2778
  402TIP3    H225402   4.111   1.647  18.834  0.4385 -1.6600  0.5772
  403TIP3   OH225403   6.541   0.722  17.628 -0.0950  0.5129 -0.3054
  403TIP3    H125404   6.500   0.651  17.579 -0.6369  1.1801 -0.8321
  403TIP3    H225405   6.474   0.752  17.689  0.5655 -0.2938  0.8598
  404TIP3   OH225406   3.787   6.726  16.423  0.0218 -0.2762  0.8637
  404TIP3    H125407   3.809   6.807  16.376 -1.9312  0.0311  0.4012
  404TIP3    H225408   3.814   6.656  16.364 -0.7207  0.0889  0.0748
  405TIP3   OH225409   4.056   5.034  17.059 -0.0970 -0.1038 -0.5179
  405TIP3    H125410   4.119   5.068  17.122 -0.4153  1.0266 -0.7757
  405TIP3    H225411   4.103   5.034  16.976 -0.0777 -0.3560 -0.5071
  406TIP3   OH225412   6.558   6.384  18.981 -0.1741 -0.1904 -0.4797
  406TIP3    H125413   6.560   6.452  19.047  0.8003 -0.1433 -0.5455
  406TIP3    H225414   6.555   6.431  18.898 -1.5870 -0.2491 -0.4941
  407TIP3   OH225415   2.111   4.950  16.038 -0.0078 -0.4016  0.5486
  407TIP3    H125416   2.159   4.874  16.006 -0.0001 -0.9159  1.7320
  407TIP3    H225417   2.035   4.914  16.083 -1.1260  0.3850 -0.6445
  408TIP3   OH225418   3.121   3.352  17.389  0.3720  0.0268 -0.7168
  408TIP3    H125419   3.121   3.413  17.463  0.6199 -0.0361 -0.6631
  408TIP3    H225420   3.214   3.344  17.365  0.3139 -0.1195 -0.8973
  409TIP3   OH225421   1.556   6.646  18.947 -0.1635  0.0482  0.6157
  409TIP3    H125422   1.527   6.732  18.916 -1.0863 -0.1251  0.9641
  409TIP3    H225423   1.623   6.619  18.883  0.3855  1.1645  0.6982
  410TIP3   OH225424   6.454   5.586  17.260 -0.4363  0.8659 -0.1141
  410TIP3    H125425   6.493   5.550  17.341  1.4177 -0.4775 -1.4955
  410TIP3    H225426   6.366   5.548  17.257  0.3729 -1.1954  0.0595
  411TIP3   OH225427   1.068   5.377  15.145 -0.7142 -0.2605  0.3037
  411TIP3    H125428   1.026   5.340  15.068 -0.7210 -0.1048  0.2329
  411TIP3    H225429   1.161   5.383  15.120 -0.9223  1.1597 -0.2385
  412TIP3   OH225430   4.829   3.165  18.887 -0.0953  0.1292 -0.7927
  412TIP3    H125431   4.845   3.245  18.937  3.6387 -0.8041 -0.1672
  412TIP3    H225432   4.836   3.193  18.795  2.2167  0.5017 -0.5829
  413TIP3   OH225433   6.516   6.694  16.846  0.0382 -0.4293 -0.0235
  413TIP3    H125434   6.569   6.713  16.924 -0.2960  1.2124 -0.1578
  413TIP3    H225435   6.425   6.704  16.877 -0.1794 -1.8781 -0.1270
  414TIP3   OH225436   0.162   1.017  16.741  0.9592 -0.6350  0.4217
  414TIP3    H125437   0.245   0.977  16.712  1.0501  0.0275 -0.2843
  414TIP3    H225438   0.170   1.021  16.836  2.5183  1.0162  0.2792
  415TIP3   OH225439   6.712   2.757  17.028 -0.2573 -0.0119 -0.3950
  415TIP3    H125440   6.801   2.762  17.062 -0.4578 -1.2587  0.3378
  415TIP3    H225441   6.706   2.831  16.967  1.7718 -0.7649 -1.6162
  416TIP3   OH225442   2.605   2.214  19.449  0.0352  0.3388  0.1060
  416TIP3    H125443   2.676   2.279  19.450  0.9302 -0.6083  0.0881
  416TIP3    H225444   2.525   2.266  19.452  0.7331  1.4339  0.6362
  417TIP3   OH225445   1.165   5.391  17.361  0.1087 -0.3225  0.0496
  417TIP3    H125446   1.179   5.383  17.267  2.1745  1.0314  0.1800
  417TIP3    H225447   1.251   5.379  17.400 -0.4051  0.7503  1.6532
  418TIP3   OH225448   0.972   6.368  16.778  0.6107 -0.4031 -0.5774
  418TIP3    H125449   0.878   6.348  16.777  0.8888 -1.6983 -1.6219
  418TIP3    H225450   1.006   6.318  16.852  0.6179 -0.5146 -0.6572
  419TIP3   OH225451   5.460   3.029  18.598  0.2598  0.0043 -0.1275
  419TIP3    H125452   5.371   2.995  18.602 -0.1003  0.8740 -0.3756
  419TIP3    H225453   5.507   2.982  18.667 -0.6763  0.3414  0.7724
  420TIP3   OH225454   0.122   2.250  19.069  0.2312 -0.9217  0.5131
  420TIP3    H125455   0.163   2.269  18.985  0.4520 -0.2038  0.7791
  420TIP3    H225456   0.149   2.160  19.089  1.4217 -0.5717  0.5384
  421TIP3   OH225457   4.433   6.451  18.926 -0.0750  0.2981  0.2408
  421TIP3    H125458   4.478   6.534  18.911  1.1921 -0.4369 -0.1694
  421TIP3    H225459   4.438   6.437  19.020 -0.7439  0.9266  0.3756
  422TIP3   OH225460   2.381   1.511  19.596 -0.5690 -0.2431 -0.0925
  422TIP3    H125461   2.405   1.558  19.676 -1.4319 -1.5117  0.9577
  422TIP3    H225462   2.443   1.542  19.530  0.6558  0.2825  1.2539
  423TIP3   OH225463   5.867   3.002  16.221  0.2497  0.0391 -0.7570
  423TIP3    H125464   5.831   3.090  16.227 -0.2045 -0.1332 -0.9259
  423TIP3    H225465   5.793   2.944  16.238  0.9537 -0.2978  1.5101
  424TIP3   OH225466   4.963   5.134  15.713 -0.5936 -0.5148  0.2123
  424TIP3    H125467   5.041   5.117  15.661  1.3017  2.3435  1.8732
  424TIP3    H225468   4.987   5.110  15.802 -1.0379  1.6402  0.9797
  425TIP3   OH225469   1.374   6.199  15.921 -0.4867  0.2042 -0.2185
  425TIP3    H125470   1.449   6.200  15.861 -0.6167  1.0131 -0.3859
  425TIP3    H225471   1.305   6.247  15.874 -1.3310 -1.0694 -0.3307
  426TIP3   OH225472   5.878   2.520  18.417  0.5007 -0.1746  0.3875
  426TIP3    H125473   5.813   2.479  18.359 -0.0385 -0.6931  1.3265
  426TIP3    H225474   5.956   2.465  18.407  0.3476 -0.3790  0.2898
  427TIP3   OH225475   2.678   0.658  16.928 -0.1918 -0.0096 -0.6251
  427TIP3    H125476   2.720   0.578  16.894 -0.6998 -1.3075  1.6123
  427TIP3    H225477   2.746   0.700  16.981 -0.3738  0.2501 -0.5978
  428TIP3   OH225478   2.903   0.639  18.164 -0.1757  0.1377  0.3767
  428TIP3    H125479   2.898   0.544  18.176  1.2853  0.1783  1.5721
  428TIP3    H225480   2.982   0.652  18.110  1.2186  0.7895  2.4719
  429TIP3   OH225481   5.443   6.630  18.512  0.7566  0.4513  0.1418
  429TIP3    H125482   5.502   6.702  18.536 -1.3490  1.6788  1.9033
  429TIP3    H225483   5.423   6.586  18.594 -0.3396 -0.2962 -0.4955
  430TIP3   OH225484   6.248   1.223  18.045 -0.0533  0.5113 -0.0848
  430TIP3    H125485   6.307   1.166  17.996 -0.1374  1.0384 -0.8108
  430TIP3    H225486   6.166   1.222  17.995 -1.7977 -2.5954  2.4070
  431TIP3   OH225487   5.790   4.193  17.997  0.4775 -0.5224 -0.2924
  431TIP3    H125488   5.730   4.166  17.928  0.6902 -0.4386 -0.5119
  431TIP3    H225489   5.810   4.112  18.045 -1.7683 -0.1890  1.3766
  432TIP3   OH225490   4.749   2.726  17.835  0.6586  0.3329  0.7070
  432TIP3    H125491   4.779   2.649  17.882  0.7310  0.1889  0.4314
  432TIP3    H225492   4.748   2.796  17.900 -1.8784 -0.4529  1.6268
  433TIP3   OH225493   5.276   2.213  19.386  0.0004  0.3123  0.2311
  433TIP3    H125494   5.232   2.141  19.341 -0.5696  0.5677  0.3688
  433TIP3    H225495   5.209   2.280  19.395  0.5910  0.9736 -0.1295
  434TIP3   OH225496   2.409   2.063  19.874  0.1144  0.1754 -0.0286
  434TIP3    H125497   2.357   2.126  19.824  1.5164  1.9589  0.6151
  434TIP3    H225498   2.385   2.080  19.965  0.5444 -0.1858  0.1560
  435TIP3   OH225499   4.317   1.336  16.441  0.5092 -0.1719 -0.1312
  435TIP3    H125500   4.384   1.403  16.455  2.1983 -1.4181 -1.8463
  435TIP3    H225501   4.340   1.295  16.358  0.2243 -3.6401  1.3154
  436TIP3   OH225502   0.308   1.343  17.423 -0.4030 -0.6870 -0.4009
  436TIP3    H125503   0.334   1.276  17.360 -0.2859 -0.6899 -0.3480
  436TIP3    H225504   0.366   1.330  17.498 -2.8111 -3.0108  1.2453
  437TIP3   OH225505   2.909   1.154  15.849 -0.2578  0.4417 -0.0853
  437TIP3    H125506   2.875   1.242  15.865 -1.5530  0.1304 -0.9286
  437TIP3    H225507   2.855   1.121  15.777  2.2519  0.1237 -1.9753
  438TIP3   OH225508   4.328   6.313  18.695  0.4157  0.2215 -0.3666
  438TIP3    H125509   4.335   6.222  18.669 -1.5234 -0.3203  0.7881
  438TIP3    H225510   4.404   6.329  18.750  0.4510 -0.8913 -0.0748
  439TIP3   OH225511   6.725   4.152  16.330  0.3751  0.3459 -0.5779
  439TIP3    H125512   6.632   4.140  16.349  0.2109  0.2422 -1.4291
  439TIP3    H225513   6.753   4.068  16.295  0.4631  0.7791 -1.5938
  440TIP3   OH225514   0.499   4.468  16.664  0.0873  0.2573  0.6723
  440TIP3    H125515   0.413   4.464  16.623  1.2987  2.3363 -2.4577
  440TIP3    H225516   0.537   4.381  16.651 -0.5819  0.1042 -0.3256
  441TIP3   OH225517   1.127   1.039  16.855 -0.5891  0.3149 -0.3934
  441TIP3    H125518   1.122   0.977  16.927  3.1127 -0.3220 -0.5132
  441TIP3    H225519   1.099   1.122  16.893 -0.2783 -0.3426  1.3410
  442TIP3   OH225520   3.480   5.527  17.388  0.0827 -0.4630  0.5100
  442TIP3    H125521   3.450   5.472  17.460 -0.7546 -0.2968  0.2926
  442TIP3    H225522   3.427   5.500  17.313 -1.1943  1.4219  0.6678
  443TIP3   OH225523   5.015   4.248  18.841 -0.1777  0.2203  0.0002
  443TIP3    H125524   4.985   4.262  18.930 -2.0838  0.2625 -0.5952
  443TIP3    H225525   4.965   4.173  18.810  1.8925 -1.0543 -0.4296
  444TIP3   OH225526   5.364   3.065  19.489 -0.9700 -0.6690  0.1388
  444TIP3    H125527   5.400   3.090  19.403 -0.4648 -1.4203  0.1230
  444TIP3    H225528   5.388   2.973  19.499  0.4988 -0.1694  1.8320
  445TIP3   OH225529   6.501   5.317  18.799  0.1562 -0.5753 -0.4598
  445TIP3    H125530   6.587   5.306  18.758 -0.1372 -1.7895 -0.7882
  445TIP3    H225531   6.447   5.357  18.731  0.4776  0.2640 -0.2267
  446TIP3   OH225532   6.751   3.254  15.946 -0.0566 -0.1476  0.3093
  446TIP3    H125533   6.802   3.179  15.915  0.8726  0.0380  1.3119
  446TIP3    H225534   6.745   3.312  15.870  0.3974 -0.6161 -0.0914
  447TIP3   OH225535   1.487   5.133  16.740  0.0546 -0.5005  0.4070
  447TIP3    H125536   1.521   5.131  16.650 -1.5005 -0.0629 -0.2188
  447TIP3    H225537   1.394   5.111  16.731 -0.4253  0.8138  1.7686
  448TIP3   OH225538   2.338   2.038  19.157  0.4082  0.2844  0.8372
  448TIP3    H125539   2.342   1.987  19.238  2.4828  0.3776  0.8296
  448TIP3    H225540   2.345   1.973  19.087  1.5870  0.4399  0.8015
  449TIP3   OH225541   4.430   0.351  18.171  0.1525  0.1198 -0.4112
  449TIP3    H125542   4.398   0.376  18.084  0.3995 -0.5195 -0.6880
  449TIP3    H225543   4.523   0.331  18.158  0.8135  2.3392  0.4645
  450TIP3   OH225544   0.166   2.356  16.201 -0.1612  0.3533  0.1454
  450TIP3    H125545   0.170   2.318  16.113  0.8734 -0.2779  0.4557
  450TIP3    H225546   0.112   2.434  16.190  2.6360  2.1899 -1.7544
  451TIP3   OH225547   0.742   1.853  16.917  0.6122 -0.2790  0.0475
  451TIP3    H125548   0.771   1.926  16.972 -0.7991 -0.0652  0.5600
  451TIP3    H225549   0.646   1.857  16.922  0.4092 -0.0726 -2.6537
  452TIP3   OH225550   4.236   0.989  19.265  0.0267  0.3005 -0.7986
  452TIP3    H125551   4.265   0.967  19.353  1.1206 -0.7873 -1.4083
  452TIP3    H225552   4.141   0.977  19.268  0.1292 -0.3778  0.0541
  453TIP3   OH225553   3.661   0.904  18.452  0.3306 -1.0252  0.6481
  453TIP3    H125554   3.710   0.965  18.397  2.9201 -0.9897  2.7446
  453TIP3    H225555   3.588   0.954  18.487 -0.2160 -0.5097 -1.1577
  454TIP3   OH225556   2.818   6.529  18.408  0.3990 -0.4620  0.2888
  454TIP3    H125557   2.817   6.604  18.348  4.1374  0.3119  0.9238
  454TIP3    H225558   2.749   6.548  18.471 -1.7171  0.1262 -2.0451
  455TIP3   OH225559   6.019   2.857  16.979  0.4174  0.0942  0.1000
  455TIP3    H125560   6.005   2.772  17.021 -0.4877  0.0997 -0.1749
  455TIP3    H225561   5.946   2.911  17.009 -1.0011 -0.2768 -2.4291
  456TIP3   OH225562   5.401   6.748  17.058  0.1621  0.0839  0.4644
  456TIP3    H125563   5.341   6.818  17.035  0.5899  0.8040  1.4872
  456TIP3    H225564   5.349   6.687  17.111  0.4384  0.9769  1.8047
  457TIP3   OH225565   3.168   3.886  17.257 -0.3439  0.2524 -0.0064
  457TIP3    H125566   3.115   3.860  17.332  0.7049  3.4647  2.0252
  457TIP3    H225567   3.105   3.921  17.194 -0.9546  1.0274  1.0062
  458TIP3   OH225568   3.365   3.726  17.945  0.5237  0.3791 -0.3612
  458TIP3    H125569   3.288   3.671  17.954  0.3956  0.5955 -0.1382
  458TIP3    H225570   3.439   3.667  17.961  0.3820  0.2986  0.0088
  459TIP3   OH225571   6.342   0.476  16.640  0.2190  0.1618  0.1948
  459TIP3    H125572   6.364   0.560  16.682 -0.5659  0.2573  0.4279
  459TIP3    H225573   6.376   0.410  16.700 -1.5793  0.2813  1.4386
  460TIP3   OH225574   1.446   0.862  17.119 -0.6099  0.0093 -0.2832
  460TIP3    H125575   1.471   0.823  17.203 -0.4767  0.8432  0.0741
  460TIP3    H225576   1.492   0.810  17.054 -0.0732 -0.1445  0.2138
  461TIP3   OH225577   3.368   4.846  19.440 -0.1959  0.0596  0.1182
  461TIP3    H125578   3.450   4.892  19.460 -0.2981  0.1170  0.4259
  461TIP3    H225579   3.394   4.758  19.417  0.0689  0.4876 -1.2823
  462TIP3   OH225580   2.780   0.851  17.600 -0.4563 -0.0407  0.0717
  462TIP3    H125581   2.716   0.879  17.667  1.2245 -0.8090  2.1189
  462TIP3    H225582   2.833   0.929  17.584 -0.3770 -0.0563  0.2478
  463TIP3   OH225583   4.196   5.161  16.147 -0.4473 -0.1102  0.1668
  463TIP3    H125584   4.255   5.127  16.215 -0.6545  1.9731  1.4669
  463TIP3    H225585   4.217   5.108  16.070  1.4062 -1.0583  1.2225
  464TIP3   OH225586   5.966   1.382  18.558  0.1270  0.4258  0.0598
  464TIP3    H125587   6.037   1.319  18.566 -1.4778 -1.5732 -0.6421
  464TIP3    H225588   5.891   1.331  18.528 -1.5964  2.4622  0.6179
  465TIP3   OH225589   0.642   3.136  16.878  0.0534  0.2559  0.0886
  465TIP3    H125590   0.630   3.180  16.962 -2.2247 -1.1190  0.5575
  465TIP3    H225591   0.648   3.043  16.900  2.9022  0.0839 -1.0390
  466TIP3   OH225592   1.632   4.305  16.681  0.0611  0.9760  0.4257
  466TIP3    H125593   1.695   4.343  16.621 -0.8072  1.0972 -0.4372
  466TIP3    H225594   1.570   4.258  16.625 -1.0357  1.4791  1.1585
  467TIP3   OH225595   3.544   1.587  17.036 -0.2646  0.2662  0.1406
  467TIP3    H125596   3.550   1.589  17.132 -0.9292  1.9912  0.1825
  467TIP3    H225597   3.455   1.556  17.019  0.5393 -2.1660 -0.0096
  468TIP3   OH225598   5.154   3.993  17.226 -0.1101 -0.3892 -0.5083
  468TIP3    H125599   5.156   3.897  17.227 -1.2423 -0.5078  2.4124
  468TIP3    H225600   5.065   4.015  17.198  0.3490 -0.1411 -1.8127
  469TIP3   OH225601   5.223   1.820  18.350  0.1543 -0.1318  0.3498
  469TIP3    H125602   5.209   1.782  18.436  2.1899  1.1474  1.3235
  469TIP3    H225603   5.176   1.904  18.353  0.4222  0.0213  0.3077
  470TIP3   OH225604   4.842   4.533  18.222  0.2571 -0.1274  0.3173
  470TIP3    H125605   4.812   4.601  18.161  0.8200  0.1068  0.2916
  470TIP3    H225606   4.762   4.495  18.258 -0.0691  0.1825 -0.0769
  471TIP3   OH225607   3.467   2.730  17.908 -0.3467 -0.3115  0.6398
  471TIP3    H125608   3.438   2.819  17.889 -0.0276 -0.0487  1.3378
  471TIP3    H225609   3.396   2.692  17.959 -0.9495 -0.8239 -0.5370
  472TIP3   OH225610   6.231   6.658  18.745 -0.1950  0.0398 -0.3241
  472TIP3    H125611   6.247   6.667  18.839 -0.8816 -0.0889 -0.1850
  472TIP3    H225612   6.148   6.704  18.731 -0.9802 -1.3788 -0.5572
  473TIP3   OH225613   5.872   0.327  16.596  0.0158 -0.1727  0.0468
  473TIP3    H125614   5.881   0.348  16.689  0.7377 -1.6712  0.3473
  473TIP3    H225615   5.954   0.284  16.573  0.1224  0.7556 -1.4697
  474TIP3   OH225616   4.623   1.424  16.983 -0.4350 -0.2525 -0.2993
  474TIP3    H125617   4.634   1.503  16.930 -0.6212 -0.0112  0.0143
  474TIP3    H225618   4.691   1.431  17.050  0.2180 -0.8749 -0.8800
  475TIP3   OH225619   4.424   4.766  16.618  0.0005 -0.6590 -0.0107
  475TIP3    H125620   4.426   4.755  16.523  0.4702 -0.4242 -0.0292
  475TIP3    H225621   4.336   4.799  16.636  0.9419  2.5811 -0.7587
  476TIP3   OH225622   0.106   0.383  18.320 -0.3181 -0.1915 -0.0242
  476TIP3    H125623   0.122   0.345  18.234 -0.0227 -2.0586  0.8062
  476TIP3    H225624   0.012   0.371  18.334 -0.1421 -1.1527  0.4449
  477TIP3   OH225625   3.176   5.615  17.691 -0.2140  0.0461  0.1916
  477TIP3    H125626   3.112   5.544  17.677 -0.3326  0.0239  0.8206
  477TIP3    H225627   3.220   5.591  17.772 -0.5595  0.9250  0.6421
  478TIP3   OH225628   2.176   1.010  17.658 -0.4120 -0.3011  0.1143
  478TIP3    H125629   2.142   1.091  17.620  2.0027  0.8688  0.2129
  478TIP3    H225630   2.246   0.984  17.598  4.4031  2.2784  3.8663
  479TIP3   OH225631   1.791   3.938  19.234 -0.5432 -0.3610  0.5517
  479TIP3    H125632   1.737   3.947  19.155  0.6700  0.6422 -0.2032
  479TIP3    H225633   1.767   4.013  19.288 -0.4445 -0.3326  0.5573
  480TIP3   OH225634   6.636   6.500  15.720 -0.4667  0.0352  0.0916
  480TIP3    H125635   6.541   6.499  15.726 -0.6284  3.0325 -0.3953
  480TIP3    H225636   6.658   6.588  15.688  2.3272 -1.5464 -3.0661
  481TIP3   OH225637   6.418   1.736  18.188 -0.0372 -0.0516  0.1234
  481TIP3    H125638   6.473   1.751  18.111  0.6007  1.3107  0.8226
  481TIP3    H225639   6.378   1.651  18.171 -1.9903  1.2759 -2.9962
  482TIP3   OH225640   1.524   1.319  19.228 -0.5959  0.1793  0.2470
  482TIP3    H125641   1.452   1.381  19.241 -0.9932 -0.4869  1.3799
  482TIP3    H225642   1.518   1.259  19.303  0.2399 -0.7740 -0.4209
  483TIP3   OH225643   0.524   5.125  16.719 -0.3446  0.7481  0.1259
  483TIP3    H125644   0.498   5.059  16.783  0.9695  0.3815  0.3251
  483TIP3    H225645   0.530   5.077  16.636 -2.1008  1.2342 -0.3163
  484TIP3   OH225646   2.622   3.436  18.388  0.2574 -0.1523 -0.8374
  484TIP3    H125647   2.674   3.366  18.348 -1.2718 -1.1943 -1.1345
  484TIP3    H225648   2.536   3.427  18.347 -1.3038 -1.0062  2.3110
  485TIP3   OH225649   4.542   5.159  19.316  0.0071  0.3142 -0.4291
  485TIP3    H125650   4.541   5.067  19.344  1.3542  0.5169  0.3670
  485TIP3    H225651   4.454   5.174  19.282 -0.7108 -0.8540  0.7933
  486TIP3   OH225652   6.247   1.353  19.272 -0.1714  0.4053  0.6277
  486TIP3    H125653   6.241   1.429  19.214 -1.1556 -0.3778 -0.3161
  486TIP3    H225654   6.168   1.358  19.325 -0.9847 -0.7590 -0.4428
  487TIP3   OH225655   1.044   0.543  18.090 -0.1162 -1.2840 -0.1380
  487TIP3    H125656   1.099   0.505  18.158  2.0364  0.1432 -0.9646
  487TIP3    H225657   0.972   0.584  18.137  0.3504 -1.8859  1.1356
  488TIP3   OH225658   3.311   2.492  17.177 -0.2672  0.0480 -0.2071
  488TIP3    H125659   3.335   2.585  17.180 -0.4484  0.0946 -0.1450
  488TIP3    H225660   3.267   2.476  17.261 -0.4052 -0.0464 -0.2968
  489TIP3   OH225661   0.993   1.383  18.794  0.6293 -0.6039 -0.2441
  489TIP3    H125662   0.916   1.327  18.806  0.3864 -0.2692 -0.2219
  489TIP3    H225663   1.056   1.349  18.857  0.8698 -1.5197 -0.9554
  490TIP3   OH225664   1.909   1.112  18.030  0.4032 -0.6882  0.1787
  490TIP3    H125665   1.854   1.034  18.027  0.2989 -0.5733 -1.2263
  490TIP3    H225666   1.889   1.151  18.115 -2.0524 -0.4161 -0.4481
  491TIP3   OH225667   5.843   3.603  19.555 -0.2736  0.1980  0.3461
  491TIP3    H125668   5.776   3.659  19.515 -0.9245  0.4351  1.7197
  491TIP3    H225669   5.903   3.664  19.598 -0.2028 -0.1014  0.6715
  492TIP3   OH225670   6.192   5.744  16.337 -0.0288  0.7268  0.0069
  492TIP3    H125671   6.204   5.701  16.422 -2.1565  2.3064  1.2028
  492TIP3    H225672   6.240   5.826  16.344 -0.8934  1.2412  0.0132
  493TIP3   OH225673   1.632   5.247  16.266 -0.0407  0.5647  0.2125
  493TIP3    H125674   1.551   5.251  16.215 -0.9327  1.0024  1.6097
  493TIP3    H225675   1.700   5.232  16.201 -1.3028 -0.4413 -0.9521
  494TIP3   OH225676   4.877   5.803  16.653 -0.0031 -0.1075 -0.0113
  494TIP3    H125677   4.890   5.740  16.582 -1.6966 -0.6009  0.0715
  494TIP3    H225678   4.964   5.840  16.668  0.3210  0.5474 -2.8008
  495TIP3   OH225679   4.572   3.148  17.285 -0.3422  0.1838 -0.1650
  495TIP3    H125680   4.527   3.069  17.257  0.7231 -1.4309  2.3481
  495TIP3    H225681   4.632   3.168  17.213 -1.9282 -0.1754 -1.6328
  496TIP3   OH225682   5.850   1.720  18.502  0.4722  0.0881 -0.3012
  496TIP3    H125683   5.861   1.635  18.459  0.9870  0.3501 -0.7041
  496TIP3    H225684   5.782   1.705  18.568  1.4130 -0.9411  0.4643
  497TIP3   OH225685   3.846   1.740  17.338  0.0146 -0.5160 -0.1330
  497TIP3    H125686   3.867   1.819  17.287  2.2484 -1.0987 -0.2106
  497TIP3    H225687   3.878   1.668  17.284  0.5002 -1.2784  1.1447
  498TIP3   OH225688   5.338   5.684  16.280  0.6833  0.0148 -0.4850
  498TIP3    H125689   5.277   5.645  16.216 -1.4421  0.6187  1.0563
  498TIP3    H225690   5.328   5.778  16.268 -1.6812  0.2421  2.2731
  499TIP3   OH225691   4.949   0.714  15.882 -0.4777 -0.0491  0.4833
  499TIP3    H125692   4.906   0.765  15.814 -0.5553  2.6875  2.3965
  499TIP3    H225693   5.042   0.727  15.867 -0.3327 -2.3220 -1.0405
  500TIP3   OH225694   4.480   0.332  18.458 -0.4694  0.4574 -0.1463
  500TIP3    H125695   4.394   0.373  18.467 -0.6244 -0.1042  1.1321
  500TIP3    H225696   4.486   0.307  18.366 -1.9051  0.0233 -0.1372
  501TIP3   OH225697   0.452   2.149  17.948 -0.4602  0.0313  0.6318
  501TIP3    H125698   0.443   2.228  17.895 -0.6022  0.6878  1.6239
  501TIP3    H225699   0.536   2.159  17.993  0.2346 -1.0748 -0.3289
  502TIP3   OH225700   1.487   0.460  16.367  0.0944 -0.2256 -0.0163
  502TIP3    H125701   1.397   0.462  16.335  0.5650 -0.3597 -1.4238
  502TIP3    H225702   1.514   0.368  16.359  0.7844  0.0357 -0.9209
  503TIP3   OH225703   2.716   5.230  15.952 -0.5051 -0.2850  0.2073
  503TIP3    H125704   2.798   5.180  15.945 -0.6132 -0.6892  1.4730
  503TIP3    H225705   2.664   5.202  15.877  0.0856 -0.8725  0.0041
  504TIP3   OH225706   4.152   3.367  16.890  0.0614 -1.0956 -0.1151
  504TIP3    H125707   4.132   3.399  16.802 -1.2939 -1.2127  0.1300
  504TIP3    H225708   4.107   3.428  16.949  2.4000  0.0532  0.6198
  505TIP3   OH225709   5.591   5.138  17.647  0.1003 -0.6243 -0.0344
  505TIP3    H125710   5.650   5.118  17.719  0.2776 -1.0742 -0.2940
  505TIP3    H225711   5.539   5.212  17.677  1.7612  0.7257 -0.3308
  506TIP3   OH225712   6.515   6.237  18.428 -0.2826  0.3821  0.3440
  506TIP3    H125713   6.604   6.235  18.463  0.0831 -1.4396 -0.5909
  506TIP3    H225714   6.513   6.313  18.370  0.4750  0.7805  0.8294
  507TIP3   OH225715   0.614   2.884  17.919  0.9692 -0.0531  0.0685
  507TIP3    H125716   0.604   2.901  18.013  0.5782 -1.6376  0.3470
  507TIP3    H225717   0.529   2.905  17.881  0.1686 -2.1775  0.5627
  508TIP3   OH225718   4.248   1.611  17.051 -0.4748  0.1551 -0.0673
  508TIP3    H125719   4.241   1.522  17.018  0.8761  0.1190 -0.3397
  508TIP3    H225720   4.302   1.603  17.130 -1.5241  0.5659  0.7184
  509TIP3   OH225721   4.999   2.989  16.328  0.1745 -0.0623 -0.1562
  509TIP3    H125722   5.042   2.932  16.390  0.9785  0.8779  0.1712
  509TIP3    H225723   4.906   2.969  16.337 -0.0088  1.6037  3.0423
  510TIP3   OH225724   1.577   0.475  19.472  0.1323  0.2135  0.2958
  510TIP3    H125725   1.619   0.462  19.557 -1.5536 -1.2825  0.9856
  510TIP3    H225726   1.558   0.568  19.468 -0.5725  0.1778  2.0054
  511TIP3   OH225727   4.914   0.714  17.502  0.6775  0.4093 -0.4350
  511TIP3    H125728   4.983   0.750  17.446  1.1802 -0.7418 -0.5650
  511TIP3    H225729   4.873   0.646  17.449  0.4330  0.0579  0.2022
  512TIP3   OH225730   1.107   6.743  17.687  0.4016  0.3327  0.4201
  512TIP3    H125731   1.038   6.678  17.700  2.0603 -1.6424 -0.0649
  512TIP3    H225732   1.114   6.788  17.771 -0.9913  0.0947  0.6869
  513TIP3   OH225733   2.831   1.571  18.425 -0.1046  0.5950  0.1552
  513TIP3    H125734   2.874   1.533  18.502 -0.6884 -1.0407 -0.3075
  513TIP3    H225735   2.902   1.616  18.379  2.1545 -4.8050 -2.3985
  514TIP3   OH225736   2.959   2.356  17.131 -0.1762 -0.3616  0.3750
  514TIP3    H125737   2.978   2.450  17.137  0.4900 -0.4791  0.1878
  514TIP3    H225738   2.994   2.331  17.045 -0.1878 -0.8151  0.5013
  515TIP3   OH225739   3.821   6.086  18.310 -0.0438 -0.2462 -0.0677
  515TIP3    H125740   3.833   5.991  18.314  0.4226 -0.1820  3.4379
  515TIP3    H225741   3.751   6.104  18.372  0.0955  1.7299 -0.4081
  516TIP3   OH225742   6.681   5.181  17.994 -0.2023 -0.5521  0.3135
  516TIP3    H125743   6.774   5.158  18.000 -0.2540 -0.8468  0.0348
  516TIP3    H225744   6.669   5.210  17.904 -0.6426 -1.7530 -0.0437
  517TIP3   OH225745   5.393   0.218  17.825 -0.4186  0.0380 -0.6463
  517TIP3    H125746   5.432   0.216  17.737 -1.9385 -0.4091 -1.3479
  517TIP3    H225747   5.300   0.199  17.810 -0.6047 -0.5760  1.1279
  518TIP3   OH225748   3.804   2.473  19.661  0.1791  0.1998  0.4078
  518TIP3    H125749   3.807   2.548  19.602  0.5894  0.3968  0.6764
  518TIP3    H225750   3.727   2.488  19.715  0.3104  0.4759  0.5214
  519TIP3   OH225751   3.672   0.142  17.910  0.0431 -0.1077  0.5744
  519TIP3    H125752   3.612   0.068  17.903 -0.5372  0.3279  0.8514
  519TIP3    H225753   3.626   0.214  17.867  1.0025 -0.1360 -0.5471
  520TIP3   OH225754   4.516   0.458  19.068 -0.9146 -0.0639  0.2534
  520TIP3    H125755   4.536   0.395  19.137  1.3539  1.0077  0.6666
  520TIP3    H225756   4.586   0.448  19.004 -1.5830  0.7031 -0.6408
  521TIP3   OH225757   4.464   4.101  19.079  0.2861  0.0990 -0.2352
  521TIP3    H125758   4.506   4.088  19.164  0.0767  0.3702 -0.0866
  521TIP3    H225759   4.531   4.076  19.015  0.8429  0.9674 -0.0173
  522TIP3   OH225760   0.568   2.631  17.080 -0.7291 -0.0626 -0.0114
  522TIP3    H125761   0.532   2.693  17.144 -0.7704  1.2160 -1.2330
  522TIP3    H225762   0.532   2.546  17.106 -1.1107  0.4998  1.3800
  523TIP3   OH225763   6.459   1.535  17.640  0.8632 -0.2667  0.0324
  523TIP3    H125764   6.394   1.479  17.597  1.7781  0.9031 -3.1146
  523TIP3    H225765   6.408   1.589  17.699 -0.7719 -0.7157 -0.9092
  524TIP3   OH225766   2.093   3.775  16.623  0.2424 -0.1508 -0.1910
  524TIP3    H125767   2.179   3.794  16.586 -0.3554  0.3694 -1.3798
  524TIP3    H225768   2.031   3.800  16.554 -0.9246  0.7263  1.1179
  525TIP3   OH225769   4.505   2.879  17.192 -0.5267 -0.3315  0.0849
  525TIP3    H125770   4.448   2.878  17.270 -0.6971  0.1340 -0.0310
  525TIP3    H225771   4.443   2.881  17.118 -0.4058 -2.3614 -0.1289
  526TIP3   OH225772   2.710   3.427  17.685  0.3267  0.2629  0.7822
  526TIP3    H125773   2.695   3.427  17.780  2.0745 -1.0234  1.1051
  526TIP3    H225774   2.670   3.345  17.655  2.0115 -0.6191  0.8508
  527TIP3   OH225775   1.948   5.351  18.676 -0.4010  0.3575  0.2715
  527TIP3    H125776   1.885   5.293  18.718 -0.0028 -0.4255 -0.2027
  527TIP3    H225777   1.952   5.322  18.585  2.2426 -1.0830  0.7304
  528TIP3   OH225778   4.315   4.421  17.580 -0.0691  0.2197 -0.3191
  528TIP3    H125779   4.311   4.350  17.516  0.4128 -1.4863  1.4477
  528TIP3    H225780   4.345   4.497  17.529 -0.2777 -0.8895 -2.2117
  529TIP3   OH225781   6.549   2.292  16.184  0.0166  0.4485  0.5956
  529TIP3    H125782   6.548   2.323  16.093 -0.8156 -0.0960  0.4132
  529TIP3    H225783   6.498   2.357  16.232  0.1537  0.5431  0.6141
  530TIP3   OH225784   5.413   3.464  18.616 -0.4403 -0.4528 -0.1268
  530TIP3    H125785   5.347   3.416  18.568  1.0233 -1.2071 -1.4823
  530TIP3    H225786   5.461   3.397  18.666 -0.2342 -0.0280  0.2562
  531TIP3   OH225787   2.503   2.201  18.671  0.0944  0.0306 -0.1915
  531TIP3    H125788   2.567   2.218  18.603 -0.4598 -0.1907 -0.7798
  531TIP3    H225789   2.478   2.109  18.658  1.1990 -0.5432  1.3620
  532TIP3   OH225790   6.639   4.965  18.524  0.2383 -0.0567  0.4520
  532TIP3    H125791   6.570   4.904  18.551  0.0855  0.9601  2.4800
  532TIP3    H225792   6.593   5.035  18.478  0.2353 -0.6074 -0.4142
  533TIP3   OH225793   4.150   6.628  16.983  0.6835 -0.2861  0.0366
  533TIP3    H125794   4.060   6.615  17.013  0.7319 -1.1980 -0.1859
  533TIP3    H225795   4.166   6.722  16.995  0.7871 -0.5947  3.0659
  534TIP3   OH225796   5.972   0.826  17.478 -0.0761  0.0096 -0.0444
  534TIP3    H125797   6.033   0.752  17.484  1.1202  1.0210  0.6762
  534TIP3    H225798   5.984   0.859  17.388  1.7725  1.2551  0.5936
  535TIP3   OH225799   6.741   1.397  17.111 -0.0835  0.3492  0.3291
  535TIP3    H125800   6.695   1.476  17.140  1.3659  1.1742  0.4813
  535TIP3    H225801   6.691   1.325  17.149 -1.2116  1.2009  0.5168
  536TIP3   OH225802   4.811   0.047  17.247  0.0151  0.5125  0.0483
  536TIP3    H125803   4.742  -0.018  17.243  1.3302 -0.9065 -0.8557
  536TIP3    H225804   4.880   0.006  17.299  0.5552  1.5004  0.1317
  537TIP3   OH225805   3.969   4.234  19.269 -0.1487 -0.8837  0.2083
  537TIP3    H125806   3.895   4.196  19.316 -0.3928 -1.3816 -0.5643
  537TIP3    H225807   3.962   4.328  19.286 -0.6142 -0.9864  0.6208
  538TIP3   OH225808   1.083   4.984  19.005 -0.3154  0.5437 -0.4454
  538TIP3    H125809   1.020   4.968  18.935 -0.1154 -0.4812 -0.4104
  538TIP3    H225810   1.082   4.903  19.056  1.5612  0.2201 -0.8661
  539TIP3   OH225811   5.189   5.640  17.199 -0.0328 -0.3426 -0.4207
  539TIP3    H125812   5.167   5.584  17.273 -3.6319  0.8687 -0.3585
  539TIP3    H225813   5.200   5.580  17.125 -0.9347 -1.3323  0.2290
  540TIP3   OH225814   6.320   4.786  18.931  0.0794 -0.0113 -0.6838
  540TIP3    H125815   6.278   4.854  18.985 -0.9796 -1.8582  0.9656
  540TIP3    H225816   6.413   4.804  18.939 -0.0688  0.1097  1.3887
  541TIP3   OH225817   4.591   4.853  17.544 -0.3741  0.7451 -0.1499
  541TIP3    H125818   4.499   4.845  17.569 -0.2558  1.8069  0.6840
  541TIP3    H225819   4.604   4.785  17.477 -1.0007 -1.4422  1.8221
  542TIP3   OH225820   4.548   1.705  18.398  0.7575 -0.2873  0.2356
  542TIP3    H125821   4.642   1.723  18.400  0.4437  1.5979  0.4674
  542TIP3    H225822   4.512   1.761  18.467 -0.3436 -2.4802  1.5217
  543TIP3   OH225823   5.539   0.744  17.047  0.4093 -0.5799 -0.1871
  543TIP3    H125824   5.482   0.731  16.971  0.0155 -0.2835  0.0533
  543TIP3    H225825   5.502   0.820  17.092  0.0249 -1.3546  0.8549
  544TIP3   OH225826   1.532   3.927  16.193  0.8070  0.3569 -0.2380
  544TIP3    H125827   1.604   3.893  16.141  0.7437  1.1527 -0.8600
  544TIP3    H225828   1.561   4.015  16.219  0.4994  0.2779  0.3889
  545TIP3   OH225829   4.153   2.738  17.032  0.0648  0.2448 -0.0928
  545TIP3    H125830   4.075   2.752  16.978  0.2715  0.7013 -0.2831
  545TIP3    H225831   4.132   2.777  17.116 -0.4537 -0.9289  0.3440
  546TIP3   OH225832   3.001   6.657  19.264  0.4578  0.1148 -0.1606
  546TIP3    H125833   2.951   6.677  19.185  1.1234  0.7697 -0.4222
  546TIP3    H225834   2.938   6.670  19.335  0.0905  0.3487 -0.5213
  547TIP3   OH225835   3.576   1.143  17.435 -0.0987 -0.1779  0.2869
  547TIP3    H125836   3.487   1.107  17.444  0.5474 -2.0957 -0.4134
  547TIP3    H225837   3.563   1.232  17.402 -1.7614 -0.2743  0.5919
  548TIP3   OH225838   3.560   0.879  17.289 -0.1959 -0.5256 -0.3071
  548TIP3    H125839   3.506   0.958  17.285  1.7985  0.8888 -1.9743
  548TIP3    H225840   3.641   0.908  17.330 -0.2988 -2.3880  1.3673
  549TIP3   OH225841   0.764   6.168  18.465  0.4992 -0.2746 -0.0115
  549TIP3    H125842   0.770   6.251  18.512  0.3667 -0.4662  0.3409
  549TIP3    H225843   0.786   6.191  18.374 -0.6478  0.3506 -0.1431
  550TIP3   OH225844   2.722   1.471  18.826 -0.2012  0.0879 -0.5578
  550TIP3    H125845   2.660   1.510  18.888  1.0501 -0.4862  1.1340
  550TIP3    H225846   2.681   1.389  18.799  0.3741 -0.9869  1.6445
  551TIP3   OH225847   6.750   1.812  16.988  0.5557  0.0375 -0.1997
  551TIP3    H125848   6.690   1.737  16.995  0.0249  0.1928 -2.3182
  551TIP3    H225849   6.719   1.874  17.053 -0.4045 -0.6875  0.0620
  552TIP3   OH225850   4.990   1.627  19.038  0.2207 -0.5146  0.1226
  552TIP3    H125851   4.969   1.608  18.946  1.7724 -2.4791  0.0949
  552TIP3    H225852   5.059   1.565  19.059  0.5904  0.5761  2.3578
  553TIP3   OH225853   2.037   4.314  17.848  0.2014  0.0612 -0.1000
  553TIP3    H125854   2.093   4.282  17.777  1.6630 -0.3606  1.1910
  553TIP3    H225855   2.011   4.235  17.895  1.1383  0.4653  1.1610
  554TIP3   OH225856   1.976   4.607  16.551  0.0584  0.2819  0.1021
  554TIP3    H125857   2.009   4.632  16.637 -0.7206  1.9566 -0.0515
  554TIP3    H225858   2.053   4.577  16.504  0.5900 -0.1097  1.1957
  555TIP3   OH225859   1.864   3.112  19.048 -0.1451 -0.1027  0.2907
  555TIP3    H125860   1.845   3.166  18.971  0.0210  0.8107  0.8642
  555TIP3    H225861   1.893   3.028  19.013 -0.0615  0.3020 -0.6372
  556TIP3   OH225862   1.296   3.050  17.952 -0.8725 -0.2180  0.3355
  556TIP3    H125863   1.242   2.979  17.916  0.8811 -1.3574 -0.1501
  556TIP3    H225864   1.279   3.047  18.046 -0.6122 -1.4869  0.3653
  557TIP3   OH225865   2.618   4.355  18.082 -0.2769 -0.4347  0.0671
  557TIP3    H125866   2.543   4.298  18.072  1.2953 -2.5193 -0.4518
  557TIP3    H225867   2.691   4.307  18.044  1.3287  1.5500  0.4193
  558TIP3   OH225868   4.855   1.718  15.746 -0.3326 -0.3331 -0.3550
  558TIP3    H125869   4.762   1.705  15.730 -0.5924 -0.0799  0.8650
  558TIP3    H225870   4.884   1.772  15.673 -1.1873 -0.2424 -0.6381
  559TIP3   OH225871   4.116   1.187  18.069 -0.3128 -0.6186 -0.0523
  559TIP3    H125872   4.052   1.250  18.035 -0.8667 -1.9259 -1.5286
  559TIP3    H225873   4.179   1.176  17.998  1.9412  1.0007  1.5190
  560TIP3   OH225874   2.062   6.014  16.460 -0.0220  0.0520  0.2836
  560TIP3    H125875   2.105   5.976  16.537  1.2013  1.9768  0.6192
  560TIP3    H225876   1.974   6.038  16.491  0.3273  0.4504  0.9909
  561TIP3   OH225877   2.158   6.009  18.039  0.0986  0.1150 -0.0767
  561TIP3    H125878   2.124   6.021  18.127  1.4075  0.1666  0.4395
  561TIP3    H225879   2.229   5.946  18.049 -0.7664 -1.1114 -1.3515
  562TIP3   OH225880   1.026   0.720  16.789 -0.5222 -0.0365 -0.4214
  562TIP3    H125881   1.034   0.665  16.711 -1.2312  0.1008 -0.5976
  562TIP3    H225882   1.077   0.798  16.770 -0.2888 -0.2170 -0.5433
  563TIP3   OH225883   5.885   6.076  17.276  0.0445  0.4630 -0.0601
  563TIP3    H125884   5.820   6.115  17.334  1.3950  0.3456  1.5700
  563TIP3    H225885   5.929   6.010  17.329  1.6369  0.6684 -1.0678
  564TIP3   OH225886   4.274   3.024  17.959 -0.0493  0.3764  0.0815
  564TIP3    H125887   4.292   3.028  17.865 -1.1398 -0.4963 -0.1868
  564TIP3    H225888   4.183   2.995  17.965  0.5197 -1.3024  1.4107
  565TIP3   OH225889   5.144   0.304  18.057 -0.0152 -0.2960  0.3733
  565TIP3    H125890   5.078   0.370  18.079 -0.5320 -0.8464  0.4678
  565TIP3    H225891   5.097   0.221  18.058  0.9454 -0.8678  1.7503
  566TIP3   OH225892   4.393   2.125  17.979 -0.4416 -0.1714  0.6647
  566TIP3    H125893   4.445   2.167  18.047  0.0113 -0.0278  0.2339
  566TIP3    H225894   4.345   2.197  17.938  0.5859 -0.0205 -0.2920
  567TIP3   OH225895   2.707   4.080  18.415 -0.1748  0.0984 -0.4334
  567TIP3    H125896   2.657   4.038  18.485 -0.1625 -0.1924 -0.5941
  567TIP3    H225897   2.696   4.174  18.429 -1.1752  0.0331 -0.7664
  568TIP3   OH225898   4.879   5.652  16.421  0.2070 -0.2502 -0.1051
  568TIP3    H125899   4.927   5.578  16.382  0.6502  0.0979 -0.2376
  568TIP3    H225900   4.889   5.722  16.357  1.6728  0.6012  0.9892
  569TIP3   OH225901   2.566   6.464  16.608 -0.0735  0.0141  0.6034
  569TIP3    H125902   2.498   6.400  16.585  1.2738 -1.3872  0.4096
  569TIP3    H225903   2.641   6.412  16.635  1.2121  1.5160  0.0832
  570TIP3   OH225904   0.487   4.153  18.808  0.2400 -0.6055 -0.0050
  570TIP3    H125905   0.519   4.178  18.721  2.3918  1.6311  1.3246
  570TIP3    H225906   0.434   4.227  18.836 -1.2619 -1.7362  0.2533
  571TIP3   OH225907   3.188   3.780  16.577  0.1617  0.6026 -0.2813
  571TIP3    H125908   3.271   3.805  16.537  0.4621 -1.9208 -1.3894
  571TIP3    H225909   3.121   3.820  16.522  0.6186 -0.7744 -1.9118
  572TIP3   OH225910   4.844   1.348  17.120 -0.2560 -0.0186  0.1826
  572TIP3    H125911   4.913   1.284  17.102  0.0433  0.5984 -0.9767
  572TIP3    H225912   4.877   1.401  17.192 -0.0826 -0.5329  0.4860
  573TIP3   OH225913   5.799   1.714  19.009  0.1803  0.0417  0.3930
  573TIP3    H125914   5.761   1.755  18.931  0.4116 -2.2449 -1.0018
  573TIP3    H225915   5.723   1.682  19.058  0.0987 -0.2005  0.1132
  574TIP3   OH225916   0.029   6.229  17.763 -0.1379  0.9609  0.0148
  574TIP3    H125917  -0.008   6.206  17.678 -0.0314 -0.6865  0.3822
  574TIP3    H225918   0.016   6.151  17.817  0.5273  1.6836  1.2682
  575TIP3   OH225919   2.613   6.299  18.853  0.6801 -0.2176 -0.7458
  575TIP3    H125920   2.589   6.224  18.799 -1.3850 -0.8567  0.9223
  575TIP3    H225921   2.626   6.370  18.790 -1.0682 -1.0599 -2.1745
  576TIP3   OH225922   6.042   5.861  17.396 -0.5613 -0.9401  0.4845
  576TIP3    H125923   6.132   5.842  17.371  0.2256  3.9739 -1.4871
  576TIP3    H225924   6.047   5.882  17.489  0.7514  0.7668  0.0809
  577TIP3   OH225925   3.950   2.915  18.888 -0.1615  0.3936 -0.4619
  577TIP3    H125926   3.976   2.940  18.976 -0.9952  0.5477 -0.2432
  577TIP3    H225927   3.855   2.902  18.894 -0.0691 -0.6603 -1.0877
  578TIP3   OH225928   6.330   0.622  16.191 -0.1340  0.2771 -0.8970
  578TIP3    H125929   6.335   0.716  16.208  1.0120 -0.1415  1.4589
  578TIP3    H225930   6.236   0.605  16.179 -1.0846  1.1103  3.4077
  579TIP3   OH225931   4.562   2.883  16.766  0.1128 -0.5461  0.1534
  579TIP3    H125932   4.509   2.816  16.723 -1.5146  1.1805 -0.7097
  579TIP3    H225933   4.509   2.913  16.840  0.2859  0.5518 -0.1463
  580TIP3   OH225934   3.701   5.298  17.980 -0.4336  0.5571 -0.4176
  580TIP3    H125935   3.680   5.243  17.905 -0.1778 -1.4278  0.8851
  580TIP3    H225936   3.686   5.242  18.056  0.3549  2.1317  0.9781
  581TIP3   OH225937   5.388   1.650  18.746 -0.0021  0.4313  0.1968
  581TIP3    H125938   5.314   1.594  18.767 -0.2131  0.6890  0.1385
  581TIP3    H225939   5.418   1.619  18.660 -1.7187  2.0451 -1.0620
  582TIP3   OH225940   1.830   1.041  16.849 -0.2273  0.0812 -0.2189
  582TIP3    H125941   1.741   1.047  16.884 -0.7774 -0.5352 -1.4487
  582TIP3    H225942   1.840   0.949  16.824  0.8746  0.0768  0.1897
  583TIP3   OH225943   5.539   6.646  19.000  0.8040  0.3333 -0.0202
  583TIP3    H125944   5.618   6.671  18.953  0.6809  0.5955 -0.0902
  583TIP3    H225945   5.522   6.556  18.974 -0.2865  1.0198 -1.9159
  584TIP3   OH225946   5.014   4.806  19.315 -0.1551  0.2760 -0.0753
  584TIP3    H125947   5.003   4.747  19.390 -1.3071  1.0149  0.3550
  584TIP3    H225948   4.938   4.788  19.259 -0.1856  0.8982 -0.2420
  585TIP3   OH225949   4.116   1.612  17.477  0.0826 -0.2306 -0.5286
  585TIP3    H125950   4.169   1.544  17.435  4.1833  1.5312  1.3152
  585TIP3    H225951   4.112   1.682  17.411  0.9401  0.0041 -0.3448
  586TIP3   OH225952   5.745   1.332  18.032  0.1384 -0.0981 -0.2035
  586TIP3    H125953   5.679   1.320  17.964 -0.2132  0.3349  0.0597
  586TIP3    H225954   5.767   1.243  18.059 -2.4217 -0.2693  1.6991
  587TIP3   OH225955   5.049   0.042  18.130  0.2878  0.5081 -0.2284
  587TIP3    H125956   5.117   0.011  18.191  0.6193 -1.1516 -1.3897
  587TIP3    H225957   5.013  -0.038  18.091 -2.8269  1.2647  0.7900
  588TIP3   OH225958   6.576   6.573  17.818 -0.0878  0.1749  0.1126
  588TIP3    H125959   6.491   6.617  17.810 -0.0493  0.1763 -0.3124
  588TIP3    H225960   6.575   6.536  17.906 -0.2599  0.7357  0.3535
  589TIP3   OH225961   0.411   3.389  17.801 -0.4814  0.5338 -0.1968
  589TIP3    H125962   0.437   3.392  17.893  0.5402  1.0376 -0.4860
  589TIP3    H225963   0.372   3.475  17.784 -0.8470  0.3723 -0.1926
  590TIP3   OH225964   5.432   2.168  17.831 -0.4625 -0.2792  0.7159
  590TIP3    H125965   5.483   2.092  17.802  1.3319  1.1858 -0.1189
  590TIP3    H225966   5.347   2.157  17.788  0.3771 -0.9008 -0.8537
  591TIP3   OH225967   5.506   5.611  18.961  0.7180  0.4881  0.5315
  591TIP3    H125968   5.466   5.639  19.044  1.1437 -0.7696  1.1786
  591TIP3    H225969   5.549   5.528  18.981  0.1608 -0.2546 -1.1332
  592TIP3   OH225970   2.168   0.836  16.086 -0.1023  0.7857 -0.5459
  592TIP3    H125971   2.222   0.896  16.139 -1.0834  0.6757  0.6211
  592TIP3    H225972   2.116   0.894  16.031 -1.2407  1.0643  0.7675
  593TIP3   OH225973   6.323   5.757  15.823  0.1427  0.1252  0.1240
  593TIP3    H125974   6.263   5.693  15.786 -0.0379 -0.5156  1.4480
  593TIP3    H225975   6.345   5.815  15.750 -0.7389 -0.6441 -0.7826
  594TIP3   OH225976   0.346   1.468  16.748 -0.3304  0.0248 -0.5016
  594TIP3    H125977   0.298   1.409  16.689 -2.1617  0.2075  0.7142
  594TIP3    H225978   0.313   1.447  16.835  1.4699  0.5565  0.3565
  595TIP3   OH225979   0.071   3.273  16.585  0.2316  0.4452 -0.3596
  595TIP3    H125980   0.135   3.301  16.519 -0.2275 -1.5420 -1.7290
  595TIP3    H225981   0.117   3.207  16.637 -0.2940 -0.0561 -0.5244
  596TIP3   OH225982   4.240   1.423  17.344 -0.0876 -0.1027 -0.3039
  596TIP3    H125983   4.173   1.357  17.325 -1.1248  0.9688 -0.5095
  596TIP3    H225984   4.323   1.379  17.328 -0.7781 -1.1174 -1.2013
  597TIP3   OH225985   6.731   0.755  19.074 -0.2672 -1.0740 -0.4107
  597TIP3    H125986   6.720   0.843  19.110  0.7793 -1.6213  1.3894
  597TIP3    H225987   6.760   0.769  18.984 -2.5057  0.3615 -0.9801
  598TIP3   OH225988   3.645   5.743  16.663  0.2796  0.1318  0.3225
  598TIP3    H125989   3.675   5.673  16.721  0.8347  0.2963  0.2389
  598TIP3    H225990   3.723   5.769  16.614  0.1037  0.8833  0.4281
  599TIP3   OH225991   1.484   0.263  15.899 -0.1515 -0.0613  0.4047
  599TIP3    H125992   1.572   0.270  15.935 -0.1149  0.1160  0.2836
  599TIP3    H225993   1.456   0.354  15.887  0.6717 -0.0498 -2.0130
  600TIP3   OH225994   3.043   5.546  16.769  0.0816 -0.0704  0.6079
  600TIP3    H125995   3.037   5.450  16.767 -1.3568 -0.1010  2.7932
  600TIP3    H225996   3.128   5.565  16.730  0.1122 -2.1773 -0.5284
  601TIP3   OH225997   4.377   3.376  17.661  0.2761  0.0313  0.5405
  601TIP3    H125998   4.405   3.463  17.691  0.3309 -0.9325  3.6062
  601TIP3    H225999   4.451   3.319  17.681 -0.1296 -0.9246 -0.5435
  602TIP3   OH226000   6.034   5.775  15.519  0.2496  0.1102  0.2722
  602TIP3    H126001   6.057   5.723  15.596  1.3965  0.3593  0.1100
  602TIP3    H226002   5.979   5.717  15.467  0.5323 -0.5160  0.6582
  603TIP3   OH226003   1.895   1.839  18.768 -0.0760 -0.2246 -0.3554
  603TIP3    H126004   1.820   1.899  18.776  0.9600  1.1865 -0.7644
  603TIP3    H226005   1.971   1.894  18.787  0.8086 -1.8633  1.0765
  604TIP3   OH226006   3.144   5.947  18.577 -0.7227  0.5464  0.6961
  604TIP3    H126007   3.057   5.985  18.584 -0.2613  1.7488  0.1825
  604TIP3    H226008   3.134   5.856  18.607 -2.0886  0.7377  0.8486
  605TIP3   OH226009   3.234   5.779  19.073 -0.1133 -0.7021  0.3088
  605TIP3    H126010   3.276   5.731  19.145 -1.2347  0.1332  1.5516
  605TIP3    H226011   3.296   5.848  19.051 -0.0680 -0.5217  0.9736
  606TIP3   OH226012   2.631   6.543  15.733  0.1123  0.0074 -0.1096
  606TIP3    H126013   2.602   6.602  15.663 -1.0914 -0.2498  0.1392
  606TIP3    H226014   2.607   6.456  15.702  0.7876 -0.2388  0.0497
  607TIP3   OH226015   2.816   4.384  19.388 -0.1715 -0.5810 -0.1864
  607TIP3    H126016   2.769   4.363  19.308 -2.0705  0.7798  0.4880
  607TIP3    H226017   2.753   4.366  19.458 -0.1484  2.3401  0.6965
  608TIP3   OH226018   3.031   3.520  16.584  0.4810 -0.2222  0.4043
  608TIP3    H126019   3.112   3.568  16.600 -0.3706  1.5045 -0.2047
  608TIP3    H226020   2.963   3.577  16.620 -0.5864 -0.8911 -0.5121
  609TIP3   OH226021   0.240   3.090  16.262  0.5143  0.3617  0.7833
  609TIP3    H126022   0.266   3.111  16.173 -0.9067  0.8026  0.4440
  609TIP3    H226023   0.201   3.003  16.256 -0.9071  0.9763  0.6690
  610TIP3   OH226024   3.095   5.444  18.981 -0.5115 -0.5005 -0.2165
  610TIP3    H126025   3.051   5.524  19.008 -0.0840 -0.3637  0.0888
  610TIP3    H226026   3.082   5.383  19.053 -0.9766 -0.7629 -0.5197
  611TIP3   OH226027   5.559   1.980  18.568  0.3354 -0.5969  0.3895
  611TIP3    H126028   5.484   2.038  18.567  0.6044 -0.2412  0.5534
  611TIP3    H226029   5.630   2.030  18.527  0.7240 -0.5832  1.0484
  612TIP3   OH226030   2.390   2.097  16.897  0.7507 -0.1184 -0.1439
  612TIP3    H126031   2.345   2.107  16.813  0.2371  0.5612  0.2012
  612TIP3    H226032   2.441   2.177  16.907 -0.9914  0.8966  1.2338
  613TIP3   OH226033   3.320   0.517  16.049 -0.5339 -0.8884  0.3137
  613TIP3    H126034   3.298   0.557  15.965 -0.6438 -1.5657  0.0133
  613TIP3    H226035   3.282   0.430  16.045  0.3667 -1.3113  0.6513
  614TIP3   OH226036   3.473   0.654  17.020 -0.2311 -0.1758 -0.1219
  614TIP3    H126037   3.505   0.669  17.109  2.6444  0.1114 -1.1151
  614TIP3    H226038   3.514   0.572  16.993 -0.8702 -0.1397 -1.2754
  615TIP3   OH226039   5.772   4.999  18.219  0.1115  0.0603  0.5801
  615TIP3    H126040   5.726   5.073  18.257  0.7490 -0.1113  1.7284
  615TIP3    H226041   5.705   4.952  18.169 -0.4260  1.0748  0.3310
  616TIP3   OH226042   2.402   6.197  15.482 -0.3335 -0.3965 -0.4983
  616TIP3    H126043   2.464   6.213  15.553 -0.4444 -1.6137 -0.1050
  616TIP3    H226044   2.380   6.284  15.449  1.5368  0.0660 -0.6110
  617TIP3   OH226045   0.764   0.081  18.212  0.4152 -0.5031  0.2118
  617TIP3    H126046   0.782   0.173  18.229  1.3289 -0.6608  0.1194
  617TIP3    H226047   0.692   0.059  18.271 -0.2436  0.4321 -0.2191
  618TIP3   OH226048   6.670   4.270  19.200 -0.7204  0.5464 -0.0976
  618TIP3    H126049   6.644   4.354  19.238  0.6912  1.1239 -0.3300
  618TIP3    H226050   6.755   4.288  19.159 -1.0884 -0.6430 -1.4519
  619TIP3   OH226051   5.999   2.338  17.327 -0.2031 -0.2569 -0.4503
  619TIP3    H126052   5.996   2.403  17.398  1.3199 -0.4314 -0.1970
  619TIP3    H226053   5.998   2.253  17.372 -0.2407 -0.3791 -0.6816
  620TIP3   OH226054   6.310   4.234  18.032  0.3188  0.2931 -0.9690
  620TIP3    H126055   6.309   4.265  18.123 -0.6046 -0.2040 -0.7944
  620TIP3    H226056   6.340   4.309  17.981  1.3204  0.4247 -0.2025
  621TIP3   OH226057   1.279   5.882  17.289 -0.5255  0.1461 -0.2038
  621TIP3    H126058   1.251   5.928  17.209 -2.4666 -0.3243  0.1627
  621TIP3    H226059   1.350   5.824  17.260 -0.9364  0.2631 -1.4981
  622TIP3   OH226060   5.546   1.276  16.498  0.0721 -0.0275 -0.4370
  622TIP3    H126061   5.573   1.355  16.451  1.5119 -0.4935 -0.4316
  622TIP3    H226062   5.498   1.225  16.433  2.7884 -1.0824 -1.7776
  623TIP3   OH226063   3.096   5.521  15.671 -0.0970  0.1654 -0.4001
  623TIP3    H126064   3.015   5.571  15.661 -0.6982 -0.9634 -1.4725
  623TIP3    H226065   3.163   5.575  15.630 -0.7125  0.1880 -1.4066
  624TIP3   OH226066   3.171   2.539  17.436 -0.2665 -0.5472  0.0932
  624TIP3    H126067   3.219   2.546  17.519 -0.3187 -0.1317  0.0927
  624TIP3    H226068   3.132   2.626  17.424 -1.0358 -0.8900  0.0960
  625TIP3   OH226069   1.599   2.374  17.272  0.2369  0.1561 -0.4566
  625TIP3    H126070   1.556   2.441  17.219  1.6778  0.1398 -1.7393
  625TIP3    H226071   1.530   2.313  17.296 -0.6736  0.8013 -1.3496
  626TIP3   OH226072   6.557   4.387  17.625 -0.0577  0.6753  0.3890
  626TIP3    H126073   6.600   4.317  17.577 -1.2088  0.6012 -0.5594
  626TIP3    H226074   6.530   4.346  17.708  0.8223  0.4798  0.5901
  627TIP3   OH226075   0.666   3.527  18.318 -0.4497 -0.4674  0.3100
  627TIP3    H126076   0.575   3.531  18.348 -0.1059 -1.1682  1.5038
  627TIP3    H226077   0.693   3.438  18.336  0.0545 -0.6851 -1.3822
  628TIP3   OH226078   3.568   0.809  16.048 -0.1549 -0.3705 -0.3091
  628TIP3    H126079   3.598   0.842  15.963  0.5430  0.1113  0.1237
  628TIP3    H226080   3.598   0.873  16.111 -0.5866 -0.7819  0.3259
  629TIP3   OH226081   0.950   4.941  18.679 -0.6630 -0.7533  0.2482
  629TIP3    H126082   0.872   4.977  18.637 -0.8026  1.8722  2.4151
  629TIP3    H226083   1.023   4.967  18.623 -1.0803  0.1068  0.0902
  630TIP3   OH226084   0.894   0.616  18.307 -0.3886  0.0586 -0.4503
  630TIP3    H126085   0.807   0.649  18.329  0.0113  0.2721  0.9205
  630TIP3    H226086   0.921   0.568  18.385  1.5104  1.6156 -0.0883
  631TIP3   OH226087   5.011   0.262  17.127  0.0037  0.0332  0.0069
  631TIP3    H126088   4.918   0.285  17.124  0.2560  1.0996 -0.2083
  631TIP3    H226089   5.018   0.197  17.197 -1.1160 -1.1439 -0.9322
  632TIP3   OH226090   6.328   0.144  16.421 -0.5057  0.2188 -0.0971
  632TIP3    H126091   6.360   0.060  16.387  3.4314  1.3158  0.4302
  632TIP3    H226092   6.323   0.201  16.345  0.0370  0.3801 -0.0145
  633TIP3   OH226093   4.343   4.771  18.860 -0.5071  0.4700 -0.0945
  633TIP3    H126094   4.326   4.860  18.892  0.6684  1.1352 -1.2670
  633TIP3    H226095   4.339   4.717  18.939  1.1816  1.9038  1.0415
  634TIP3   OH226096   1.131   6.542  17.899  0.0077 -0.4725 -0.4270
  634TIP3    H126097   1.136   6.467  17.958  0.1302 -0.6839 -0.7042
  634TIP3    H226098   1.042   6.574  17.909  0.7001  0.9880  1.7035
  635TIP3   OH226099   6.539   6.521  18.325  0.1756 -0.3869 -0.3929
  635TIP3    H126100   6.545   6.608  18.283 -1.6867  0.2618  0.5864
  635TIP3    H226101   6.512   6.540  18.414  0.3831 -1.9773  0.0228
  636TIP3   OH226102   0.709   2.671  19.558 -0.6448  0.3330  0.1475
  636TIP3    H126103   0.614   2.683  19.547 -0.9344 -2.3770 -1.2065
  636TIP3    H226104   0.748   2.725  19.489 -1.4645 -1.1487 -1.5804
  637TIP3   OH226105   1.615   2.127  19.007  0.5325  0.1797 -0.4476
  637TIP3    H126106   1.596   2.215  19.040  0.0171 -0.0803 -0.0430
  637TIP3    H226107   1.674   2.089  19.072  1.1172  0.3807 -0.8507
  638TIP3   OH226108   4.867   5.746  17.821  0.2329 -0.0548  0.1457
  638TIP3    H126109   4.872   5.782  17.909  1.3974  1.0444 -0.3341
  638TIP3    H226110   4.778   5.711  17.814  0.0460  0.0828  1.6524
  639TIP3   OH226111   3.255   1.908  18.763  0.0642  0.0196 -0.1234
  639TIP3    H126112   3.299   1.963  18.699  1.4394 -1.6497 -0.6943
  639TIP3    H226113   3.183   1.867  18.714 -1.7634  2.1687  0.6180
  640TIP3   OH226114   1.525   1.442  17.520  0.0341 -0.0331  0.1581
  640TIP3    H126115   1.448   1.498  17.531  0.1088  0.1837 -0.4263
  640TIP3    H226116   1.533   1.397  17.604 -1.2990 -0.7967 -0.0919
  641TIP3   OH226117   3.955   4.349  18.867  0.4304 -0.3451 -0.0917
  641TIP3    H126118   3.956   4.409  18.792 -1.2731  0.4082  0.4413
  641TIP3    H226119   4.047   4.343  18.895  0.6023  2.3706  0.1123
  642TIP3   OH226120   3.990   4.044  18.960 -0.0830  0.4462  0.1033
  642TIP3    H126121   3.910   4.000  18.987  0.9527 -1.1148  0.7733
  642TIP3    H226122   3.960   4.122  18.913 -2.0258 -0.9443 -1.1270
  643TIP3   OH226123   4.329   0.602  18.337  0.1584  0.1271 -0.4641
  643TIP3    H126124   4.322   0.520  18.288 -0.4744  0.6010 -1.1917
  643TIP3    H226125   4.245   0.610  18.382  0.5033  0.0060  0.2197
  644TIP3   OH226126   1.194   1.315  19.498  0.0211 -0.2695  0.1607
  644TIP3    H126127   1.117   1.324  19.555  0.2022  1.6612  0.1680
  644TIP3    H226128   1.251   1.388  19.523  0.8903 -0.4033 -1.3204
  645TIP3   OH226129   0.620   1.032  17.852 -0.0711 -0.2851 -0.0796
  645TIP3    H126130   0.676   1.109  17.839 -1.2464  0.8810  1.3053
  645TIP3    H226131   0.585   1.043  17.940 -0.8870 -2.0249 -0.1514
  646TIP3   OH226132   3.157   5.794  18.815  0.4529 -0.3438 -0.1808
  646TIP3    H126133   3.251   5.813  18.809  0.7533 -0.8413  2.2182
  646TIP3    H226134   3.138   5.791  18.908 -1.8443 -0.8901 -0.5954
  647TIP3   OH226135   3.770   4.502  18.231 -0.7297 -0.2771 -0.3849
  647TIP3    H126136   3.820   4.582  18.243 -0.3722 -0.6416  0.6777
  647TIP3    H226137   3.714   4.519  18.155 -0.9190  1.1014  0.0397
  648TIP3   OH226138   3.410   3.951  19.177  0.4040 -0.7133  0.3145
  648TIP3    H126139   3.376   3.864  19.201  1.4282 -1.4612 -0.8212
  648TIP3    H226140   3.504   3.944  19.191  0.6203 -0.1177 -0.7271
  649TIP3   OH226141   1.011   0.019  19.252  0.3455 -0.1974  0.5436
  649TIP3    H126142   1.093   0.012  19.202  0.4412  1.2982  0.4441
  649TIP3    H226143   0.984  -0.072  19.267 -0.0794 -0.7427 -2.8446
  650TIP3   OH226144   5.921   3.438  17.725  0.0569 -0.0162  0.0700
  650TIP3    H126145   5.913   3.349  17.691 -1.3783  0.5397 -1.1702
  650TIP3    H226146   5.851   3.446  17.789 -0.4011  0.4717 -0.4742
  651TIP3   OH226147   0.910   3.151  16.476 -0.1516  0.4578  0.3313
  651TIP3    H126148   0.821   3.179  16.498 -0.4296 -1.0111  1.1785
  651TIP3    H226149   0.922   3.068  16.522  1.2898  0.0966 -0.6127
  652TIP3   OH226150   6.421   2.486  17.354  0.4910 -0.3298  0.1751
  652TIP3    H126151   6.420   2.574  17.315  2.1380 -0.8154 -1.0477
  652TIP3    H226152   6.494   2.441  17.312 -0.3197 -2.3203  0.7490
  653TIP3   OH226153   2.458   0.552  16.286  0.3521  0.2058  0.6960
  653TIP3    H126154   2.449   0.528  16.194  0.1734  0.4054  0.6608
  653TIP3    H226155   2.368   0.566  16.316  0.5270  3.0082  0.1305
  654TIP3   OH226156   5.640   4.097  17.768 -0.0225 -0.0601  0.2706
  654TIP3    H126157   5.629   4.045  17.688  1.8432  1.5191 -1.1092
  654TIP3    H226158   5.596   4.180  17.749  0.1419  0.2017  1.0144
  655TIP3   OH226159   0.801   4.087  19.278 -0.0560  0.1014  0.6634
  655TIP3    H126160   0.737   4.113  19.344 -1.2582 -1.1885  0.0555
  655TIP3    H226161   0.750   4.037  19.214  1.0633  1.2774 -1.2370
  656TIP3   OH226162   2.074   2.863  19.231 -0.1057  0.6526 -0.1207
  656TIP3    H126163   2.112   2.951  19.224 -0.8703  0.9405 -0.8254
  656TIP3    H226164   2.130   2.808  19.175  0.2778  0.7151  0.1957
  657TIP3   OH226165   4.326   4.594  18.055 -0.6362 -0.2517 -0.2329
  657TIP3    H126166   4.400   4.568  18.109  1.1069  1.4165 -1.6465
  657TIP3    H226167   4.291   4.672  18.098 -0.5314 -0.1030 -0.4138
  658TIP3   OH226168   5.668   2.384  17.036  0.5373 -0.1896  0.3928
  658TIP3    H126169   5.613   2.370  17.114 -0.0150 -0.7016 -0.0821
  658TIP3    H226170   5.714   2.465  17.055  0.6849 -0.4880  1.4207
  659TIP3   OH226171   0.326   1.262  18.913 -0.6521 -0.0645 -0.4415
  659TIP3    H126172   0.412   1.289  18.880 -0.8990 -1.1532 -2.1006
  659TIP3    H226173   0.279   1.345  18.926  0.4031  0.5161 -0.1730
  660TIP3   OH226174   1.768   0.836  15.582 -0.0467 -0.3825  0.1927
  660TIP3    H126175   1.813   0.895  15.521  2.1324 -1.9666  0.1523
  660TIP3    H226176   1.767   0.885  15.664  3.7302 -0.9378  0.7719
  661TIP3   OH226177   2.332   4.869  18.237  0.1107 -0.1197  0.6549
  661TIP3    H126178   2.384   4.816  18.297 -0.9182 -2.2832 -0.2668
  661TIP3    H226179   2.373   4.856  18.152  0.1961  1.0991  0.4782
  662TIP3   OH226180   4.401   3.661  17.675 -0.0966 -0.5129 -0.5466
  662TIP3    H126181   4.398   3.711  17.756 -0.0319  0.2745 -1.0181
  662TIP3    H226182   4.479   3.693  17.629 -0.5041 -0.4660 -1.2219
  663TIP3   OH226183   2.345   6.349  15.868  0.3334  0.4780  0.1573
  663TIP3    H126184   2.406   6.294  15.818  1.5464  1.0814  0.9157
  663TIP3    H226185   2.357   6.323  15.959 -0.1061  1.0247  0.3794
  664TIP3   OH226186   3.089   1.032  16.011 -0.2689  0.4244 -0.1371
  664TIP3    H126187   3.039   1.084  15.948 -0.9790  1.1633  0.9998
  664TIP3    H226188   3.123   0.958  15.960 -1.4432  0.5973 -1.2189
  665TIP3   OH226189   4.228   6.126  16.699  0.3813  0.2788 -0.4823
  665TIP3    H126190   4.188   6.043  16.728  1.3734  0.1434  0.5736
  665TIP3    H226191   4.300   6.140  16.760  0.7055  1.5418 -1.1293
  666TIP3   OH226192   2.419   1.384  17.617  0.3022 -0.3662 -0.3311
  666TIP3    H126193   2.438   1.465  17.570  0.9984 -0.3387 -0.0195
  666TIP3    H226194   2.402   1.320  17.548  0.8754 -0.2210 -0.6164
  667TIP3   OH226195   0.205   2.628  17.606 -1.1523 -0.6203  0.1060
  667TIP3    H126196   0.295   2.650  17.581 -1.0825 -1.5696 -0.5387
  667TIP3    H226197   0.192   2.540  17.571 -1.9913 -0.8979  1.0982
  668TIP3   OH226198   3.421   4.232  17.426 -0.7761  0.4842  0.2489
  668TIP3    H126199   3.364   4.309  17.429  1.8129  2.5156  1.4526
  668TIP3    H226200   3.398   4.182  17.504 -1.9662  0.4068 -0.1355
  669TIP3   OH226201   0.876   3.173  18.985  0.1514  0.5570 -0.1939
  669TIP3    H126202   0.944   3.235  18.957 -1.0107  1.7951 -0.4041
  669TIP3    H226203   0.803   3.229  19.012 -0.8202 -0.7332 -0.0642
  670TIP3   OH226204   0.854   4.683  18.450 -0.0832 -0.5907 -0.0594
  670TIP3    H126205   0.916   4.690  18.523  2.1070 -1.3880 -1.7429
  670TIP3    H226206   0.855   4.770  18.409 -3.3422  0.7503  2.2257
  671TIP3   OH226207   4.515   0.756  17.487 -0.2217  0.6003 -0.0229
  671TIP3    H126208   4.531   0.664  17.504 -2.3722  0.1878  0.0418
  671TIP3    H226209   4.421   0.761  17.467 -0.3974  2.9176  1.0338
  672TIP3   OH226210   5.599   0.112  16.289  0.4079 -0.7177 -0.1360
  672TIP3    H126211   5.598   0.197  16.245  2.4325 -0.1783  0.7343
  672TIP3    H226212   5.575   0.050  16.220  0.4003  0.4111 -1.1936
  673TIP3   OH226213   1.800   2.079  18.124 -0.1780  0.1513 -0.4430
  673TIP3    H126214   1.828   2.136  18.052  0.4729 -1.3528 -1.4277
  673TIP3    H226215   1.866   2.092  18.192  0.6795 -0.3692 -1.1675
  674TIP3   OH226216   3.446   3.962  17.074  0.5858 -0.9029  0.4082
  674TIP3    H126217   3.465   4.030  17.139  1.3904 -1.7142  1.0504
  674TIP3    H226218   3.528   3.952  17.026  0.5055 -1.4854  0.3908
  675TIP3   OH226219   5.807   4.538  18.157  0.1673 -0.4361 -0.1450
  675TIP3    H126220   5.856   4.619  18.172 -1.0307  0.3379 -0.3083
  675TIP3    H226221   5.827   4.515  18.066 -1.3322  1.0061 -0.8869
  676TIP3   OH226222   5.143   1.875  16.378 -0.1188  0.0503 -0.3091
  676TIP3    H126223   5.177   1.962  16.356 -1.1247  0.9603  1.5417
  676TIP3    H226224   5.115   1.839  16.294  0.6911  1.3342 -1.1718
  677TIP3   OH226225   5.990   4.897  19.112  0.5013 -0.1090 -0.2828
  677TIP3    H126226   5.895   4.901  19.118  0.4171 -1.5348 -0.1554
  677TIP3    H226227   6.008   4.886  19.018  0.5318  0.0057 -0.2899
  678TIP3   OH226228   0.634   0.094  17.440  0.2450  0.5189  0.0260
  678TIP3    H126229   0.689   0.045  17.378  1.8049  1.0871  0.9146
  678TIP3    H226230   0.613   0.175  17.394 -2.2036 -0.7857 -1.3826
  679TIP3   OH226231   1.784   3.401  17.315 -0.8157  0.3307  0.2211
  679TIP3    H126232   1.827   3.403  17.230  2.3301 -2.3162  1.5321
  679TIP3    H226233   1.736   3.318  17.315  0.6261 -0.5692  1.4978
  680TIP3   OH226234   1.365   0.587  16.811 -0.4650 -0.2640 -0.6681
  680TIP3    H126235   1.366   0.618  16.901 -1.2455  1.2775 -1.1608
  680TIP3    H226236   1.305   0.511  16.812  0.1946 -0.7838  0.2467
  681TIP3   OH226237   3.259   0.296  16.572 -0.2756  0.8596 -1.0126
  681TIP3    H126238   3.309   0.374  16.597  0.2203 -0.0705  1.0736
  681TIP3    H226239   3.212   0.322  16.493  0.9995  2.8037 -1.1896
  682TIP3   OH226240   3.534   4.989  18.779  0.3987 -0.4053  0.4606
  682TIP3    H126241   3.558   5.079  18.758  2.4717  0.0135  3.8236
  682TIP3    H226242   3.442   4.993  18.804  0.3664  0.7082  0.1905
  683TIP3   OH226243   3.809   5.847  17.303  0.7868  0.1983  0.2558
  683TIP3    H126244   3.904   5.856  17.311  0.8687 -1.0051  0.8517
  683TIP3    H226245   3.791   5.759  17.335 -0.4198  0.0101 -0.8962
  684TIP3   OH226246   2.555   5.198  19.325 -0.3134 -0.5162 -0.5736
  684TIP3    H126247   2.546   5.104  19.341 -0.6062 -0.6048 -1.2309
  684TIP3    H226248   2.569   5.205  19.231 -2.8129  0.2578 -0.9486
  685TIP3   OH226249   5.267   1.032  19.028  0.4658  0.0340  0.0393
  685TIP3    H126250   5.223   1.110  18.995 -0.3535 -1.4471 -2.7124
  685TIP3    H226251   5.356   1.038  18.991  0.2198 -0.5904 -0.6722
  686TIP3   OH226252   1.815   2.664  19.028 -0.6024 -0.1607 -0.5395
  686TIP3    H126253   1.835   2.736  18.970 -2.0622  1.0675  0.3984
  686TIP3    H226254   1.806   2.704  19.115 -1.2575 -1.4857  0.0467
  687TIP3   OH226255   4.780   0.986  17.193  0.7211  0.0228  0.4513
  687TIP3    H126256   4.849   0.957  17.253  3.0811  1.8396 -1.1843
  687TIP3    H226257   4.793   1.081  17.185 -1.4424  0.2957 -0.6150
  688TIP3   OH226258   6.496   5.767  17.057  0.1207  0.0605 -0.0297
  688TIP3    H126259   6.493   5.717  17.138  1.5389 -0.8433 -0.5071
  688TIP3    H226260   6.557   5.719  17.001 -0.1561  1.1467 -1.3141
  689TIP3   OH226261   3.287   1.673  16.806 -0.8659  0.0887 -0.0789
  689TIP3    H126262   3.345   1.598  16.798  1.0353  1.5330 -0.3365
  689TIP3    H226263   3.264   1.696  16.716 -0.3064  0.6512 -0.0849
  690TIP3   OH226264   1.956   4.343  19.021  0.1545 -0.2704  0.8366
  690TIP3    H126265   1.944   4.397  18.943  0.0808 -1.6208 -0.1129
  690TIP3    H226266   1.894   4.271  19.011  0.7919 -0.9633  1.6966
  691TIP3   OH226267   5.410   4.281  16.840  0.3475 -0.0703  0.2404
  691TIP3    H126268   5.337   4.292  16.780 -1.2943  0.1081  2.1663
  691TIP3    H226269   5.466   4.357  16.824 -0.7734  0.7080 -0.0906
  692TIP3   OH226270   2.202   1.379  17.365 -0.0949  0.1537 -0.0799
  692TIP3    H126271   2.133   1.333  17.412  1.0025  1.4015  3.0713
  692TIP3    H226272   2.269   1.312  17.349 -0.9996 -0.5500 -1.0497
  693TIP3   OH226273   5.101   6.752  18.910  0.2062  0.3169 -0.3950
  693TIP3    H126274   5.042   6.687  18.872  0.6390 -1.4142  1.6636
  693TIP3    H226275   5.186   6.732  18.871  0.0787  0.5793 -0.8131
  694TIP3   OH226276   1.744   5.576  16.441  0.3928  0.5533 -0.6211
  694TIP3    H126277   1.833   5.605  16.461  1.2316 -1.4398 -1.2099
  694TIP3    H226278   1.745   5.558  16.346 -1.2870  2.5366 -1.0859
  695TIP3   OH226279   4.570   1.105  18.887 -0.4612 -0.0003 -0.3853
  695TIP3    H126280   4.545   1.057  18.967 -0.9589 -0.7248 -0.9663
  695TIP3    H226281   4.514   1.183  18.888 -1.7693 -0.8923 -0.9292
  696TIP3   OH226282   5.048   0.524  18.368  0.0127 -0.1657 -0.2755
  696TIP3    H126283   5.062   0.616  18.392 -0.6408 -0.1784  0.1804
  696TIP3    H226284   5.058   0.523  18.272  2.5909 -0.1032 -0.0962
  697TIP3   OH226285   1.757   1.782  15.931  0.0999 -0.0777 -0.1149
  697TIP3    H126286   1.662   1.781  15.918  0.0126  0.6526  0.4224
  697TIP3    H226287   1.771   1.839  16.007  0.7921 -2.1144  1.3840
  698TIP3   OH226288   4.952   6.164  17.562  0.2371 -0.5196  0.3128
  698TIP3    H126289   4.924   6.072  17.554  0.5986 -0.6612  0.6504
  698TIP3    H226290   5.041   6.165  17.528  0.2982 -0.3287  0.4736
  699TIP3   OH226291   0.540   2.265  19.320  0.0460 -0.3861  0.2824
  699TIP3    H126292   0.491   2.278  19.401  0.4707  0.1504  0.4628
  699TIP3    H226293   0.483   2.210  19.267 -1.2925  1.1426  0.0204
  700TIP3   OH226294   4.342   3.309  18.847 -0.0598  0.6265  0.1571
  700TIP3    H126295   4.296   3.335  18.927 -1.4605 -1.0175 -0.0552
  700TIP3    H226296   4.387   3.228  18.871 -2.3899 -1.2261 -1.2169
  701TIP3   OH226297   2.902   3.855  17.716 -0.8908 -0.0247  0.1847
  701TIP3    H126298   2.910   3.772  17.764  0.3275  0.6338  1.1888
  701TIP3    H226299   2.879   3.919  17.784 -0.1105  0.7556 -0.2688
  702TIP3   OH226300   6.675   2.795  16.531  0.4582  0.0759 -0.0014
  702TIP3    H126301   6.759   2.753  16.510  0.2976  0.5499 -1.6860
  702TIP3    H226302   6.662   2.859  16.461  0.2108  2.2881  1.9296
  703TIP3   OH226303   1.659   3.672  19.153 -0.1279 -0.1481  0.3769
  703TIP3    H126304   1.569   3.698  19.171  0.2912  0.3148  1.9670
  703TIP3    H226305   1.704   3.754  19.133 -0.4281 -0.5608 -2.5227
  704TIP3   OH226306   1.026   3.373  17.631 -0.7382 -0.3608 -0.2345
  704TIP3    H126307   0.987   3.454  17.597  0.7521  0.4513 -0.0637
  704TIP3    H226308   0.951   3.325  17.668 -1.5948  1.1682  0.1358
  705TIP3   OH226309   6.333   0.772  19.080  0.7753 -0.2254  0.1892
  705TIP3    H126310   6.325   0.867  19.089  0.4656 -0.1624 -0.6973
  705TIP3    H226311   6.395   0.747  19.149  1.5325  0.7325 -0.1141
  706TIP3   OH226312   5.672   0.862  19.050  0.1293 -0.2560  1.0499
  706TIP3    H126313   5.644   0.800  19.118  0.9043 -0.1965  1.4461
  706TIP3    H226314   5.748   0.905  19.088  0.0562  0.3952  0.4689
  707TIP3   OH226315   5.735   2.098  18.393 -0.2256 -0.1119  0.3710
  707TIP3    H126316   5.780   2.159  18.451  0.5684 -0.7067  0.4106
  707TIP3    H226317   5.801   2.031  18.374 -0.7196 -0.3381 -0.5920
  708TIP3   OH226318   0.500   3.793  18.007  0.1517 -0.3961  0.3652
  708TIP3    H126319   0.419   3.747  18.026 -0.1178  0.2348  0.7900
  708TIP3    H226320   0.542   3.803  18.092  0.1916  0.1601  0.2823
  709TIP3   OH226321   1.480   1.315  17.744  0.5222 -0.2910 -0.4172
  709TIP3    H126322   1.403   1.298  17.689  0.4133  2.0178 -1.0895
  709TIP3    H226323   1.487   1.237  17.799 -2.5786 -0.4208 -0.0050
  710TIP3   OH226324   5.186   3.248  18.052  0.0515  0.9246 -0.5764
  710TIP3    H126325   5.138   3.199  17.985  0.9786 -1.3135  0.2906
  710TIP3    H226326   5.129   3.320  18.075 -2.9064 -1.4628  0.2455
  711TIP3   OH226327   6.646   3.982  19.183 -0.1578  0.2894 -0.5860
  711TIP3    H126328   6.585   3.956  19.252 -1.5341 -1.7451 -2.4433
  711TIP3    H226329   6.640   4.078  19.181 -2.2599  0.2357  0.2288
  712TIP3   OH226330   5.149   1.559  15.842 -0.0380 -0.8388  0.0311
  712TIP3    H126331   5.178   1.544  15.932 -0.9533  0.0583  0.5005
  712TIP3    H226332   5.058   1.588  15.850  0.2768  0.5802 -1.0712
  713TIP3   OH226333   5.713   4.917  17.217  0.0263  0.3339  0.7633
  713TIP3    H126334   5.719   4.822  17.219  0.1673  0.3514  1.5566
  713TIP3    H226335   5.658   4.936  17.142  1.1842 -0.3073 -0.2830
  714TIP3   OH226336   6.226   2.036  18.875 -0.1706  0.0675 -0.1393
  714TIP3    H126337   6.315   2.070  18.869 -0.5658  1.3704  0.9111
  714TIP3    H226338   6.175   2.088  18.812 -0.4437  0.2242  0.2071
  715TIP3   OH226339   4.732   0.920  17.578 -0.0149  0.3277 -0.5799
  715TIP3    H126340   4.648   0.888  17.545  0.1902 -1.5939  0.6003
  715TIP3    H226341   4.797   0.862  17.539  0.5228  0.2092  0.4612
  716TIP3   OH226342   2.915   6.217  16.428  0.3177  0.3327 -0.4724
  716TIP3    H126343   2.857   6.294  16.430 -1.7944 -1.1935  1.0367
  716TIP3    H226344   2.880   6.163  16.357  1.6574  0.6003 -1.3780
  717TIP3   OH226345   6.300   3.166  19.417 -0.1895 -0.1975  0.3263
  717TIP3    H126346   6.276   3.257  19.432 -0.5884  0.0517 -1.5589
  717TIP3    H226347   6.391   3.160  19.446 -0.1332  0.8194  0.3997
  718TIP3   OH226348   5.677   5.515  18.193 -0.4407 -1.0360 -0.2472
  718TIP3    H126349   5.688   5.598  18.238  1.1547 -1.2451 -0.1767
  718TIP3    H226350   5.595   5.480  18.225 -1.1468  0.5095 -0.2914
  719TIP3   OH226351   3.585   0.308  16.328 -0.0950 -0.6542  0.0086
  719TIP3    H126352   3.503   0.261  16.311  0.3005 -1.3706  0.0442
  719TIP3    H226353   3.567   0.398  16.301 -0.2721 -1.2127 -1.9041
  720TIP3   OH226354   1.893   3.896  17.788  0.5067 -0.2104  0.3935
  720TIP3    H126355   1.841   3.879  17.709  1.3106 -1.6072  0.1340
  720TIP3    H226356   1.984   3.892  17.758  0.8454 -1.5418  1.5133
  721TIP3   OH226357   3.284   2.345  19.220  0.4177 -0.7769 -0.2944
  721TIP3    H126358   3.224   2.397  19.167  1.1922  1.5914  0.9968
  721TIP3    H226359   3.228   2.281  19.264 -0.7474 -0.3754 -1.1545
  722TIP3   OH226360   1.133   6.404  16.550  0.0610  0.0602 -0.2907
  722TIP3    H126361   1.078   6.419  16.627 -0.4199 -0.7864 -0.4506
  722TIP3    H226362   1.083   6.342  16.497  1.5894 -1.5973  0.0735
  723TIP3   OH226363   3.937   3.466  18.700 -0.0079 -0.3155 -0.4365
  723TIP3    H126364   3.987   3.400  18.747 -0.0434 -0.5122 -0.6746
  723TIP3    H226365   4.004   3.521  18.658  0.0189 -0.2682 -0.3313
  724TIP3   OH226366   3.619   4.677  16.707  0.0275 -0.0497  0.0169
  724TIP3    H126367   3.635   4.583  16.695 -1.5170 -0.4907  1.0684
  724TIP3    H226368   3.653   4.718  16.627  1.1370 -1.4389 -0.2579
  725TIP3   OH226369   2.247   6.247  18.362  0.1686  0.2776 -0.0694
  725TIP3    H126370   2.266   6.155  18.345  0.7108  0.6506 -1.6023
  725TIP3    H226371   2.158   6.247  18.397  0.4163 -0.8703  0.6341
  726TIP3   OH226372   0.656   6.495  16.969  0.5162  0.0854  0.2074
  726TIP3    H126373   0.605   6.562  16.924 -0.2589 -1.1470 -0.8594
  726TIP3    H226374   0.672   6.530  17.056 -0.3262  1.4111 -0.1458
  727TIP3   OH226375   3.205   6.330  16.383 -0.0639 -0.0302 -0.2972
  727TIP3    H126376   3.112   6.352  16.391 -0.2392 -0.6387 -0.6824
  727TIP3    H226377   3.241   6.400  16.329 -0.2748  0.2629 -0.0636
  728TIP3   OH226378   1.113   5.640  16.001 -0.3250 -0.4316  0.0833
  728TIP3    H126379   1.039   5.587  15.972 -0.6334  0.0407 -0.0013
  728TIP3    H226380   1.079   5.689  16.076  0.0374 -0.5553  0.3281
  729TIP3   OH226381   5.976   2.967  18.841  0.0022  0.7373 -0.4230
  729TIP3    H126382   5.954   3.060  18.830  0.8538  1.0506  0.3484
  729TIP3    H226383   6.020   2.963  18.926  0.8323 -0.2086 -0.8699
  730TIP3   OH226384   6.269   3.286  18.167  0.4542  0.3874  0.4274
  730TIP3    H126385   6.246   3.194  18.155  0.5886  0.3471  0.4906
  730TIP3    H226386   6.250   3.326  18.082 -1.0204  0.5923  0.8152
  731TIP3   OH226387   1.155   3.752  17.183 -0.2906 -0.3931 -0.2461
  731TIP3    H126388   1.209   3.757  17.104  0.3837  1.0472  0.2628
  731TIP3    H226389   1.209   3.703  17.245 -1.0179 -1.9518 -0.7848
  732TIP3   OH226390   6.311   1.501  18.078 -0.1419 -0.0984 -0.2148
  732TIP3    H126391   6.263   1.424  18.048 -1.8454  0.6493  0.4363
  732TIP3    H226392   6.403   1.480  18.062 -0.7416 -0.9912 -2.9604
  733TIP3   OH226393   0.716   2.055  16.494 -0.9089  0.0649  0.4401
  733TIP3    H126394   0.736   2.131  16.439  0.7293  0.4432  1.4940
  733TIP3    H226395   0.726   1.980  16.436 -1.4112  0.5750 -0.3264
  734TIP3   OH226396   4.871   4.196  17.829  0.0858  0.5617  0.0927
  734TIP3    H126397   4.803   4.148  17.875 -1.1962  1.7990 -0.4411
  734TIP3    H226398   4.902   4.261  17.892 -0.2395  0.9334 -0.1293
  735TIP3   OH226399   1.264   3.756  18.663  0.0823  0.2602  0.0611
  735TIP3    H126400   1.188   3.700  18.651  1.5191 -1.6302 -0.7333
  735TIP3    H226401   1.328   3.725  18.599  0.8710  3.0604 -0.6574
  736TIP3   OH226402   3.256   4.782  16.649 -0.1727  0.5287  0.2590
  736TIP3    H126403   3.314   4.723  16.601  0.4127  1.5518 -0.3236
  736TIP3    H226404   3.315   4.830  16.707 -0.8460 -0.5762  1.9274
  737TIP3   OH226405   2.689   0.290  18.877 -0.1494  0.1834 -0.4099
  737TIP3    H126406   2.772   0.247  18.860 -0.8245 -1.7542  0.8798
  737TIP3    H226407   2.691   0.369  18.823  2.4952  0.1810 -0.4163
  738TIP3   OH226408   5.182   5.423  19.435  0.0254 -0.0449 -0.3876
  738TIP3    H126409   5.105   5.438  19.490 -0.6886 -0.3957 -1.2693
  738TIP3    H226410   5.225   5.347  19.473  0.8811  1.1150  1.0976
  739TIP3   OH226411   2.667   3.704  18.405  0.0659 -0.4748 -0.6732
  739TIP3    H126412   2.661   3.610  18.388  1.2472 -0.5214 -0.9802
  739TIP3    H226413   2.732   3.736  18.342 -0.7015  0.6533 -0.9352
  740TIP3   OH226414   1.960   1.721  17.393 -0.1294  0.1119 -0.0952
  740TIP3    H126415   2.050   1.700  17.418  0.2970  1.3975 -0.4748
  740TIP3    H226416   1.907   1.691  17.467  0.6245 -0.5244  0.1953
  741TIP3   OH226417   6.038   0.858  16.907 -0.1314  0.1351  0.1374
  741TIP3    H126418   6.082   0.828  16.827  0.9458 -0.0322  0.7709
  741TIP3    H226419   6.046   0.953  16.904 -2.4401  0.3658 -1.2448
  742TIP3   OH226420   3.371   0.136  18.915 -0.2737  0.0954  0.3026
  742TIP3    H126421   3.449   0.168  18.871  0.3603 -0.4700  0.9832
  742TIP3    H226422   3.298   0.167  18.861  0.4060  0.7791 -0.2434
  743TIP3   OH226423   4.669   1.259  18.203  0.1043  0.4712  0.4967
  743TIP3    H126424   4.593   1.202  18.213  0.3080  0.3270  1.3341
  743TIP3    H226425   4.719   1.248  18.285 -0.6318  2.9802  1.3904
  744TIP3   OH226426   3.918   2.336  19.110 -0.3669 -0.3316  0.3057
  744TIP3    H126427   3.929   2.245  19.140 -0.1658  0.3442  2.4379
  744TIP3    H226428   3.882   2.382  19.185 -0.1484  1.4549 -0.6279
  745TIP3   OH226429   1.438   6.653  16.701  0.1815  0.1653  0.3345
  745TIP3    H126430   1.516   6.681  16.749  2.2560 -2.3645 -1.2851
  745TIP3    H226431   1.395   6.591  16.759  3.0262 -3.3816 -0.9938
  746TIP3   OH226432   5.246   0.721  16.952  0.2003 -0.8982 -0.8451
  746TIP3    H126433   5.272   0.682  16.869  0.4493 -0.4758 -0.9725
  746TIP3    H226434   5.153   0.699  16.961  0.0358 -0.5007 -1.4993
  747TIP3   OH226435   1.473   2.275  17.607 -0.2649  0.2505 -0.7608
  747TIP3    H126436   1.484   2.276  17.511 -0.9393 -0.3604 -0.8558
  747TIP3    H226437   1.534   2.207  17.637  1.0085  1.4338 -0.5946
  748TIP3   OH226438   1.221   0.433  18.696 -0.0577  0.5826 -0.1657
  748TIP3    H126439   1.264   0.355  18.662  1.7364  1.2559  0.4104
  748TIP3    H226440   1.217   0.418  18.791  0.0426  1.0642 -0.0850
  749TIP3   OH226441   6.589   3.658  17.137 -0.9830 -0.2557  0.0070
  749TIP3    H126442   6.629   3.678  17.222 -1.1268 -1.3666  0.3456
  749TIP3    H226443   6.547   3.574  17.150 -1.8297  0.0171 -0.9036
  750TIP3   OH226444   4.452   5.121  16.633 -0.5225  0.4435  0.4741
  750TIP3    H126445   4.421   5.207  16.604 -1.1415 -0.1415 -0.6429
  750TIP3    H226446   4.383   5.060  16.606  0.6726 -0.6269 -0.2405
  751TIP3   OH226447   6.167   5.054  15.964 -0.3112 -0.8329  0.5218
  751TIP3    H126448   6.222   5.033  16.039 -1.2108 -1.4945  1.0103
  751TIP3    H226449   6.092   4.994  15.971 -2.5066  1.8284  1.4304
  752TIP3   OH226450   5.960   6.279  16.738  0.1290 -0.1095  0.0519
  752TIP3    H126451   5.914   6.323  16.667 -2.3290 -0.4755  1.3152
  752TIP3    H226452   5.913   6.196  16.749  0.1030  0.1740  2.4475
  753TIP3   OH226453   0.732   0.419  17.361 -0.0727  0.6942 -0.5516
  753TIP3    H126454   0.670   0.453  17.297  0.0792 -1.3989 -1.9083
  753TIP3    H226455   0.816   0.417  17.315  0.9018  2.7708  1.0140
  754TIP3   OH226456   6.049   0.131  17.391 -0.3508 -0.0562 -0.2593
  754TIP3    H126457   6.017   0.060  17.336  0.9292 -0.6320 -0.3163
  754TIP3    H226458   6.107   0.088  17.454 -1.0797  0.7088  0.9726
  755TIP3   OH226459   5.150   4.083  18.059 -0.6198 -0.6404 -0.3511
  755TIP3    H126460   5.243   4.094  18.080 -0.9200 -1.7080  1.8540
  755TIP3    H226461   5.118   4.172  18.045  0.9670 -0.3381 -2.5516
  756TIP3   OH226462   1.165   0.767  18.304 -0.2096 -0.1708  0.1331
  756TIP3    H126463   1.126   0.681  18.317 -0.9452 -0.0512 -1.1775
  756TIP3    H226464   1.090   0.827  18.301  0.1448  0.2452 -0.9546
  757TIP3   OH226465   3.890   1.869  18.934  0.1967  0.4077 -0.5246
  757TIP3    H126466   3.810   1.892  18.888 -0.1629 -0.4871 -0.3592
  757TIP3    H226467   3.919   1.788  18.893  0.2863  0.0073  0.3040
  758TIP3   OH226468   1.740   4.142  17.557 -0.0801  0.1845 -0.4401
  758TIP3    H126469   1.708   4.163  17.644 -0.1900 -0.2902 -0.3627
  758TIP3    H226470   1.711   4.052  17.542 -0.9762  0.6171 -1.3868
  759TIP3   OH226471   2.302   2.219  18.324  0.1566  0.0458  0.4513
  759TIP3    H126472   2.209   2.210  18.304  0.4529 -0.7040 -0.6948
  759TIP3    H226473   2.328   2.133  18.358  0.6274 -0.0546 -0.1376
  760TIP3   OH226474   5.930   4.451  16.028 -0.5881  0.1721 -0.0500
  760TIP3    H126475   5.877   4.498  16.093  0.6096  0.8179  0.4818
  760TIP3    H226476   6.001   4.511  16.007  0.4095 -0.9989 -0.1123
  761TIP3   OH226477   2.474   0.005  16.611  0.1280  0.3937  0.2271
  761TIP3    H126478   2.522   0.041  16.686  0.3572 -1.6218  1.1107
  761TIP3    H226479   2.493  -0.088  16.614 -0.1026  0.2201 -2.2005
  762TIP3   OH226480   5.682   5.893  17.953  0.0221  0.1141 -0.0653
  762TIP3    H126481   5.620   5.848  17.896  0.6429 -0.7849 -0.0564
  762TIP3    H226482   5.724   5.959  17.897  1.4646 -1.5230 -1.0087
  763TIP3   OH226483   4.459   0.763  18.157 -0.0925 -0.3707  0.1947
  763TIP3    H126484   4.408   0.721  18.226 -0.7322  0.6968  0.3986
  763TIP3    H226485   4.534   0.802  18.202 -0.0655 -0.3861  0.1637
  764TIP3   OH226486   2.761   0.291  17.426 -0.2745  0.1653  0.0414
  764TIP3    H126487   2.738   0.329  17.341 -1.2112 -0.7689 -0.1373
  764TIP3    H226488   2.824   0.222  17.405 -0.1020  0.2848  0.1647
  765TIP3   OH226489   4.366   6.294  19.292 -0.3446 -0.0300  0.4365
  765TIP3    H126490   4.350   6.225  19.356 -1.0000 -1.1221 -0.8530
  765TIP3    H226491   4.412   6.250  19.221  1.5435  1.4369  0.6728
  766TIP3   OH226492   5.577   4.899  18.618  0.6220  0.1747 -0.5493
  766TIP3    H126493   5.654   4.946  18.586  1.5348 -1.0875 -0.2952
  766TIP3    H226494   5.505   4.961  18.608  1.3775  0.8428 -2.3180
  767TIP3   OH226495   3.834   4.129  16.359 -0.1183  0.1453  0.1031
  767TIP3    H126496   3.875   4.043  16.349  1.0877  0.7597 -0.2956
  767TIP3    H226497   3.740   4.111  16.347  0.3380 -0.6110 -3.4759
  768TIP3   OH226498   5.449   5.187  16.929  1.1587 -0.1194  0.2792
  768TIP3    H126499   5.517   5.243  16.967  1.0976  0.9073 -1.0310
  768TIP3    H226500   5.392   5.248  16.882 -1.6005 -0.7496  2.5569
  769TIP3   OH226501   3.683   4.340  18.552 -0.5945  0.2559 -0.0401
  769TIP3    H126502   3.687   4.383  18.467  0.5642  2.1574  0.9160
  769TIP3    H226503   3.770   4.302  18.564 -0.9973 -0.6866 -0.0164
  770TIP3   OH226504   0.556   4.089  17.904 -0.1842  0.2843 -0.2899
  770TIP3    H126505   0.501   4.062  17.977 -0.1936 -2.0348 -1.0877
  770TIP3    H226506   0.497   4.093  17.829  0.2834  0.2677 -0.6625
  771TIP3   OH226507   6.299   0.634  18.857  0.1302  0.8497 -0.4425
  771TIP3    H126508   6.387   0.621  18.823 -0.3123  0.4755 -1.4854
  771TIP3    H226509   6.310   0.696  18.929  1.0724  1.8161 -1.3822
  772TIP3   OH226510   6.535   1.986  16.487  0.1147  0.2651 -0.2008
  772TIP3    H126511   6.509   1.978  16.579 -1.2257 -0.2189 -0.6006
  772TIP3    H226512   6.495   1.911  16.444 -0.3403  1.1799 -1.4223
  773TIP3   OH226513   6.540   3.241  18.110  0.1052 -0.1701 -0.8443
  773TIP3    H126514   6.449   3.259  18.084 -0.3929 -1.4642 -0.1056
  773TIP3    H226515   6.546   3.274  18.200 -0.1640 -1.5606 -0.2856
  774TIP3   OH226516   1.419   1.634  19.863  0.0763 -0.2916  0.1277
  774TIP3    H126517   1.326   1.656  19.871 -0.0695 -0.1852 -1.5623
  774TIP3    H226518   1.460   1.718  19.841  0.2169 -0.7295 -1.4083
  775TIP3   OH226519   0.205   2.318  17.091  0.2431  0.6978  0.0187
  775TIP3    H126520   0.146   2.335  17.165  0.7312 -1.9220  1.1232
  775TIP3    H226521   0.155   2.259  17.034  1.0484  0.0255 -0.0109
  776TIP3   OH226522   3.637   2.860  18.461  0.2976 -0.1116  0.4720
  776TIP3    H126523   3.672   2.813  18.536 -0.9876 -0.2732  0.9917
  776TIP3    H226524   3.550   2.822  18.447  0.5135 -0.0960 -1.1036
  777TIP3   OH226525   0.271   0.641  19.262 -0.2944  0.4292  0.5085
  777TIP3    H126526   0.267   0.725  19.215  1.8882  1.9694  2.8405
  777TIP3    H226527   0.179   0.617  19.274 -0.9776  2.1789 -0.7344
  778TIP3   OH226528   3.144   6.546  18.328 -0.0376 -0.3687  0.0532
  778TIP3    H126529   3.168   6.623  18.380 -1.8414 -1.1321  2.1621
  778TIP3    H226530   3.049   6.554  18.315  0.1908 -0.7166 -2.3907
  779TIP3   OH226531   4.837   5.766  16.103 -0.4153  0.2155 -0.8160
  779TIP3    H126532   4.855   5.691  16.046 -0.1343 -1.4534  1.3532
  779TIP3    H226533   4.768   5.815  16.057 -0.1698 -1.0020 -2.5764
  780TIP3   OH226534   0.581   4.614  17.054 -0.2664  0.0003 -0.3721
  780TIP3    H126535   0.644   4.554  17.015 -0.6843 -0.7664  0.1252
  780TIP3    H226536   0.629   4.696  17.063  0.6834 -0.5891  0.0538
  781TIP3   OH226537   4.486   2.513  17.412  0.1827  0.3238  0.2877
  781TIP3    H126538   4.451   2.426  17.430 -1.5077  0.8099 -0.4089
  781TIP3    H226539   4.510   2.548  17.498  0.6661 -0.7345  0.5926
  782TIP3   OH226540   5.288   2.985  18.885  0.2219 -0.0961 -0.2939
  782TIP3    H126541   5.195   2.993  18.908  0.3049  1.8029 -0.4745
  782TIP3    H226542   5.288   2.935  18.803 -0.6744  0.2595 -0.5236
  783TIP3   OH226543   1.647   5.466  19.327 -0.8161 -0.2188  0.2467
  783TIP3    H126544   1.690   5.428  19.403 -1.1842 -0.2918  0.4195
  783TIP3    H226545   1.620   5.391  19.275 -0.6068 -0.1700  0.0628
  784TIP3   OH226546   2.115   3.059  16.586 -0.4499 -0.2885  0.4740
  784TIP3    H126547   2.032   3.016  16.563 -0.9927  1.4046 -0.9409
  784TIP3    H226548   2.091   3.126  16.650 -0.1821  0.1776  0.0961
  785TIP3   OH226549   2.550   0.908  17.739 -0.1848 -0.6843  0.2978
  785TIP3    H126550   2.488   0.846  17.778 -0.2761 -1.7971 -1.4699
  785TIP3    H226551   2.512   0.929  17.654  0.5240  0.7932  0.3161
  786TIP3   OH226552   5.951   3.709  16.753  0.7763 -0.5424 -0.3671
  786TIP3    H126553   6.013   3.649  16.796  0.1523  0.2485  1.7498
  786TIP3    H226554   5.927   3.772  16.821  0.9921  1.8413 -2.3488
  787TIP3   OH226555   6.370   2.035  18.560 -0.0219 -0.3766  0.3470
  787TIP3    H126556   6.428   1.970  18.598  0.3629 -0.2097  0.0503
  787TIP3    H226557   6.303   1.984  18.515  1.5238 -0.6113 -1.8270
  788TIP3   OH226558   3.068   3.327  18.507 -0.2152  0.2768 -0.4018
  788TIP3    H126559   2.991   3.382  18.495 -0.5828 -0.2400 -0.4288
  788TIP3    H226560   3.054   3.283  18.592  0.1625  0.3687 -0.2874
  789TIP3   OH226561   0.467   4.352  17.715  0.3867  0.2445 -0.6079
  789TIP3    H126562   0.506   4.407  17.647 -1.6786  1.3185 -0.9942
  789TIP3    H226563   0.430   4.277  17.668  0.6328 -0.0014 -0.4189
  790TIP3   OH226564   1.837   5.124  16.101 -0.4187  0.5852  0.5652
  790TIP3    H126565   1.927   5.157  16.110 -0.1361 -0.6087  3.4253
  790TIP3    H226566   1.847   5.029  16.107 -1.7729  0.3257 -0.8104
  791TIP3   OH226567   3.951   5.723  17.849  0.5155  0.1322  0.3267
  791TIP3    H126568   3.917   5.798  17.899 -1.1424  1.2493 -2.2625
  791TIP3    H226569   3.933   5.745  17.758 -0.6839 -3.7182 -0.5357
  792TIP3   OH226570   2.899   0.933  18.538  0.8509 -0.5862  1.0084
  792TIP3    H126571   2.960   0.887  18.595  0.9335 -1.1556  0.4650
  792TIP3    H226572   2.945   0.942  18.455  0.2953 -0.7888  0.6710
  793TIP3   OH226573   1.656   5.558  17.979  0.0556 -0.2369  0.2991
  793TIP3    H126574   1.572   5.553  17.933 -0.1787  0.3318  0.6499
  793TIP3    H226575   1.686   5.648  17.963  0.6608 -0.4715  0.0739
  794TIP3   OH226576   1.279   2.433  17.424 -0.0175  0.0334  0.6757
  794TIP3    H126577   1.266   2.366  17.356  2.1988 -0.2855  0.4629
  794TIP3    H226578   1.342   2.393  17.484 -0.3342  1.1229  1.7564
  795TIP3   OH226579   3.209   2.353  18.690 -0.0014 -0.0297 -0.6169
  795TIP3    H126580   3.149   2.417  18.729 -0.0505 -0.2576 -0.3152
  795TIP3    H226581   3.182   2.269  18.726  0.5261 -0.1309 -0.4465
  796TIP3   OH226582   5.002   5.462  16.776  0.1717 -0.6569  0.6136
  796TIP3    H126583   5.060   5.402  16.730 -0.1752 -0.0950 -0.6160
  796TIP3    H226584   5.039   5.549  16.760  0.0358 -0.4431  1.4034
  797TIP3   OH226585   3.136   0.540  16.533 -0.3841 -0.0993  0.4567
  797TIP3    H126586   3.094   0.456  16.549 -0.0348  0.0158  2.1484
  797TIP3    H226587   3.172   0.533  16.444  0.0161 -1.8857  0.7305
  798TIP3   OH226588   2.872   0.507  16.773  0.3407  0.5292  0.3784
  798TIP3    H126589   2.849   0.455  16.696  0.6661  1.5795 -0.4496
  798TIP3    H226590   2.915   0.445  16.831 -2.9112 -1.1375  1.2684
  799TIP3   OH226591   3.108   2.520  19.523 -0.3297 -0.1193 -0.3487
  799TIP3    H126592   3.167   2.445  19.518 -0.8118 -0.6095  0.9782
  799TIP3    H226593   3.150   2.581  19.583 -1.0060 -0.3316  0.3557
  800TIP3   OH226594   1.185   2.208  18.019  0.3200 -0.0473  0.6116
  800TIP3    H126595   1.200   2.114  18.011 -2.3610 -0.7140  2.0861
  800TIP3    H226596   1.195   2.226  18.113 -2.2673  0.4172  0.8674
  801TIP3   OH226597   0.630   2.850  16.879  0.3507 -0.1020  0.6831
  801TIP3    H126598   0.681   2.841  16.799 -2.5630  1.1787 -1.5369
  801TIP3    H226599   0.628   2.762  16.917  1.5067 -0.8386 -0.8764
  802TIP3   OH226600   3.594   1.655  17.299  0.0437 -0.5889 -0.2739
  802TIP3    H126601   3.517   1.700  17.333 -1.0491  0.4840 -3.7795
  802TIP3    H226602   3.668   1.710  17.326 -0.9219  1.2213 -1.1573
  803TIP3   OH226603   3.518   5.893  18.031  1.0282  0.0414  0.3065
  803TIP3    H126604   3.574   5.969  18.044  0.6703  0.5073 -0.7750
  803TIP3    H226605   3.429   5.929  18.031  0.8060 -0.4988  0.6443
  804TIP3   OH226606   2.175   4.794  16.663 -0.1837  0.2094 -0.4467
  804TIP3    H126607   2.113   4.854  16.622  0.2479  0.7820 -0.2847
  804TIP3    H226608   2.246   4.787  16.599  0.1050  0.4544 -0.1588
  805TIP3   OH226609   4.502   3.765  18.867  0.7552  0.2850  0.1489
  805TIP3    H126610   4.445   3.724  18.802  0.4902  0.7743  0.0705
  805TIP3    H226611   4.591   3.748  18.835  0.6717 -0.7947  0.4638
  806TIP3   OH226612   3.654   4.409  17.604 -0.0640  0.2368 -0.1782
  806TIP3    H126613   3.577   4.359  17.629  0.6176 -0.6793  0.1007
  806TIP3    H226614   3.652   4.409  17.508 -0.3960  0.2067 -0.1727
  807TIP3   OH226615   1.798   1.263  16.677 -0.3341 -0.4284  0.3467
  807TIP3    H126616   1.827   1.211  16.752  0.0731 -0.8557 -0.1024
  807TIP3    H226617   1.704   1.271  16.689 -0.2228 -0.1200  1.1383
  808TIP3   OH226618   0.878   2.548  17.629  0.2630  0.0133 -0.9308
  808TIP3    H126619   0.953   2.591  17.669 -1.5120  2.9569 -0.5071
  808TIP3    H226620   0.850   2.484  17.694  0.3577  1.3245  0.4667
  809TIP3   OH226621   6.146   0.556  18.180 -0.1726 -0.2851  0.3006
  809TIP3    H126622   6.179   0.520  18.098 -3.0200 -2.5032 -0.0594
  809TIP3    H226623   6.065   0.602  18.155  0.2468  1.2422  1.5823
  810TIP3   OH226624   3.514   0.940  16.972  0.1790 -0.0108 -0.1659
  810TIP3    H126625   3.487   0.854  17.006  3.7621 -1.0486  0.4670
  810TIP3    H226626   3.457   1.002  17.017 -0.9867 -1.8950  1.1365
  811TIP3   OH226627   4.890   2.079  18.782 -0.3908 -0.0759 -0.0758
  811TIP3    H126628   4.846   2.136  18.719  0.9607  2.3967  1.0262
  811TIP3    H226629   4.954   2.137  18.825 -0.0743 -2.0522  2.3441
  812TIP3   OH226630   3.280   3.318  18.231  0.1629 -0.0289  0.0550
  812TIP3    H126631   3.226   3.394  18.253  0.2052 -0.3469  1.3679
  812TIP3    H226632   3.339   3.308  18.306  0.0223 -1.4671 -0.0000
  813TIP3   OH226633   4.856   6.025  16.939  0.2352  0.7341 -0.3286
  813TIP3    H126634   4.927   6.066  16.890  0.2981 -1.0519 -1.8316
  813TIP3    H226635   4.892   5.941  16.968 -1.2798 -0.3032 -1.3046
  814TIP3   OH226636   6.567   5.559  15.571  0.0302  0.0971  0.2628
  814TIP3    H126637   6.587   5.465  15.565 -1.3766 -0.1781 -0.6847
  814TIP3    H226638   6.633   5.601  15.516  0.8935 -0.2786  0.9761
  815TIP3   OH226639   5.367   2.222  18.486  0.3800  0.7815 -0.7494
  815TIP3    H126640   5.424   2.297  18.505  2.1155  0.0185 -2.5923
  815TIP3    H226641   5.283   2.246  18.524  1.4940  2.6580  0.7119
  816TIP3   OH226642   2.314   2.085  17.894  0.3305 -0.3048  0.5905
  816TIP3    H126643   2.388   2.026  17.880  1.0394  0.2024  2.0359
  816TIP3    H226644   2.274   2.055  17.975 -1.3874 -0.8743 -0.4151
  817TIP3   OH226645   1.665   2.416  16.999  0.1086  0.1510 -0.3621
  817TIP3    H126646   1.606   2.342  17.013 -1.2994  1.5044  1.3610
  817TIP3    H226647   1.737   2.401  17.061 -0.4150  0.4252  0.3301
  818TIP3   OH226648   2.665   4.354  18.383 -1.0596  0.3127 -0.2953
  818TIP3    H126649   2.632   4.348  18.293  0.4172 -2.3098 -0.7590
  818TIP3    H226650   2.712   4.437  18.386 -0.1827 -0.0534 -2.3445
  819TIP3   OH226651   2.117   6.752  18.123 -0.1265  0.2478  0.5523
  819TIP3    H126652   2.076   6.797  18.197  0.1518  1.1656  0.1610
  819TIP3    H226653   2.210   6.773  18.131  0.0006 -0.2204  0.3268
  820TIP3   OH226654   2.794   4.928  17.513 -0.1419  0.2230 -0.2409
  820TIP3    H126655   2.744   4.913  17.433 -1.4450 -0.2422  0.6181
  820TIP3    H226656   2.876   4.880  17.499 -1.2335 -1.7132 -0.4890
  821TIP3   OH226657   1.182   4.687  15.788 -0.5455  0.6924 -0.2115
  821TIP3    H126658   1.219   4.729  15.865  0.7901 -0.5415 -0.1402
  821TIP3    H226659   1.169   4.596  15.814 -0.1382  0.2747 -1.4075
  822TIP3   OH226660   6.162   2.491  19.223 -0.5504 -0.5161 -0.1947
  822TIP3    H126661   6.175   2.570  19.172 -0.8575 -0.6439 -0.4736
  822TIP3    H226662   6.231   2.431  19.193 -0.9049 -0.6935 -0.6688
  823TIP3   OH226663   1.946   5.604  16.834  0.4051  0.2343  0.0888
  823TIP3    H126664   1.982   5.578  16.919  0.8658 -0.9377 -0.4478
  823TIP3    H226665   1.996   5.553  16.770  0.1245  1.1585 -0.9032
  824TIP3   OH226666   6.019   5.323  16.285  0.1440  0.2661 -0.1128
  824TIP3    H126667   5.972   5.253  16.329 -0.1794 -1.1252 -2.5115
  824TIP3    H226668   5.951   5.377  16.246  0.3368  2.5510  2.4236
  825TIP3   OH226669   3.319   4.858  16.390 -0.5790 -0.2799  0.1269
  825TIP3    H126670   3.274   4.797  16.331 -1.9213  1.3265 -0.5908
  825TIP3    H226671   3.265   4.858  16.470 -0.4167 -0.2473  0.2370
  826TIP3   OH226672   4.605   3.517  17.479 -0.0391 -0.4523  0.5031
  826TIP3    H126673   4.614   3.470  17.396 -1.2690 -0.5876  0.4261
  826TIP3    H226674   4.552   3.594  17.457  0.5649  0.1117  0.9569
  827TIP3   OH226675   1.138   6.099  15.686 -0.5801  0.5635  1.0042
  827TIP3    H126676   1.091   6.146  15.755  0.9180  0.1826  2.3561
  827TIP3    H226677   1.070   6.060  15.632 -1.8091  1.6455  1.7224
  828TIP3   OH226678   3.418   5.092  19.247 -0.5752 -0.1320  0.4105
  828TIP3    H126679   3.401   5.013  19.195 -1.0832  0.7622 -0.8165
  828TIP3    H226680   3.442   5.058  19.334 -0.9410 -1.6290 -0.0385
  829TIP3   OH226681   5.865   4.669  18.507  0.1643  0.0498 -0.4856
  829TIP3    H126682   5.826   4.602  18.451 -0.9959  0.0071  0.3276
  829TIP3    H226683   5.892   4.738  18.446 -2.2770  0.5908 -1.0636
  830TIP3   OH226684   2.950   4.711  18.191  0.3858  0.0992 -0.0046
  830TIP3    H126685   3.005   4.666  18.126 -0.8769 -1.7633  0.1339
  830TIP3    H226686   3.011   4.764  18.241  2.0970 -1.8300  0.1109
  831TIP3   OH226687   6.263   1.987  17.212  0.4695 -0.4499  0.1021
  831TIP3    H126688   6.256   2.079  17.186  3.1048  0.3870  1.9700
  831TIP3    H226689   6.194   1.975  17.276 -0.6228 -0.1464 -0.9762
  832TIP3   OH226690   1.743   4.651  17.443  0.2706  0.8118  0.0134
  832TIP3    H126691   1.732   4.556  17.450 -0.9635  0.8517 -0.8993
  832TIP3    H226692   1.757   4.681  17.533  0.2903 -0.1970  0.3567
  833TIP3   OH226693   2.469   2.533  16.391 -0.0288  0.4767 -0.1064
  833TIP3    H126694   2.533   2.474  16.351  0.7969 -0.0874  1.9107
  833TIP3    H226695   2.450   2.494  16.476 -1.0063  2.0781  0.4685
  834TIP3   OH226696   1.212   5.000  18.083  0.3623  0.1395 -0.1762
  834TIP3    H126697   1.193   5.003  17.989  2.4864  2.2957 -0.6266
  834TIP3    H226698   1.191   5.087  18.115  0.9683 -0.1489  1.0730
  835TIP3   OH226699   5.940   5.876  18.381  0.3793  0.2003  0.0461
  835TIP3    H126700   5.979   5.789  18.390 -1.5849 -0.5537  1.9045
  835TIP3    H226701   5.936   5.910  18.470 -1.4221  1.0209 -0.3133
  836TIP3   OH226702   2.342   1.336  16.766  0.1417 -0.1111  0.3011
  836TIP3    H126703   2.316   1.303  16.852  0.2855  0.7309  0.6780
  836TIP3    H226704   2.261   1.340  16.716 -0.0072 -0.2169  0.5341
  837TIP3   OH226705   4.459   6.073  18.581 -0.6386  0.2773  0.3190
  837TIP3    H126706   4.434   6.061  18.490  0.3642 -0.1702  0.1009
  837TIP3    H226707   4.554   6.069  18.582 -0.6278  0.3430  1.3778
  838TIP3   OH226708   3.885   3.315  18.451  0.2212  0.2834 -0.2274
  838TIP3    H126709   3.910   3.367  18.528  1.2308 -0.5161  0.0087
  838TIP3    H226710   3.897   3.224  18.479 -1.4950 -0.1016 -0.6330
  839TIP3   OH226711   0.051   4.001  17.106 -0.7393  0.4547  0.1833
  839TIP3    H126712   0.005   4.020  17.024 -1.0904  0.4142  0.3722
  839TIP3    H226713   0.129   3.952  17.078 -1.2984 -0.3103 -0.0570
  840TIP3   OH226714   6.661   3.391  15.706  0.1984 -0.1108  0.3623
  840TIP3    H126715   6.625   3.305  15.686 -1.6182  0.8051 -0.4987
  840TIP3    H226716   6.588   3.452  15.693  1.7318  1.7052 -0.2255
  841TIP3   OH226717   0.251   5.699  16.371  0.2816  0.0714 -0.1593
  841TIP3    H126718   0.181   5.762  16.389  1.0072  0.9367 -0.2629
  841TIP3    H226719   0.327   5.733  16.418  1.3435  0.6309 -2.1730
  842TIP3   OH226720   6.364   5.764  15.524  0.3362  0.2354  0.0234
  842TIP3    H126721   6.446   5.812  15.523 -0.5255  1.9766  2.4643
  842TIP3    H226722   6.388   5.676  15.551  1.6794 -0.1820 -2.2636
  843TIP3   OH226723   1.680   6.626  18.015 -0.2600 -0.4171  0.2311
  843TIP3    H126724   1.701   6.720  18.024  0.6672 -0.6319  0.4274
  843TIP3    H226725   1.669   6.614  17.921  0.9096 -0.3508  0.0596
  844TIP3   OH226726   6.460   5.949  18.773  0.4238 -0.3900  0.4015
  844TIP3    H126727   6.393   5.895  18.814  0.1310 -0.6808 -0.4309
  844TIP3    H226728   6.410   6.012  18.720  0.7881 -0.2260  0.2538
  845TIP3   OH226729   6.533   4.934  15.804  0.1397  0.2380 -0.0248
  845TIP3    H126730   6.515   4.847  15.839  0.0609  0.2753  0.0280
  845TIP3    H226731   6.628   4.939  15.800  0.1325 -0.2608 -1.0605
  846TIP3   OH226732   6.562   5.335  16.209  0.1130 -0.1301 -0.5677
  846TIP3    H126733   6.591   5.330  16.118 -0.8781 -2.9673 -0.8144
  846TIP3    H226734   6.479   5.288  16.211  0.0526 -0.0640  1.7975
  847TIP3   OH226735   0.152   4.219  16.119 -0.4081 -0.9707 -0.1093
  847TIP3    H126736   0.234   4.259  16.148  0.4504 -1.3223 -1.9461
  847TIP3    H226737   0.106   4.198  16.201  1.1023 -0.3463  0.9520
  848TIP3   OH226738   3.847   2.456  19.326  0.0342  0.4038  0.5984
  848TIP3    H126739   3.774   2.492  19.275 -1.1104  0.9716  2.5480
  848TIP3    H226740   3.880   2.530  19.376  1.4972 -0.0225  0.3039
  849TIP3   OH226741   6.420   5.405  17.842 -0.0063  0.0559  0.3526
  849TIP3    H126742   6.500   5.357  17.820  0.4120  0.2153  1.4620
  849TIP3    H226743   6.353   5.337  17.851  0.5261 -0.3200  1.6596
  850TIP3   OH226744   2.242   0.192  18.905 -0.4969 -0.0553 -0.0199
  850TIP3    H126745   2.220   0.194  18.998 -1.1357  0.2019 -0.1691
  850TIP3    H226746   2.317   0.133  18.899 -0.5936 -0.2504  0.6319
  851TIP3   OH226747   6.627   2.956  17.876  0.5630  0.0388 -0.3916
  851TIP3    H126748   6.547   2.906  17.860  0.1738  1.5323 -3.9433
  851TIP3    H226749   6.697   2.902  17.841  0.7826 -0.0180  0.1169
  852TIP3   OH226750   6.465   3.546  18.584 -0.2601  0.2962 -0.1508
  852TIP3    H126751   6.526   3.617  18.564 -1.1304  1.3870  0.9187
  852TIP3    H226752   6.385   3.590  18.611 -0.2965 -1.0378  2.1964
  853TIP3   OH226753   1.608   6.163  15.760  0.3405 -0.1195  0.2181
  853TIP3    H126754   1.549   6.136  15.690 -0.1129 -1.1548  0.9687
  853TIP3    H226755   1.602   6.258  15.762 -0.8560 -0.1757 -0.1116
  854TIP3   OH226756   0.724   3.415  18.934 -0.1244  0.2430  0.2213
  854TIP3    H126757   0.720   3.437  19.027 -1.4774 -1.1535  0.5297
  854TIP3    H226758   0.739   3.499  18.890  0.0570  0.9913  1.6540
  855TIP3   OH226759   0.806   5.994  18.062  1.0224  0.3009 -0.6798
  855TIP3    H126760   0.897   6.008  18.035  1.4760  2.5136  1.6081
  855TIP3    H226761   0.771   6.082  18.073 -1.2152 -0.5108 -0.7952
  856TIP3   OH226762   5.106   3.321  16.375  0.1112  0.0834  0.6411
  856TIP3    H126763   5.056   3.344  16.453  1.4296  1.0481  1.2471
  856TIP3    H226764   5.125   3.405  16.333 -0.3703 -0.3996 -0.6158
  857TIP3   OH226765   0.130   3.100  18.138 -0.1927 -0.7755 -0.8712
  857TIP3    H126766   0.163   3.143  18.059  1.2426  0.9585  0.5722
  857TIP3    H226767   0.145   3.164  18.208 -0.3882 -2.6570  1.0003
  858TIP3   OH226768   1.552   5.422  17.688 -0.3726  0.2431  0.1794
  858TIP3    H126769   1.501   5.379  17.757 -0.7017  0.3066 -0.0194
  858TIP3    H226770   1.524   5.379  17.608  0.4880 -0.2770  0.1509
  859TIP3   OH226771   0.610   3.180  16.625  0.1703  0.4204 -0.0056
  859TIP3    H126772   0.645   3.269  16.621  1.0556  0.0689 -0.3130
  859TIP3    H226773   0.608   3.160  16.718  1.7151  0.1171 -0.0002
  860TIP3   OH226774   0.420   6.522  16.394 -0.2816  0.3104 -0.1632
  860TIP3    H126775   0.414   6.495  16.303  2.4985 -0.6652 -0.1433
  860TIP3    H226776   0.349   6.475  16.438 -0.2001 -1.0394 -1.4288
  861TIP3   OH226777   0.054   2.171  18.607 -0.2689 -0.0649 -0.8736
  861TIP3    H126778   0.052   2.266  18.592 -1.9009 -0.1626 -1.4912
  861TIP3    H226779   0.004   2.159  18.688 -0.5057 -0.4372 -1.0752
  862TIP3   OH226780   4.349   3.239  18.126 -0.0807 -0.5454  0.2661
  862TIP3    H126781   4.305   3.176  18.069  1.9686 -1.5639 -0.3074
  862TIP3    H226782   4.287   3.255  18.197 -2.4529  0.2684 -1.8575
  863TIP3   OH226783   3.454   6.500  17.736 -0.1050  0.1959 -0.4516
  863TIP3    H126784   3.400   6.435  17.780 -0.7778  1.8152  1.2329
  863TIP3    H226785   3.513   6.533  17.805  0.0749  1.5025 -1.1994
  864TIP3   OH226786   0.734   1.508  17.137  0.2694  0.3160 -0.3718
  864TIP3    H126787   0.687   1.461  17.068  0.7827 -0.1432 -0.4147
  864TIP3    H226788   0.665   1.548  17.190 -0.2227 -1.1064  0.1073
  865TIP3   OH226789   3.791   4.774  17.022 -0.0618  0.2186  0.1087
  865TIP3    H126790   3.869   4.779  16.966 -0.8566  1.4958 -0.9160
  865TIP3    H226791   3.762   4.864  17.031 -1.2160 -0.2098  0.7952
  866TIP3   OH226792   4.119   5.435  18.216  0.0291 -0.0622  0.2458
  866TIP3    H126793   4.052   5.369  18.232 -0.4337  0.6199  1.2268
  866TIP3    H226794   4.151   5.416  18.128 -1.6078 -0.2811 -0.3391
  867TIP3   OH226795   0.661   3.774  19.152 -0.0927  0.1490 -0.4392
  867TIP3    H126796   0.673   3.798  19.060  0.9273 -3.2916 -1.3373
  867TIP3    H226797   0.571   3.743  19.156  0.0079 -0.1365 -0.3947
  868TIP3   OH226798   6.363   5.023  16.807 -0.0053  0.1035  0.2110
  868TIP3    H126799   6.455   5.047  16.820  0.1273 -0.5019  0.4504
  868TIP3    H226800   6.330   5.006  16.896  0.1327 -1.3529  0.0093
  869TIP3   OH226801   3.888   3.781  16.580 -0.4682  0.1556 -0.4189
  869TIP3    H126802   3.827   3.845  16.616  0.5759  1.3880 -0.7455
  869TIP3    H226803   3.928   3.825  16.505  1.5566 -0.1972  0.3754
  870TIP3   OH226804   3.599   2.331  16.480  0.2082  0.1454 -0.1659
  870TIP3    H126805   3.624   2.413  16.437 -0.1689  0.0619 -0.5556
  870TIP3    H226806   3.612   2.264  16.413 -0.9630  0.0899 -0.3599
  871TIP3   OH226807   1.953   5.959  18.833 -0.0455 -0.3573  0.2516
  871TIP3    H126808   2.004   5.992  18.759  0.2867 -0.1034  0.5892
  871TIP3    H226809   1.935   6.036  18.887 -0.7308 -0.4563  0.1745
  872TIP3   OH226810   6.575   4.804  19.059  0.0847 -0.4539  0.3467
  872TIP3    H126811   6.582   4.898  19.071  0.5451 -0.4063 -0.1995
  872TIP3    H226812   6.664   4.777  19.035 -0.3332 -0.7934 -0.9413
  873TIP3   OH226813   6.225   5.490  18.891  0.1998  0.3522  0.2830
  873TIP3    H126814   6.297   5.539  18.930 -0.0952  1.3344 -0.3557
  873TIP3    H226815   6.196   5.431  18.960  0.4844  1.1748  1.1389
  874TIP3   OH226816   6.212   5.068  16.569 -0.0890 -0.1609 -0.3598
  874TIP3    H126817   6.256   5.078  16.653  2.5458  0.6815 -1.7268
  874TIP3    H226818   6.131   5.021  16.590  0.3116  0.2742  2.6446
  875TIP3   OH226819   5.602   2.144  16.416  0.4549  0.0609 -0.1190
  875TIP3    H126820   5.523   2.190  16.388 -0.2386 -1.0054  0.0601
  875TIP3    H226821   5.624   2.086  16.343  0.5918 -0.2500  0.1658
  876TIP3   OH226822   3.521   2.418  19.380 -0.0688  0.4200  0.1228
  876TIP3    H126823   3.546   2.482  19.314 -1.9589  2.1652  0.9797
  876TIP3    H226824   3.439   2.380  19.347 -0.1807  0.1483  0.7008
  877TIP3   OH226825   5.662   0.085  16.017  0.4575 -0.4301  0.3625
  877TIP3    H126826   5.731   0.019  16.015 -0.9204 -1.9258  0.3776
  877TIP3    H226827   5.703   0.161  16.059  2.7586 -0.4325 -1.6647
  878TIP3   OH226828   0.247   5.299  18.683 -0.3603 -0.2291 -0.2012
  878TIP3    H126829   0.253   5.348  18.765 -2.2892  0.2790 -0.3150
  878TIP3    H226830   0.270   5.362  18.615  1.1784 -0.6339 -0.0903
  879TIP3   OH226831   4.211   0.928  15.901  0.1177  0.4325  0.0373
  879TIP3    H126832   4.155   1.001  15.925  0.0649  0.6743 -0.7755
  879TIP3    H226833   4.270   0.917  15.976 -2.0749 -0.9463  1.6920
  880TIP3   OH226834   5.457   4.500  16.366 -0.5708 -0.6292  0.5303
  880TIP3    H126835   5.526   4.433  16.368 -1.2326 -1.3219  0.9961
  880TIP3    H226836   5.501   4.580  16.339  0.2605 -1.2421  0.0448
  881TIP3   OH226837   1.063   5.974  17.926  0.5493 -0.3702 -0.3487
  881TIP3    H126838   1.123   6.048  17.930 -0.8231  0.7309  1.7537
  881TIP3    H226839   1.106   5.905  17.976  0.1542  0.3742  1.0549
  882TIP3   OH226840   5.579   0.173  16.801 -0.4952 -0.1447 -0.0478
  882TIP3    H126841   5.664   0.204  16.830 -0.9208  1.9349 -0.8200
  882TIP3    H226842   5.580   0.079  16.819  0.7089  0.3384  2.9551
  883TIP3   OH226843   2.107   5.431  19.305  0.0190  0.1224 -0.3457
  883TIP3    H126844   2.187   5.390  19.339 -1.1227 -2.5639 -0.6579
  883TIP3    H226845   2.044   5.360  19.300 -2.4675  2.1532 -0.0586
  884TIP3   OH226846   0.395   2.808  18.634 -0.0736  0.0200 -0.1692
  884TIP3    H126847   0.329   2.791  18.701  0.2456  1.1965  0.4686
  884TIP3    H226848   0.447   2.728  18.631 -1.3604 -0.8316 -0.5157
  885TIP3   OH226849   4.551   2.269  18.198 -0.6556 -0.2549 -0.4712
  885TIP3    H126850   4.635   2.297  18.233 -0.5107 -1.6557  0.3826
  885TIP3    H226851   4.522   2.342  18.144  0.5069  0.7704  0.2364
  886TIP3   OH226852   1.752   0.382  17.100  0.2167  0.1205 -0.0851
  886TIP3    H126853   1.824   0.417  17.153 -0.3721 -0.8608  1.4322
  886TIP3    H226854   1.735   0.296  17.138 -0.2977 -0.5881 -1.8602
  887TIP3   OH226855   3.891   5.859  17.621 -0.3337  0.4111 -0.2222
  887TIP3    H126856   3.839   5.912  17.560  0.8143  1.2150 -0.5322
  887TIP3    H226857   3.973   5.907  17.630  0.4690 -0.9704  0.0510
  888TIP3   OH226858   4.460   3.061  18.926  0.2920 -0.2345 -0.6755
  888TIP3    H126859   4.506   3.059  19.010  0.5044 -0.7661 -0.8054
  888TIP3    H226860   4.433   2.971  18.911 -1.4324  0.1734 -0.2594
  889TIP3   OH226861   0.518   1.265  18.559 -0.1143 -0.2848  0.3962
  889TIP3    H126862   0.560   1.294  18.640  3.0592 -0.7787 -0.9395
  889TIP3    H226863   0.465   1.190  18.586  1.8032 -1.1941  1.8747
  890TIP3   OH226864   1.274   2.285  18.281  0.1387 -0.1899  0.0487
  890TIP3    H126865   1.289   2.318  18.369 -0.2214  0.0177  0.0340
  890TIP3    H226866   1.351   2.231  18.262 -0.1103 -0.8213  0.7642
  891TIP3   OH226867   3.239   5.932  17.689  0.2136  0.1077 -0.6635
  891TIP3    H126868   3.221   5.919  17.782  0.4312  1.8921 -0.3369
  891TIP3    H226869   3.174   5.996  17.660  1.2298  0.8946 -1.2970
  892TIP3   OH226870   6.653   4.907  16.873 -0.3801 -0.0689 -0.0969
  892TIP3    H126871   6.697   4.929  16.955  1.9224  0.7625 -1.4354
  892TIP3    H226872   6.692   4.823  16.847 -1.7201 -0.7636  0.0349
  893TIP3   OH226873   6.674   4.378  18.029 -0.6156  0.3908  0.1902
  893TIP3    H126874   6.616   4.430  17.974 -1.2532  0.4393  0.8805
  893TIP3    H226875   6.650   4.403  18.119  0.8802  0.8412  0.4907
  894TIP3   OH226876   3.578   4.927  17.504  0.0372  0.3719  0.0358
  894TIP3    H126877   3.639   4.875  17.556  0.1832 -1.7047 -2.0323
  894TIP3    H226878   3.634   4.978  17.445 -0.0891 -1.4660 -1.7986
  895TIP3   OH226879   5.990   2.095  17.445  0.3113  0.0288  0.0713
  895TIP3    H126880   6.028   2.014  17.412 -1.1167 -0.3281 -0.8144
  895TIP3    H226881   6.002   2.091  17.540 -0.5991 -1.6972  0.1493
  896TIP3   OH226882   5.334   0.421  19.153  0.0378  0.6920 -0.8975
  896TIP3    H126883   5.257   0.368  19.131  0.6487 -0.7198  0.1665
  896TIP3    H226884   5.298   0.503  19.186 -1.1470 -0.5480  1.1572
  897TIP3   OH226885   1.891   2.370  17.321 -0.2751  0.0065  0.0482
  897TIP3    H126886   1.796   2.382  17.316 -0.5005 -1.8665 -0.9073
  897TIP3    H226887   1.925   2.457  17.340 -2.1628  0.7654  0.1374
  898TIP3   OH226888   3.507   4.588  19.370  0.1665  0.0569 -0.0699
  898TIP3    H126889   3.570   4.589  19.297 -0.6215  1.0005 -0.7612
  898TIP3    H226890   3.533   4.512  19.422  0.7126 -0.6994 -1.3789
  899TIP3   OH226891   6.133   1.620  18.271  0.0571  0.4118  0.2287
  899TIP3    H126892   6.057   1.564  18.289 -0.4712  0.9897 -0.1407
  899TIP3    H226893   6.170   1.585  18.190  0.4908 -0.1753  0.6695
  900TIP3   OH226894   3.071   0.251  18.352 -0.6493 -0.2840 -0.0703
  900TIP3    H126895   3.072   0.243  18.448  1.5752  0.9908  0.0997
  900TIP3    H226896   3.121   0.176  18.321  2.3541  1.4535  0.1524
  901TIP3   OH226897   5.619   0.497  17.854  0.3581 -0.3121  0.2577
  901TIP3    H126898   5.645   0.413  17.815  1.1889  0.2631 -0.4668
  901TIP3    H226899   5.606   0.478  17.947  2.3900 -0.8616  0.4631
  902TIP3   OH226900   5.192   0.168  18.558 -0.0863 -0.6736 -0.3149
  902TIP3    H126901   5.281   0.180  18.526 -0.1625 -0.8193 -0.5753
  902TIP3    H226902   5.180   0.240  18.620  0.0555 -0.3901 -0.6130
  903TIP3   OH226903   6.512   2.162  17.348 -0.2924 -0.3066  0.2009
  903TIP3    H126904   6.512   2.139  17.441 -1.4380 -0.5598  0.1549
  903TIP3    H226905   6.420   2.173  17.326 -0.0011  0.3299 -0.7732
  904TIP3   OH226906   4.364   0.731  16.557  0.2502  0.5509  0.2150
  904TIP3    H126907   4.453   0.766  16.544  0.0825  0.7864 -0.3305
  904TIP3    H226908   4.356   0.720  16.651  1.3763 -0.8279  0.1771
  905TIP3   OH226909   6.284   1.339  17.099  0.0479 -0.2617 -0.3417
  905TIP3    H126910   6.306   1.260  17.148  0.9379 -1.1239 -2.0344
  905TIP3    H226911   6.289   1.410  17.163 -1.0741 -1.5868  1.2867
  906TIP3   OH226912   2.216   0.218  16.358 -0.1013  0.2657  0.0818
  906TIP3    H126913   2.134   0.265  16.374  1.2223  3.0570 -0.6606
  906TIP3    H226914   2.255   0.209  16.445 -1.8578 -2.6858  0.7047
  907TIP3   OH226915   0.139   6.581  18.692 -0.0875  0.8833 -0.5174
  907TIP3    H126916   0.159   6.588  18.785  0.4321 -1.6662 -0.3480
  907TIP3    H226917   0.223   6.596  18.648  0.6155 -1.7851 -0.2701
  908TIP3   OH226918   6.095   3.026  19.086 -0.2820 -0.6562  0.4312
  908TIP3    H126919   6.028   3.089  19.110 -1.3322 -2.2766  1.9871
  908TIP3    H226920   6.177   3.067  19.114 -0.6889  0.9037 -0.5586
  909TIP3   OH226921   2.189   1.424  17.060  0.1010  0.0947 -0.0677
  909TIP3    H126922   2.226   1.337  17.047  0.6949  0.5606 -1.8296
  909TIP3    H226923   2.130   1.414  17.134 -1.4222 -2.3157 -1.4693
  910TIP3   OH226924   0.766   0.894  18.602 -0.4080  0.4127  0.1839
  910TIP3    H126925   0.737   0.948  18.528 -1.2434 -1.0739 -0.6036
  910TIP3    H226926   0.861   0.906  18.605 -0.2698 -0.0431 -1.5773
  911TIP3   OH226927   6.086   2.857  17.581 -0.4695  0.0943 -0.3805
  911TIP3    H126928   6.175   2.893  17.580  0.4417 -1.9804 -1.5958
  911TIP3    H226929   6.078   2.816  17.667  0.1763 -0.6082 -0.6402
  912TIP3   OH226930   5.490   2.546  19.354 -0.2774  0.3640 -0.1589
  912TIP3    H126931   5.537   2.474  19.396 -1.4623  0.3315  1.1807
  912TIP3    H226932   5.404   2.508  19.333 -0.8941  1.3629  0.5113
  913TIP3   OH226933   6.074   5.574  17.076  0.0540 -0.4675  0.3949
  913TIP3    H126934   6.019   5.651  17.089  0.7615  0.1714 -0.2932
  913TIP3    H226935   6.113   5.557  17.162 -0.6922 -0.5358  0.7315
  914TIP3   OH226936   6.692   0.325  19.018  0.3362  0.2419 -0.4847
  914TIP3    H126937   6.623   0.389  19.038 -0.1014 -0.3565 -0.0583
  914TIP3    H226938   6.723   0.350  18.931 -1.2518 -0.1925 -1.2016
  915TIP3   OH226939   4.652   0.813  18.339  0.1855  0.2544  0.4924
  915TIP3    H126940   4.722   0.877  18.326  0.1455 -0.0345 -1.3832
  915TIP3    H226941   4.691   0.748  18.398  1.3289  0.3615 -0.1087
  916TIP3   OH226942   2.413   6.005  18.423 -0.0658 -0.2525 -0.1559
  916TIP3    H126943   2.467   5.988  18.346  1.0052  3.1660 -0.3480
  916TIP3    H226944   2.474   6.042  18.487 -1.4820 -0.0815  1.1587
  917TIP3   OH226945   3.115   0.747  19.392 -0.5021  0.5358 -0.7072
  917TIP3    H126946   3.123   0.668  19.339 -0.5373  0.8301 -1.1618
  917TIP3    H226947   3.205   0.773  19.411 -0.4815  0.6735 -0.9942
  918TIP3   OH226948   5.412   4.776  17.516 -0.2990 -0.2528  0.3974
  918TIP3    H126949   5.335   4.832  17.523 -2.4987 -3.0659  0.3978
  918TIP3    H226950   5.418   4.756  17.422 -1.3481 -2.2695  0.7205
  919TIP3   OH226951   3.388   0.809  19.353  0.4816 -0.1657  0.5785
  919TIP3    H126952   3.450   0.738  19.338 -0.3687 -0.7667 -0.1653
  919TIP3    H226953   3.438   0.889  19.336  1.5840 -0.5478  1.9098
  920TIP3   OH226954   0.969   5.551  17.976 -0.2645  0.1409  0.2736
  920TIP3    H126955   0.877   5.559  18.003 -0.2910  0.4646  0.0997
  920TIP3    H226956   0.969   5.581  17.885 -0.0988 -0.4938  0.0635
  921TIP3   OH226957   3.662   6.516  19.293 -0.5368  0.1511 -0.8869
  921TIP3    H126958   3.625   6.436  19.330  1.4204  0.2253  1.4645
  921TIP3    H226959   3.619   6.587  19.340 -0.4658  0.3939 -1.1825
  922TIP3   OH226960   0.162   2.593  18.071  0.1863 -0.5552  0.5867
  922TIP3    H126961   0.220   2.666  18.092  0.3543 -1.0610  2.0424
  922TIP3    H226962   0.080   2.613  18.117  0.1321 -1.1200  0.7521
  923TIP3   OH226963   5.767   4.623  16.398  0.1704  0.1176  0.2457
  923TIP3    H126964   5.756   4.528  16.399 -0.4475  0.1965  1.2356
  923TIP3    H226965   5.713   4.653  16.325 -1.8357 -0.0490  1.5886
  924TIP3   OH226966   3.024   3.547  19.570  0.8972 -0.3031 -0.7214
  924TIP3    H126967   3.023   3.617  19.505  0.9618 -1.4194 -1.9632
  924TIP3    H226968   2.935   3.512  19.568  0.4849  0.5666  0.8579
  925TIP3   OH226969   6.177   0.402  17.677 -0.1500  0.6542 -0.4468
  925TIP3    H126970   6.177   0.309  17.652  4.5387  0.8935 -2.3958
  925TIP3    H226971   6.097   0.437  17.639 -3.0000 -2.7407  1.7983
  926TIP3   OH226972   6.752   6.096  18.005 -0.3169  0.1337 -0.3626
  926TIP3    H126973   6.800   6.030  18.055 -0.8058  0.1419  0.1256
  926TIP3    H226974   6.665   6.058  17.993 -0.3557  0.3525 -0.7592
  927TIP3   OH226975   3.096   4.911  18.335  0.3163 -0.0490 -0.1347
  927TIP3    H126976   3.155   4.986  18.345 -0.6624  0.7252 -0.0078
  927TIP3    H226977   3.154   4.834  18.338  1.0588  0.5291  2.6124
  928TIP3   OH226978   1.307   3.979  19.303 -0.2889 -0.2226 -0.2877
  928TIP3    H126979   1.349   3.902  19.264  0.6046  0.5849 -0.9847
  928TIP3    H226980   1.246   4.009  19.236  0.1740  0.3073 -0.4818
  929TIP3   OH226981   6.483   0.215  16.655  0.3158  0.6659  0.2155
  929TIP3    H126982   6.488   0.129  16.695  1.8852  0.9162  0.6418
  929TIP3    H226983   6.426   0.203  16.579 -1.0033 -0.2936  1.3123
  930TIP3   OH226984   5.661   4.275  17.186  0.7235  0.0216 -0.2692
  930TIP3    H126985   5.636   4.367  17.191 -1.8960 -0.6383  1.1052
  930TIP3    H226986   5.656   4.244  17.277 -0.1180 -1.8372 -0.8933
  931TIP3   OH226987   2.084   4.546  17.541 -0.4447  0.0324  0.3996
  931TIP3    H126988   2.093   4.621  17.600 -1.0269 -0.5024  1.1767
  931TIP3    H226989   1.997   4.511  17.560 -0.9729  0.3013 -1.3078
  932TIP3   OH226990   1.416   0.383  19.252  0.0913  0.3306 -0.0666
  932TIP3    H126991   1.482   0.394  19.320  2.2456 -0.9983 -1.8160
  932TIP3    H226992   1.377   0.297  19.271  0.8650 -0.1523 -0.6122
  933TIP3   OH226993   1.285   2.417  18.538 -0.3824 -0.5697 -0.3440
  933TIP3    H126994   1.308   2.363  18.613 -0.7140 -0.7715 -0.3874
  933TIP3    H226995   1.369   2.449  18.504 -0.2719  0.2001  0.6139
  934TIP3   OH226996   3.973   3.085  18.151 -0.0203  0.0699  0.0244
  934TIP3    H126997   4.037   3.020  18.180  0.3513  1.0015  1.3762
  934TIP3    H226998   3.895   3.033  18.130  1.2063 -1.1277 -1.9381
  935TIP3   OH226999   1.786   6.643  17.357  0.5023  0.2546  0.1218
  935TIP3    H127000   1.752   6.575  17.414 -0.0719 -0.5225 -1.1078
  935TIP3    H227001   1.709   6.692  17.329  0.8323  0.9555  0.4062
  936TIP3   OH227002   3.355   6.428  18.208  0.3602 -0.0948  0.1211
  936TIP3    H127003   3.284   6.459  18.263  0.6042 -0.2816  0.5442
  936TIP3    H227004   3.335   6.462  18.121  0.3889  0.8796  0.4859
  937TIP3   OH227005   1.163   3.668  18.179 -0.1711 -0.7161 -0.3120
  937TIP3    H127006   1.164   3.599  18.113 -0.4552 -2.4131  1.3492
  937TIP3    H227007   1.071   3.693  18.187 -0.0249  0.1326 -1.1573
  938TIP3   OH227008   1.441   4.706  19.407  0.1624 -0.1878  0.2922
  938TIP3    H127009   1.371   4.643  19.423 -0.7436  1.0529  1.4631
  938TIP3    H227010   1.515   4.674  19.459 -0.6448  0.2491  1.7747
  939TIP3   OH227011   2.240   6.378  17.617  0.6253  0.5568 -0.3223
  939TIP3    H127012   2.262   6.288  17.595 -0.9518  0.7124 -3.1514
  939TIP3    H227013   2.323   6.424  17.619  1.2743 -0.5174 -1.3891
  940TIP3   OH227014   0.213   0.457  18.913 -0.6392  0.0481  0.0029
  940TIP3    H127015   0.248   0.451  19.002  1.2303 -0.0169 -0.7036
  940TIP3    H227016   0.200   0.551  18.899  0.0420  0.1441 -0.0084
  941TIP3   OH227017   1.227   6.438  19.102  0.6815 -0.2555 -0.1222
  941TIP3    H127018   1.265   6.392  19.177 -0.4471 -1.9064 -0.5027
  941TIP3    H227019   1.279   6.410  19.027  0.9116  0.2651 -0.1595
  942TIP3   OH227020   4.205   2.533  16.560 -0.6093  0.4038  0.1734
  942TIP3    H127021   4.216   2.551  16.467 -3.7195  0.8431 -0.2211
  942TIP3    H227022   4.181   2.618  16.598  0.1198  0.1250  1.2989
  943TIP3   OH227023   5.674   3.896  17.948 -0.4498  0.2189 -0.3239
  943TIP3    H127024   5.598   3.839  17.963 -0.1059 -0.0937  0.2763
  943TIP3    H227025   5.646   3.956  17.879 -0.7453 -0.8393 -1.1657
  944TIP3   OH227026   3.916   5.440  16.613  0.6728 -0.6609  0.1202
  944TIP3    H127027   3.844   5.404  16.664  1.7617 -2.8026  0.2569
  944TIP3    H227028   3.874   5.480  16.537 -0.7253 -0.8599  0.7683
  945TIP3   OH227029   6.086   1.520  18.759 -0.1702 -0.4882  0.5172
  945TIP3    H127030   6.047   1.602  18.729  0.3263 -0.0504  1.0282
  945TIP3    H227031   6.056   1.454  18.696  0.1525  0.2433 -0.4261
  946TIP3   OH227032   2.118   3.289  18.777 -0.2857 -0.3646 -0.2207
  946TIP3    H127033   2.025   3.279  18.755 -0.1272 -0.0521 -1.0518
  946TIP3    H227034   2.158   3.206  18.751  0.2616  0.6885 -3.1141
  947TIP3   OH227035   6.053   6.001  17.059  0.2896  0.2453  0.0626
  947TIP3    H127036   5.992   5.943  17.013  0.1909  0.1338  0.3323
  947TIP3    H227037   6.006   6.027  17.138  0.6277  0.0964  0.3094
  948TIP3   OH227038   2.521   5.984  17.232  0.5495 -0.0817  0.1327
  948TIP3    H127039   2.560   5.904  17.197  0.9227  0.3661 -0.4863
  948TIP3    H227040   2.520   5.970  17.327 -0.6207 -1.3651 -0.0346
  949TIP3   OH227041   4.883   4.235  19.118  0.2888 -0.2381 -0.0389
  949TIP3    H127042   4.851   4.153  19.155 -1.3110  0.1829 -0.4140
  949TIP3    H227043   4.807   4.273  19.074  1.6937  0.0472 -2.3912
  950TIP3   OH227044   2.900   1.820  18.709  0.0984 -0.0673 -0.5931
  950TIP3    H127045   2.963   1.760  18.667  0.0262 -1.2005  0.8161
  950TIP3    H227046   2.815   1.790  18.678  0.1642  0.8577 -1.7486
  951TIP3   OH227047   3.832   3.490  17.629  0.5025 -0.1500  0.1316
  951TIP3    H127048   3.761   3.516  17.687 -0.9967 -0.4101 -1.5007
  951TIP3    H227049   3.838   3.561  17.564  0.9323 -0.6897 -0.4383
  952TIP3   OH227050   0.027   1.591  17.623 -0.2119 -0.3313  0.3239
  952TIP3    H127051   0.089   1.628  17.560 -0.0075 -0.7784  0.2541
  952TIP3    H227052   0.060   1.502  17.639 -0.7512 -0.5216  0.4058
  953TIP3   OH227053   4.323   5.271  17.099  0.4146  0.2523 -0.8476
  953TIP3    H127054   4.345   5.260  17.007  0.3427 -0.3169 -0.8016
  953TIP3    H227055   4.397   5.319  17.136  1.9108 -2.0763 -0.5830
  954TIP3   OH227056   1.118   1.867  17.306 -0.2657  0.1438 -0.0696
  954TIP3    H127057   1.049   1.824  17.255  0.2711  0.5663 -1.1920
  954TIP3    H227058   1.115   1.959  17.279 -0.1425  0.4395  0.8744
  955TIP3   OH227059   5.236   6.308  19.077 -0.2480  0.7216  0.5884
  955TIP3    H127060   5.320   6.345  19.050 -0.1169 -1.0710 -1.8200
  955TIP3    H227061   5.176   6.330  19.006 -1.6515  1.2953  1.9062
  956TIP3   OH227062   3.982   5.527  19.362 -0.1179 -0.5759  0.4862
  956TIP3    H127063   3.987   5.572  19.277 -0.0461 -0.0886  0.7444
  956TIP3    H227064   3.928   5.584  19.416  1.0881 -0.0996  1.2406
  957TIP3   OH227065   3.387   4.688  15.796 -0.1224 -0.4653  0.2586
  957TIP3    H127066   3.317   4.702  15.733 -1.0363  0.3014  1.4117
  957TIP3    H227067   3.350   4.627  15.859  0.9919 -1.6986 -0.2318
  958TIP3   OH227068   4.969   3.643  17.442 -0.1613 -0.5297  0.2333
  958TIP3    H127069   4.912   3.681  17.508 -2.2708  1.2222 -2.3888
  958TIP3    H227070   4.948   3.549  17.442 -0.1611 -0.5552  1.9141
  959TIP3   OH227071   1.124   0.296  18.253 -0.1442  0.2049 -0.0417
  959TIP3    H127072   1.162   0.219  18.210 -2.9580 -1.2541 -0.1866
  959TIP3    H227073   1.035   0.301  18.217 -1.4233  1.0679  2.9716
  960TIP3   OH227074   4.532   3.417  18.438  0.3111  0.1127 -0.0465
  960TIP3    H127075   4.573   3.397  18.354 -0.1018  1.0792 -0.4916
  960TIP3    H227076   4.474   3.491  18.420 -1.4442 -1.0168  0.6173
  961TIP3   OH227077   0.230   6.230  18.259 -0.3141  0.1386  0.2852
  961TIP3    H127078   0.214   6.157  18.319  1.0046 -1.2136 -0.8895
  961TIP3    H227079   0.299   6.197  18.200  0.8069  2.5823  0.1081
  962TIP3   OH227080   4.933   0.966  17.841  0.7262  0.4010  0.1374
  962TIP3    H127081   4.840   0.957  17.821  0.7393  2.5268 -1.1299
  962TIP3    H227082   4.935   1.023  17.918  1.0024  0.2503  0.2426
  963TIP3   OH227083   6.048   1.359  16.931 -0.0821  0.4386 -0.2387
  963TIP3    H127084   6.110   1.387  16.998 -0.3488 -0.5387  0.4276
  963TIP3    H227085   6.094   1.289  16.884 -0.4010  0.2131 -0.2163
  964TIP3   OH227086   3.440   2.855  17.554  0.1989 -0.0054 -0.3162
  964TIP3    H127087   3.387   2.929  17.523  0.2311 -0.7041 -2.1485
  964TIP3    H227088   3.522   2.895  17.584 -0.5963  0.8959  0.7444
  965TIP3   OH227089   2.427   5.377  16.387  0.2663  0.1104 -0.2340
  965TIP3    H127090   2.425   5.439  16.314 -0.6861 -1.2322 -1.4009
  965TIP3    H227091   2.518   5.378  16.417  0.7056  0.6015 -1.5150
  966TIP3   OH227092   1.398   2.750  17.365 -0.2225  0.0153 -1.0984
  966TIP3    H127093   1.337   2.720  17.433 -1.4879  1.3929 -1.5758
  966TIP3    H227094   1.429   2.835  17.396  0.0021  0.1795 -1.7541
  967TIP3   OH227095   5.050   3.376  16.661  0.0184 -0.4150 -0.2352
  967TIP3    H127096   5.122   3.434  16.688 -0.7265  0.3317  0.2060
  967TIP3    H227097   4.971   3.430  16.670 -0.6527 -1.3724 -0.2241
  968TIP3   OH227098   3.185   1.764  16.562 -0.0227 -0.3536  0.2859
  968TIP3    H127099   3.098   1.796  16.539 -0.1331 -1.7935 -1.5280
  968TIP3    H227100   3.231   1.757  16.478  1.8615  0.3388  1.1922
  969TIP3   OH227101   4.730   1.490  18.524 -0.0134  0.4352  0.1366
  969TIP3    H127102   4.642   1.526  18.511  0.6607  1.5003 -1.7647
  969TIP3    H227103   4.787   1.566  18.533  0.9070 -0.2184  0.0695
  970TIP3   OH227104   5.994   5.418  17.954 -0.0581 -0.2472  0.4784
  970TIP3    H127105   6.049   5.378  17.887  1.6204  1.4941  0.7371
  970TIP3    H227106   5.991   5.354  18.025  2.3440 -0.0983  0.7861
  971TIP3   OH227107   6.726   6.520  16.643  1.0031 -0.1360  0.1443
  971TIP3    H127108   6.684   6.606  16.641  1.6976  0.2073 -0.1564
  971TIP3    H227109   6.654   6.458  16.652  0.5372  0.5037  0.9209
  972TIP3   OH227110   1.309   0.172  18.604 -0.0384 -0.5977  0.1812
  972TIP3    H127111   1.374   0.113  18.567 -0.7137 -1.7980  0.8463
  972TIP3    H227112   1.226   0.145  18.565 -0.2458  0.5389 -0.2168
  973TIP3   OH227113   0.441   6.349  17.153 -0.1939 -0.0863 -0.1527
  973TIP3    H127114   0.441   6.420  17.217  0.5817 -1.0290  0.9279
  973TIP3    H227115   0.454   6.392  17.069  0.8917  1.0069  0.5492
  974TIP3   OH227116   4.127   5.277  16.647 -0.3732  0.1472 -0.5876
  974TIP3    H127117   4.066   5.348  16.628  0.2103  0.6884 -0.4740
  974TIP3    H227118   4.190   5.279  16.575 -0.6247 -0.5739 -0.8408
  975TIP3   OH227119   2.295   4.099  18.321  0.1433  0.2359  0.2061
  975TIP3    H127120   2.357   4.066  18.255  1.1565 -0.2014  1.3421
  975TIP3    H227121   2.244   4.165  18.275  0.3571 -0.5437 -1.2103
  976TIP3   OH227122   4.730   5.657  19.230  0.4625 -0.1547  0.4055
  976TIP3    H127123   4.825   5.662  19.222  0.3742  0.1826 -0.6015
  976TIP3    H227124   4.711   5.563  19.237  0.7281 -0.4386 -1.8646
  977TIP3   OH227125   5.025   5.790  16.959  0.1443 -0.5315 -0.4354
  977TIP3    H127126   5.101   5.776  16.903  1.3663 -2.3693  1.5476
  977TIP3    H227127   5.003   5.703  16.993 -2.2284  0.1072 -0.1475
  978TIP3   OH227128   6.095   0.582  17.384 -0.4173 -0.8284 -0.3161
  978TIP3    H127129   6.082   0.655  17.324  0.1425  0.1913  0.7646
  978TIP3    H227130   6.043   0.511  17.347 -1.3453  0.2504 -1.1505
  979TIP3   OH227131   0.680   4.410  18.782 -0.0270 -0.0680  0.4301
  979TIP3    H127132   0.776   4.420  18.780 -0.1822  2.3465 -2.6003
  979TIP3    H227133   0.662   4.342  18.717 -0.3705  0.5317 -0.1235
  980TIP3   OH227134   5.265   1.152  16.934  0.1039  0.2791  0.3885
  980TIP3    H127135   5.337   1.172  16.874 -0.0672 -2.5182 -0.9081
  980TIP3    H227136   5.187   1.148  16.878 -0.5223  0.2110  1.2416
  981TIP3   OH227137   5.738   0.721  18.796 -0.1487  0.1304 -0.1655
  981TIP3    H127138   5.765   0.767  18.875  0.4863  0.5189 -0.5940
  981TIP3    H227139   5.674   0.657  18.826  1.0891 -0.6717  0.8767
  982TIP3   OH227140   6.342   4.773  17.309  0.2713 -0.5509 -0.1162
  982TIP3    H127141   6.438   4.768  17.315  0.1535 -2.2686  0.9206
  982TIP3    H227142   6.312   4.684  17.324 -1.5092 -0.0958 -0.7026
  983TIP3   OH227143   6.610   4.903  16.584  0.0375 -0.2432 -0.3306
  983TIP3    H127144   6.639   4.944  16.666  1.0379 -1.2493 -0.1569
  983TIP3    H227145   6.534   4.851  16.609 -1.0303  1.1705 -0.4868
  984TIP3   OH227146   6.419   0.464  17.589 -0.0153 -0.5583 -0.0576
  984TIP3    H127147   6.329   0.473  17.620 -0.0186  0.2349 -0.2820
  984TIP3    H227148   6.414   0.394  17.523 -1.0691  1.4735 -2.2583
  985TIP3   OH227149   3.879   1.357  19.287 -0.3206 -0.2486 -0.1806
  985TIP3    H127150   3.810   1.421  19.303 -0.2424 -0.4625  1.1380
  985TIP3    H227151   3.923   1.387  19.207 -1.8169 -0.0211 -0.9444
  986TIP3   OH227152   1.827   5.426  17.719  0.2653 -0.3316  0.6271
  986TIP3    H127153   1.732   5.438  17.720  0.1431  0.3881 -3.1321
  986TIP3    H227154   1.862   5.510  17.750 -0.3752  0.2139 -0.0807
  987TIP3   OH227155   5.013   3.964  17.535  0.7467 -0.1918 -0.3973
  987TIP3    H127156   4.928   4.001  17.510 -0.5836 -0.0413  3.7160
  987TIP3    H227157   5.077   4.031  17.510 -0.7216  1.2415 -0.4624
  988TIP3   OH227158   2.654   1.813  18.631  0.1758  0.2681 -0.7240
  988TIP3    H127159   2.644   1.732  18.580  2.2877 -0.8636  0.5051
  988TIP3    H227160   2.593   1.803  18.704 -0.5651  0.4367 -1.3125
  989TIP3   OH227161   2.469   1.841  17.904  0.0197  0.1420  0.5302
  989TIP3    H127162   2.407   1.772  17.927  1.2502 -1.0553  0.4055
  989TIP3    H227163   2.551   1.795  17.887  0.4507  1.4438 -1.3254
  990TIP3   OH227164   5.825   6.638  16.708 -0.7086 -0.1412  0.7977
  990TIP3    H127165   5.810   6.558  16.657 -2.3930  0.0334  0.9432
  990TIP3    H227166   5.786   6.707  16.654 -0.1994  0.4234  1.1528
  991TIP3   OH227167   3.373   0.151  16.332  0.2488 -0.0325  0.5443
  991TIP3    H127168   3.414   0.103  16.404  2.4282 -1.5318 -1.5681
  991TIP3    H227169   3.408   0.112  16.253 -1.6146  1.9193 -1.4040
  992TIP3   OH227170   4.043   3.335  16.409 -0.0667  0.0652  0.2210
  992TIP3    H127171   3.989   3.314  16.333  0.4830  0.2024 -0.2184
  992TIP3    H227172   4.116   3.272  16.404  1.4242  1.7782 -0.9146
  993TIP3   OH227173   2.762   5.460  17.552 -0.1799  0.0055  0.0884
  993TIP3    H127174   2.672   5.492  17.548  0.1673  1.0337  0.0950
  993TIP3    H227175   2.755   5.366  17.535 -1.0270  0.4233 -2.2547
  994TIP3   OH227176   3.642   6.202  18.512 -0.3515 -0.1053  0.0209
  994TIP3    H127177   3.617   6.269  18.448  0.7569  0.5819  0.2716
  994TIP3    H227178   3.571   6.201  18.575 -0.3842  0.8451  0.0093
  995TIP3   OH227179   2.480   1.779  18.176 -0.8110 -0.1187 -0.2956
  995TIP3    H127180   2.445   1.856  18.222 -0.5048  0.3572 -0.8395
  995TIP3    H227181   2.443   1.785  18.088 -0.5097 -0.4083 -0.4443
  996TIP3   OH227182   2.832   2.702  17.248  0.0737  0.4719  0.7548
  996TIP3    H127183   2.882   2.759  17.306  0.2862 -0.8564  1.9436
  996TIP3    H227184   2.895   2.672  17.183 -0.4077  2.8489 -0.9708
  997TIP3   OH227185   3.352   1.356  19.383  0.1401 -0.2571  0.0363
  997TIP3    H127186   3.328   1.283  19.441 -0.8074  0.6996  0.8862
  997TIP3    H227187   3.295   1.347  19.307 -0.5421  0.0585  0.5088
  998TIP3   OH227188   6.516   1.008  18.454  0.1025  0.5084  0.0116
  998TIP3    H127189   6.484   1.041  18.370  2.4594 -2.2109 -2.1384
  998TIP3    H227190   6.498   1.079  18.516 -1.8028  2.6112 -2.7234
  999TIP3   OH227191   3.278   3.070  19.121 -0.5205  0.0435 -0.0609
  999TIP3    H127192   3.215   3.141  19.132 -1.1039 -0.3555 -0.7324
  999TIP3    H227193   3.314   3.055  19.209  1.3184  2.6948 -0.2604
 1000TIP3   OH227194   5.710   1.151  19.362  0.0243  0.2331  0.5376
 1000TIP3    H127195   5.775   1.096  19.318 -0.3181  0.0729  0.2268
 1000TIP3    H227196   5.628   1.135  19.314 -0.0693  1.0485  0.4128
 1001TIP3   OH227197   4.564   2.034  19.414 -0.2355 -0.1260  0.6228
 1001TIP3    H127198   4.625   2.068  19.348 -1.0685 -0.2040 -0.2136
 1001TIP3    H227199   4.555   2.105  19.478 -0.8474  0.6875 -0.3385
 1002TIP3   OH227200   2.933   5.392  15.877 -0.2878 -0.6873  0.1382
 1002TIP3    H127201   2.991   5.375  15.952 -1.1604  0.9767  1.2478
 1002TIP3    H227202   2.980   5.456  15.824 -0.5888 -0.2522  0.3960
 1003TIP3   OH227203   0.381   3.417  18.104 -0.1698  0.2860 -0.2625
 1003TIP3    H127204   0.315   3.478  18.070  0.1586  0.1690 -1.1558
 1003TIP3    H227205   0.383   3.433  18.198 -1.9114 -0.1439 -0.1178
 1004TIP3   OH227206   3.257   3.210  16.762 -0.4041  0.2299 -0.6204
 1004TIP3    H127207   3.265   3.303  16.779 -1.2060  0.3591 -0.9193
 1004TIP3    H227208   3.321   3.192  16.693  0.8459  0.2453  0.4910
 1005TIP3   OH227209   2.836   2.583  18.111  0.5551 -0.6500  0.6573
 1005TIP3    H127210   2.819   2.579  18.017 -1.4415 -0.5384  0.9654
 1005TIP3    H227211   2.815   2.495  18.143 -2.4401  0.2441  1.4653
 1006TIP3   OH227212   6.136   6.276  15.587 -0.2809 -0.1182 -0.3871
 1006TIP3    H127213   6.156   6.297  15.678 -1.5896  0.0786 -0.1305
 1006TIP3    H227214   6.072   6.342  15.560  0.5623  0.2217 -1.6613
 1007TIP3   OH227215   6.528   6.706  17.409 -0.7029  0.1422  0.6223
 1007TIP3    H127216   6.555   6.744  17.492  1.3172  0.5021 -0.1553
 1007TIP3    H227217   6.554   6.614  17.414  2.0839  0.7449 -0.5915
 1008TIP3   OH227218   6.645   5.677  15.239  0.1161 -0.5656 -0.2830
 1008TIP3    H127219   6.713   5.714  15.294 -0.6574  1.0163 -0.3464
 1008TIP3    H227220   6.672   5.586  15.227  1.9858 -0.1031  0.0272
 1009TIP3   OH227221   0.774   6.045  18.700  0.0779  0.2449 -0.1158
 1009TIP3    H127222   0.762   5.955  18.669  1.0456  0.3454 -0.8154
 1009TIP3    H227223   0.772   6.098  18.621 -1.2400  0.9372  0.3639
 1010TIP3   OH227224   3.683   2.946  18.901 -0.9491  0.0329 -0.0024
 1010TIP3    H127225   3.696   3.030  18.945 -2.7385  0.8367 -0.9071
 1010TIP3    H227226   3.628   2.896  18.962  0.8511 -0.8803  0.9420
 1011TIP3   OH227227   3.830   2.027  19.602  0.7751 -0.1927  0.4148
 1011TIP3    H127228   3.811   2.107  19.553  0.6998 -0.6623 -0.3270
 1011TIP3    H227229   3.888   2.056  19.673  1.8788  0.3057 -0.6463
 1012TIP3   OH227230   2.301   2.853  19.080 -0.3999 -0.3621  0.0199
 1012TIP3    H127231   2.297   2.936  19.126  0.5714 -0.7040  0.7632
 1012TIP3    H227232   2.362   2.800  19.131  0.8796 -0.6942 -1.7506
 1013TIP3   OH227233   1.761   3.222  18.284 -0.3643  0.3230 -0.6273
 1013TIP3    H127234   1.738   3.305  18.326 -0.5850  0.5908 -1.2696
 1013TIP3    H227235   1.684   3.200  18.232  1.0591  1.6406 -3.4924
 1014TIP3   OH227236   5.786   6.633  16.975 -0.4560  0.5073 -0.0772
 1014TIP3    H127237   5.775   6.651  16.882  0.9747  0.8205 -0.2095
 1014TIP3    H227238   5.865   6.581  16.981 -2.0607 -1.9984  0.7514
 1015TIP3   OH227239   6.478   0.716  19.314  0.7282  0.2552 -0.3258
 1015TIP3    H127240   6.424   0.664  19.375 -0.9438  3.2868  1.0338
 1015TIP3    H227241   6.568   0.697  19.339  0.1481 -0.9203  1.0159
 1016TIP3   OH227242   1.937   2.560  18.536  0.0273 -0.4937  0.2466
 1016TIP3    H127243   2.028   2.537  18.518  0.1644  1.1718 -1.5370
 1016TIP3    H227244   1.942   2.640  18.589 -0.3159  0.8166 -1.5977
 1017TIP3   OH227245   5.219   2.828  19.191  0.2919 -0.1155  0.0931
 1017TIP3    H127246   5.166   2.880  19.251 -1.5927  1.9825 -3.0465
 1017TIP3    H227247   5.166   2.750  19.173 -0.4734  0.5829 -0.8257
 1018TIP3   OH227248   5.733   5.624  18.577  0.4871 -0.5003  0.2717
 1018TIP3    H127249   5.782   5.562  18.523 -0.9778 -0.7266 -0.8581
 1018TIP3    H227250   5.669   5.570  18.624 -0.6523  0.0930 -0.5522
 1019TIP3   OH227251   2.518   4.090  17.932  0.0631 -0.4438 -0.2297
 1019TIP3    H127252   2.432   4.054  17.955 -0.6683 -0.0854 -2.2027
 1019TIP3    H227253   2.578   4.051  17.995 -1.5020 -0.9074  1.0378
 1020TIP3   OH227254   0.036   3.527  16.039  0.1627  0.1066 -0.2123
 1020TIP3    H127255   0.030   3.524  16.134  3.1066  2.0427  0.1677
 1020TIP3    H227256   0.035   3.435  16.011 -4.9903 -0.5365  1.1230
 1021TIP3   OH227257   0.487   3.916  19.532 -0.4899  0.7417  0.3134
 1021TIP3    H127258   0.477   3.960  19.448 -0.1559  2.0372  0.9295
 1021TIP3    H227259   0.426   3.842  19.527 -1.9904  1.9415 -0.3134
 1022TIP3   OH227260   1.780   1.975  19.217  0.0835  0.2401  0.0396
 1022TIP3    H127261   1.760   1.885  19.193 -1.0954  0.2873  0.7932
 1022TIP3    H227262   1.797   1.972  19.311 -0.9636  0.9448  0.2734
 1023TIP3   OH227263   1.545   2.119  19.616  0.1195 -0.0738 -0.4280
 1023TIP3    H127264   1.602   2.186  19.655 -0.5881  0.9577 -1.1155
 1023TIP3    H227265   1.491   2.167  19.553 -1.4464 -1.0395  0.1158
 1024TIP3   OH227266   4.107   5.857  17.404  0.0295  0.1858  0.1228
 1024TIP3    H127267   4.107   5.778  17.458 -2.0951 -1.2035 -1.7184
 1024TIP3    H227268   4.106   5.929  17.466  1.1943 -1.2015  1.8820
 1025TIP3   OH227269   0.772   4.434  16.923 -0.7735  0.0167 -0.3280
 1025TIP3    H127270   0.843   4.486  16.884 -2.0761  1.4382 -0.8973
 1025TIP3    H227271   0.817   4.375  16.985  0.9019  0.8144 -0.7219
 1026TIP3   OH227272   4.166   2.387  17.089 -0.6374 -0.2794 -0.0190
 1026TIP3    H127273   4.244   2.426  17.128 -0.1590 -0.0936 -1.1192
 1026TIP3    H227274   4.172   2.409  16.996 -1.2168 -1.5579 -0.3820
 1027TIP3   OH227275   5.506   0.784  18.605  0.0409 -0.3675  0.4905
 1027TIP3    H127276   5.460   0.867  18.591 -2.2386 -1.4650  1.0022
 1027TIP3    H227277   5.567   0.803  18.676  1.8864  1.6375 -1.4762
 1028TIP3   OH227278   1.350   2.569  17.900 -0.0168 -0.1380 -0.2384
 1028TIP3    H127279   1.373   2.654  17.938 -2.5797  0.0442  1.1588
 1028TIP3    H227280   1.424   2.512  17.923 -0.3076  0.5854  3.0926
 1029TIP3   OH227281   5.937   3.680  18.752 -0.1828  0.0305 -0.4117
 1029TIP3    H127282   5.984   3.671  18.835  0.2860 -1.1012 -0.7738
 1029TIP3    H227283   5.858   3.627  18.763  0.1683 -0.6115 -0.8706
 1030TIP3   OH227284   2.019   0.553  18.942 -0.6433 -0.1140 -0.1019
 1030TIP3    H127285   1.943   0.535  18.887 -0.3811  1.1270 -0.9226
 1030TIP3    H227286   2.076   0.606  18.887  0.5023 -0.4304  0.7441
 1031TIP3   OH227287   6.301   5.779  17.459 -0.8765 -0.1577  0.0866
 1031TIP3    H127288   6.315   5.813  17.370 -1.1261 -0.3345 -0.0239
 1031TIP3    H227289   6.387   5.780  17.499 -0.6795 -0.5073 -0.3145
 1032TIP3   OH227290   0.762   1.587  16.477 -0.3943  0.1001 -0.6180
 1032TIP3    H127291   0.778   1.667  16.528 -2.3360  1.7209 -2.3410
 1032TIP3    H227292   0.715   1.530  16.537  0.0901  0.6738  0.3378
 1033TIP3   OH227293   2.868   3.478  18.162 -0.2594  0.4204  0.1986
 1033TIP3    H127294   2.919   3.546  18.207 -0.3480 -0.0458  1.0308
 1033TIP3    H227295   2.886   3.398  18.212  1.9224 -0.7837 -2.2618
 1034TIP3   OH227296   0.735   2.687  18.305  0.4519  0.0295 -0.0726
 1034TIP3    H127297   0.780   2.740  18.240 -0.3593 -0.6768 -1.2542
 1034TIP3    H227298   0.745   2.735  18.387  0.3563  1.6208 -0.9642
 1035TIP3   OH227299   2.547   4.813  19.400 -0.5391 -0.5135 -0.2061
 1035TIP3    H127300   2.627   4.793  19.448  0.1996  0.7240 -0.8893
 1035TIP3    H227301   2.523   4.730  19.359  1.7862 -0.4219 -2.0027
 1036TIP3   OH227302   6.507   1.632  16.714 -0.3693 -0.0764  0.6286
 1036TIP3    H127303   6.533   1.722  16.733  0.9971 -0.2357 -0.3556
 1036TIP3    H227304   6.431   1.617  16.770 -0.5582  1.6465  0.8886
 1037TIP3   OH227305   4.880   3.123  18.239  0.1603  0.0920  0.2745
 1037TIP3    H127306   4.788   3.150  18.239  0.8120  2.5499  0.4326
 1037TIP3    H227307   4.929   3.205  18.241  2.3770 -1.1614  0.7023
 1038TIP3   OH227308   6.181   1.407  18.988 -0.1708  0.2180  0.2653
 1038TIP3    H127309   6.155   1.448  18.906  0.9609 -0.1846 -0.3059
 1038TIP3    H227310   6.124   1.448  19.054 -0.6344  1.0196 -0.6118
 1039TIP3   OH227311   1.841   0.770  17.011 -0.1672  0.5061 -0.1454
 1039TIP3    H127312   1.932   0.782  16.983  0.0960  1.3335  0.9762
 1039TIP3    H227313   1.835   0.677  17.033 -0.4078 -0.2060 -2.8513
 1040TIP3   OH227314   6.143   3.109  17.748 -0.3215 -0.4401 -0.0913
 1040TIP3    H127315   6.226   3.157  17.754 -0.0781 -1.0242  1.7490
 1040TIP3    H227316   6.085   3.169  17.701  0.8351  0.4048 -0.5093
 1041TIP3   OH227317   1.720   5.128  16.880 -0.5354 -0.3477  0.2421
 1041TIP3    H127318   1.772   5.057  16.843  0.9013  0.5204  0.5385
 1041TIP3    H227319   1.634   5.118  16.838 -0.4218 -2.3157  0.3734
 1042TIP3   OH227320   0.169   2.329  18.199  0.6244  0.1237 -0.3741
 1042TIP3    H127321   0.105   2.279  18.148 -0.9503  0.1000  1.5435
 1042TIP3    H227322   0.224   2.371  18.132  0.4750 -2.1523 -2.0629
 1043TIP3   OH227323   4.240   2.537  16.120 -0.5877 -0.2342  0.1480
 1043TIP3    H127324   4.230   2.568  16.030 -0.4447  0.4036  0.3515
 1043TIP3    H227325   4.299   2.462  16.113 -0.6664 -0.2577 -0.3003
 1044TIP3   OH227326   6.077   6.028  15.766  0.2371 -0.2016  0.1628
 1044TIP3    H127327   6.069   6.119  15.739 -0.1272 -0.4138 -0.4611
 1044TIP3    H227328   6.137   5.989  15.703  0.6638 -0.3134  0.6357
 1045TIP3   OH227329   5.692   5.802  18.253  0.3589  0.1728  0.0601
 1045TIP3    H127330   5.746   5.838  18.324  0.0418 -0.6071  0.7159
 1045TIP3    H227331   5.711   5.858  18.178  1.2888  0.5480  0.5540
 1046TIP3   OH227332   5.956   1.151  18.371 -0.5431  0.5619 -0.0602
 1046TIP3    H127333   6.049   1.172  18.369  0.2259 -2.2927  0.4733
 1046TIP3    H227334   5.954   1.058  18.395 -3.5263  0.4655 -0.3909
 1047TIP3   OH227335   4.758   2.552  18.631 -0.1862  0.4805 -0.1911
 1047TIP3    H127336   4.710   2.555  18.548  1.1399 -2.2836 -1.1869
 1047TIP3    H227337   4.701   2.503  18.690  0.1503 -0.2747 -0.4773
 1048TIP3   OH227338   6.344   5.048  19.074  0.2060 -0.4618  0.2074
 1048TIP3    H127339   6.264   5.089  19.044 -0.1784 -1.4919 -0.2261
 1048TIP3    H227340   6.321   5.008  19.158  0.1441 -1.0904 -0.1008
 1049TIP3   OH227341   1.443   6.334  18.039  0.0678 -0.0678 -0.7261
 1049TIP3    H127342   1.348   6.324  18.042 -0.2105  1.7431 -1.7321
 1049TIP3    H227343   1.469   6.297  17.955  0.0160  0.8015 -1.1410
 1050TIP3   OH227344   4.545   5.597  18.401  0.0173  0.1750 -0.0904
 1050TIP3    H127345   4.508   5.683  18.419  0.6615  0.1583  1.4575
 1050TIP3    H227346   4.484   5.536  18.442 -0.1578 -0.0843 -0.7237
 1051TIP3   OH227347   6.223   1.868  18.345  0.5242  0.0282 -0.0463
 1051TIP3    H127348   6.196   1.776  18.348 -1.1001  0.4453 -0.6222
 1051TIP3    H227349   6.288   1.872  18.274 -0.1933 -0.5083 -0.7492
 1052TIP3   OH227350   2.953   0.103  17.777  0.7925  0.0309 -0.0814
 1052TIP3    H127351   2.866   0.115  17.814  0.8264 -1.3227  0.5259
 1052TIP3    H227352   3.001   0.181  17.802  0.6058 -0.5072  2.2058
 1053TIP3   OH227353   6.101   5.692  18.034 -0.0377  0.1621 -0.0270
 1053TIP3    H127354   6.007   5.683  18.050  0.1502 -1.0215  0.5089
 1053TIP3    H227355   6.117   5.644  17.953  0.2131 -0.2641  0.2694
 1054TIP3   OH227356   5.906   3.797  18.107 -0.0830 -0.7265 -0.2847
 1054TIP3    H127357   5.966   3.871  18.102 -0.8864  0.2186  2.4679
 1054TIP3    H227358   5.832   3.822  18.051  0.7888 -0.6546 -1.4384
 1055TIP3   OH227359   4.009   0.345  18.355 -0.5536 -0.0740 -0.0700
 1055TIP3    H127360   4.088   0.358  18.408 -0.5725  0.0680 -0.0759
 1055TIP3    H227361   3.958   0.425  18.369 -0.6984 -0.1680 -0.0626
 1056TIP3   OH227362   3.517   4.632  17.811  0.1828  0.1830  0.3084
 1056TIP3    H127363   3.452   4.673  17.753 -0.2093 -0.3426  0.3654
 1056TIP3    H227364   3.548   4.557  17.761  0.6328  0.3417  0.3500
 1057TIP3   OH227365   5.252   0.999  18.381  0.1718  0.4260 -0.3863
 1057TIP3    H127366   5.224   1.048  18.303  0.0951  1.9365  0.5384
 1057TIP3    H227367   5.348   1.004  18.378  0.1720  0.4011 -0.4266
 1058TIP3   OH227368   3.287   1.814  16.327  0.5259 -0.7843  0.0828
 1058TIP3    H127369   3.213   1.764  16.295  0.4561 -0.7556  0.2012
 1058TIP3    H227370   3.295   1.887  16.266  0.0065 -0.3850  0.4942
 1059TIP3   OH227371   1.587   1.863  18.634  0.1124  0.2506 -0.1506
 1059TIP3    H127372   1.603   1.891  18.544 -1.1708  0.3301 -0.3726
 1059TIP3    H227373   1.635   1.927  18.687  1.1664 -0.0056 -0.7715
 1060TIP3   OH227374   0.893   4.901  16.535 -0.7756  0.4660  0.1894
 1060TIP3    H127375   0.960   4.962  16.507 -0.4042 -0.5208 -1.1524
 1060TIP3    H227376   0.840   4.885  16.457  0.3706 -2.4559 -0.1053
 1061TIP3   OH227377   0.074   3.255  18.389 -0.5286 -0.4255  0.4665
 1061TIP3    H127378   0.008   3.321  18.368 -0.5147 -0.3603  0.6301
 1061TIP3    H227379   0.044   3.216  18.471 -0.1748 -0.1405  0.7363
 1062TIP3   OH227380   0.726   3.477  17.990 -0.1856 -0.0834  0.0438
 1062TIP3    H127381   0.658   3.412  18.007  0.4694 -1.0477 -0.9230
 1062TIP3    H227382   0.808   3.429  18.000  0.3096 -0.2555 -3.5657
 1063TIP3   OH227383   1.147   3.618  19.313 -0.1585 -0.3326 -1.0154
 1063TIP3    H127384   1.189   3.648  19.394  0.5718 -2.9373 -0.3208
 1063TIP3    H227385   1.058   3.651  19.319 -0.0567 -0.2662  0.7609
 1064TIP3   OH227386   5.028   2.227  17.098 -0.2186  0.0517 -0.4000
 1064TIP3    H127387   5.057   2.246  17.187  1.1199 -0.1582 -0.7795
 1064TIP3    H227388   4.978   2.146  17.107 -0.9659  0.5593  0.2936
 1065TIP3   OH227389   3.610   5.006  19.456  0.5969 -0.1025 -0.2272
 1065TIP3    H127390   3.698   4.976  19.434  1.2549  1.8535 -0.4336
 1065TIP3    H227391   3.622   5.094  19.492 -1.3624  0.8049 -1.5674
 1066TIP3   OH227392   1.101   6.208  17.372  0.1557  0.2382  0.5828
 1066TIP3    H127393   1.167   6.187  17.439  0.9738  1.2200  0.1151
 1066TIP3    H227394   1.152   6.238  17.297 -0.7716 -0.4780 -0.3634
 1067TIP3   OH227395   5.636   0.486  16.478 -0.2030  0.9351 -0.5684
 1067TIP3    H127396   5.597   0.404  16.509 -0.2002  1.2770  0.3670
 1067TIP3    H227397   5.731   0.473  16.489 -0.0764  0.4494 -1.9877
 1068TIP3   OH227398   5.714   4.938  17.506 -0.7442 -0.4708  0.0160
 1068TIP3    H127399   5.665   5.010  17.547  0.0443  0.5544 -0.7707
 1068TIP3    H227400   5.700   4.951  17.412  1.8519  0.5303 -0.3079
 1069TIP3   OH227401   0.643   4.645  17.794 -0.8340 -0.5857  0.2270
 1069TIP3    H127402   0.726   4.617  17.754 -0.5887 -1.0077  1.0106
 1069TIP3    H227403   0.662   4.650  17.888 -1.8563 -1.3032  0.4852
 1070TIP3   OH227404   6.681   5.322  17.764  0.2572  0.5133  0.0881
 1070TIP3    H127405   6.696   5.297  17.673 -0.6014  1.6522 -0.3976
 1070TIP3    H227406   6.758   5.375  17.787 -1.1372  3.3687 -1.2456
 1071TIP3   OH227407   2.426   4.900  15.754 -0.2816  0.4264  0.5737
 1071TIP3    H127408   2.374   4.861  15.825 -0.5719 -1.9285 -0.8291
 1071TIP3    H227409   2.465   4.825  15.709 -0.9567  1.7353 -2.4254
 1072TIP3   OH227410   3.614   3.205  19.217  0.0678 -0.1948  0.1648
 1072TIP3    H127411   3.538   3.259  19.234  2.5044  3.3045  1.0138
 1072TIP3    H227412   3.631   3.215  19.124 -0.7498 -1.4374 -0.1430
 1073TIP3   OH227413   2.803   5.117  19.480  0.2889  0.7353 -0.0800
 1073TIP3    H127414   2.812   5.091  19.389  2.3126  1.5959 -0.1856
 1073TIP3    H227415   2.721   5.166  19.483 -1.5269 -2.0419 -0.6771
 1074TIP3   OH227416   1.751   1.390  19.039 -0.2878 -0.2261 -0.2522
 1074TIP3    H127417   1.798   1.341  19.108 -0.5668  1.3927  1.1383
 1074TIP3    H227418   1.660   1.387  19.066 -0.4179  0.2985 -0.6283
 1075TIP3   OH227419   3.814   4.838  17.354 -0.0937  0.4862 -0.6585
 1075TIP3    H127420   3.794   4.754  17.314  0.6254  0.7901 -1.6756
 1075TIP3    H227421   3.806   4.822  17.448  2.0494 -1.2731 -0.7012
 1076TIP3   OH227422   5.580   0.521  18.965  0.0335  0.4424 -0.0626
 1076TIP3    H127423   5.586   0.582  19.039  2.3109 -0.1920  0.3500
 1076TIP3    H227424   5.527   0.449  18.999  1.1580  0.0936  1.0634
 1077TIP3   OH227425   1.797   3.667  16.835  0.1008 -0.0463 -1.0033
 1077TIP3    H127426   1.802   3.755  16.797  2.6507  0.5957  0.6008
 1077TIP3    H227427   1.758   3.614  16.765  0.8758  1.8373 -2.9976
 1078TIP3   OH227428   2.932   5.071  16.129 -0.1144  0.2753 -0.3479
 1078TIP3    H127429   2.938   4.978  16.107  0.6831  0.1174  0.5042
 1078TIP3    H227430   2.945   5.116  16.046  0.0152 -0.3585 -0.6753
 1079TIP3   OH227431   1.254   4.359  19.102 -0.2621 -0.2523 -0.0947
 1079TIP3    H127432   1.211   4.429  19.052  0.1431 -0.8522 -1.3415
 1079TIP3    H227433   1.182   4.310  19.142 -0.5429  0.8991  0.8426
 1080TIP3   OH227434   5.086   6.388  17.362 -0.2295  0.5636  0.4425
 1080TIP3    H127435   5.043   6.467  17.328  0.8747  0.7167 -0.6608
 1080TIP3    H227436   5.039   6.316  17.320 -0.1450  0.6933  0.1217
 1081TIP3   OH227437   2.786   1.025  19.408  0.2537  0.2897  0.4704
 1081TIP3    H127438   2.787   1.120  19.407 -0.6362  0.3562 -2.2804
 1081TIP3    H227439   2.714   1.002  19.468  0.7397  1.2819  1.4723
 1082TIP3   OH227440   3.094   3.057  18.278 -1.0643 -0.2885 -0.5529
 1082TIP3    H127441   3.113   3.136  18.226  0.5763 -1.3674 -1.6936
 1082TIP3    H227442   3.083   3.090  18.367  2.1979  1.0557 -0.4821
 1083TIP3   OH227443   6.431   6.258  17.764  0.4392  0.5120 -0.5374
 1083TIP3    H127444   6.344   6.237  17.799 -0.3912  0.4822 -2.5191
 1083TIP3    H227445   6.443   6.351  17.784  1.2873 -0.1212  2.3659
 1084TIP3   OH227446   6.121   1.107  16.864 -0.2906  0.5926  0.2857
 1084TIP3    H127447   6.119   1.127  16.771 -0.2872  1.5664  0.4858
 1084TIP3    H227448   6.207   1.137  16.894 -1.2143  2.6487  1.0803
 1085TIP3   OH227449   5.557   2.420  16.207 -0.1867  0.2006 -0.6802
 1085TIP3    H127450   5.617   2.363  16.158  1.2262  0.7374  0.3654
 1085TIP3    H227451   5.497   2.359  16.250  1.5457 -0.6267  0.7452
 1086TIP3   OH227452   1.889   2.923  16.786 -0.0166 -0.2943 -0.4537
 1086TIP3    H127453   1.983   2.934  16.801 -0.1041  0.0633 -0.1552
 1086TIP3    H227454   1.881   2.916  16.691  0.1064  1.9587 -0.6783
 1087TIP3   OH227455   0.049   1.099  16.508  0.2162 -0.0962  0.1859
 1087TIP3    H127456   0.093   1.184  16.514  0.1490 -0.0822  0.4655
 1087TIP3    H227457   0.071   1.055  16.590  1.8156 -1.0977 -0.7206
 1088TIP3   OH227458   3.162   4.202  17.240 -0.6234  0.2462  0.2305
 1088TIP3    H127459   3.073   4.205  17.275 -0.4073  1.7583  0.7447
 1088TIP3    H227460   3.190   4.112  17.252 -1.8144 -0.0719  0.7515
 1089TIP3   OH227461   6.747   1.071  18.790 -0.3774  0.2307  0.8177
 1089TIP3    H127462   6.825   1.060  18.844  1.3779  0.0931 -1.5619
 1089TIP3    H227463   6.775   1.125  18.717 -2.6788  0.5996  0.1030
 1090TIP3   OH227464   3.529   1.769  18.434 -0.1037  0.1806 -0.0207
 1090TIP3    H127465   3.436   1.761  18.411 -0.7592  1.0008  2.1314
 1090TIP3    H227466   3.575   1.762  18.350 -2.2053  1.7152 -1.3901
 1091TIP3   OH227467   4.624   1.625  18.827  0.2751 -0.7781 -0.9061
 1091TIP3    H127468   4.659   1.713  18.834 -1.6778 -0.0805  1.4013
 1091TIP3    H227469   4.645   1.584  18.911  0.1626 -2.1478 -1.5155
 1092TIP3   OH227470   0.372   0.501  18.681  0.0470 -0.2043  0.3729
 1092TIP3    H127471   0.336   0.421  18.642 -0.0908 -0.3206  0.7358
 1092TIP3    H227472   0.414   0.471  18.762 -0.8424  0.2191  1.0054
 1093TIP3   OH227473   3.317   4.961  18.035  0.4639  0.4633 -0.5361
 1093TIP3    H127474   3.390   4.958  18.097  0.7526 -0.2709 -0.9030
 1093TIP3    H227475   3.358   4.962  17.949  0.0449  0.3808 -0.7415
 1094TIP3   OH227476   2.442   2.694  19.233  0.2840 -0.3334 -0.2178
 1094TIP3    H127477   2.416   2.605  19.258 -0.5321 -0.0437 -0.0209
 1094TIP3    H227478   2.517   2.681  19.174  1.0378 -1.0977  0.8713
 1095TIP3   OH227479   0.776   3.744  17.921 -0.1407  0.4144 -0.2034
 1095TIP3    H127480   0.711   3.779  17.982 -0.8448 -0.3407 -0.5197
 1095TIP3    H227481   0.780   3.651  17.940 -0.8061  0.0581 -1.7099
 1096TIP3   OH227482   6.342   2.918  17.621 -0.2214 -0.5455  0.4464
 1096TIP3    H127483   6.371   2.871  17.699 -1.7770 -0.1424  1.2991
 1096TIP3    H227484   6.365   3.010  17.638  1.2779 -0.7170 -0.4818
 1097TIP3   OH227485   0.083   0.233  18.646  0.7251  0.1456 -0.2370
 1097TIP3    H127486   0.142   0.195  18.711  0.3903  1.1105  0.6504
 1097TIP3    H227487   0.141   0.265  18.577  1.1177 -0.4450 -0.1856
 1098TIP3   OH227488   6.364   3.185  18.441 -0.6029 -0.0166 -0.6631
 1098TIP3    H127489   6.378   3.092  18.460 -1.8828 -0.2401 -0.7479
 1098TIP3    H227490   6.323   3.186  18.355 -0.2499  0.6586 -0.8281
 1099TIP3   OH227491   3.554   2.213  18.507  0.4617  0.5265  0.0857
 1099TIP3    H127492   3.611   2.278  18.548 -0.6361  1.8621 -0.4325
 1099TIP3    H227493   3.574   2.218  18.414  0.1581  0.3350  0.0074
 1100TIP3   OH227494   4.475   2.904  18.129 -0.0720 -0.3815 -0.1228
 1100TIP3    H127495   4.407   2.958  18.090  0.3817 -0.8850 -1.6909
 1100TIP3    H227496   4.428   2.837  18.179 -0.6725  0.0369 -0.1161
 1101TIP3   OH227497   4.620   5.359  18.944  0.0396 -0.2277  0.0084
 1101TIP3    H127498   4.653   5.417  18.876  1.3802  0.7478  1.4387
 1101TIP3    H227499   4.525   5.368  18.938 -0.0040 -1.4822 -2.8051
 1102TIP3   OH227500   6.094   0.140  17.903 -0.3012 -0.6812  0.0350
 1102TIP3    H127501   6.070   0.177  17.818 -0.4054 -1.5413 -0.3277
 1102TIP3    H227502   6.043   0.058  17.908  0.7378 -1.3270  0.3226
 1103TIP3   OH227503   3.341   3.612  17.462 -0.2054 -0.4273 -0.1456
 1103TIP3    H127504   3.313   3.583  17.375 -1.2224 -0.4192  0.1676
 1103TIP3    H227505   3.360   3.705  17.452  0.3285 -0.5697 -0.5038
 1104TIP3   OH227506   6.178   4.162  18.337  0.1815  0.1869  0.2441
 1104TIP3    H127507   6.156   4.249  18.369 -1.5718 -0.3890  0.7428
 1104TIP3    H227508   6.249   4.132  18.394 -1.1761  0.1803  2.0362
 1105TIP3   OH227509   6.287   5.292  16.204 -0.5013 -0.0050 -0.4587
 1105TIP3    H127510   6.257   5.357  16.141 -0.0994  0.0735 -0.5746
 1105TIP3    H227511   6.208   5.263  16.249 -0.7725  0.0258 -0.9161
 1106TIP3   OH227512   1.342   1.637  17.513  0.1395 -0.1928  0.0753
 1106TIP3    H127513   1.370   1.727  17.533 -0.7950 -0.1473  1.2852
 1106TIP3    H227514   1.260   1.648  17.464  0.7447 -0.3794 -1.0115
 1107TIP3   OH227515   6.132   0.994  19.444 -0.4239 -0.2506  0.0151
 1107TIP3    H127516   6.111   0.907  19.410 -0.1235 -0.2683 -0.1301
 1107TIP3    H227517   6.103   0.992  19.535  2.6933 -1.6906  1.0998
 1108TIP3   OH227518   2.230   3.468  19.566 -0.4822  0.4746  0.0270
 1108TIP3    H127519   2.220   3.528  19.491  1.3547 -0.5046 -1.0717
 1108TIP3    H227520   2.153   3.486  19.621 -0.9930  2.4580 -1.2080
 1109TIP3   OH227521   3.622   1.021  16.222  0.2125 -0.2055  0.2514
 1109TIP3    H127522   3.618   0.988  16.312 -2.1153  1.0368  0.6862
 1109TIP3    H227523   3.712   1.051  16.212  0.5422 -0.3987  2.1727
 1110TIP3   OH227524   0.441   2.534  18.617 -0.3592 -0.6104  0.6103
 1110TIP3    H127525   0.451   2.439  18.625 -0.7891 -0.7188 -0.0599
 1110TIP3    H227526   0.379   2.545  18.545  1.0271  0.2126 -0.5292
 1111TIP3   OH227527   1.156   4.152  18.000  0.2523  0.0176 -0.3774
 1111TIP3    H127528   1.092   4.161  17.929  2.4134  0.4415 -2.3860
 1111TIP3    H227529   1.164   4.058  18.013 -1.8941 -0.0388  1.0670
 1112TIP3   OH227530   3.664   1.901  16.997  0.2686  0.4136  0.1359
 1112TIP3    H127531   3.669   1.815  17.037  1.2723  1.4397  2.3972
 1112TIP3    H227532   3.586   1.941  17.035  0.3179  0.8273 -0.1873
 1113TIP3   OH227533   6.472   4.539  17.895  0.3438  0.5254  0.3131
 1113TIP3    H127534   6.378   4.554  17.901 -0.4156 -2.0705 -2.6231
 1113TIP3    H227535   6.509   4.625  17.876 -1.9293  1.1093 -2.0680
 1114TIP3   OH227536   3.061   2.346  16.844  0.0707  0.4203 -0.4278
 1114TIP3    H127537   2.995   2.411  16.821 -0.6553 -0.4256 -0.7617
 1114TIP3    H227538   3.077   2.298  16.763  1.2830  0.7606 -0.4206
 1115TIP3   OH227539   4.192   5.123  18.021 -0.0328 -0.1317  0.0587
 1115TIP3    H127540   4.267   5.170  18.058 -0.2034  0.1000  0.1189
 1115TIP3    H227541   4.121   5.138  18.084 -0.0584 -0.5657  0.1301
 1116TIP3   OH227542   1.708   4.331  19.341  0.6431  0.1069 -0.4210
 1116TIP3    H127543   1.654   4.257  19.369 -0.1475  1.6238  2.4330
 1116TIP3    H227544   1.691   4.338  19.247 -2.6618 -0.6927 -0.0096
 1117TIP3   OH227545   1.247   1.106  16.374 -0.8853  0.1477 -0.5999
 1117TIP3    H127546   1.226   1.130  16.284 -2.8260  2.8202  0.4142
 1117TIP3    H227547   1.181   1.040  16.397 -0.1369 -0.8406 -1.1899
 1118TIP3   OH227548   3.421   0.519  16.657 -0.4390  0.4472  0.1126
 1118TIP3    H127549   3.451   0.607  16.635  0.2728 -0.2152 -1.7631
 1118TIP3    H227550   3.494   0.480  16.706 -1.2428  1.2577  2.0676
 1119TIP3   OH227551   3.562   3.922  17.894  0.0560 -0.0011 -0.4260
 1119TIP3    H127552   3.502   3.851  17.918  1.2334 -0.7680  0.3718
 1119TIP3    H227553   3.584   3.905  17.803  1.9268 -1.9413  0.3055
 1120TIP3   OH227554   2.720   6.362  17.041  0.7218 -0.2625  0.5404
 1120TIP3    H127555   2.635   6.318  17.045  0.7488 -0.2708  1.2771
 1120TIP3    H227556   2.784   6.291  17.046  0.7650 -0.1664  1.7892
 1121TIP3   OH227557   2.193   3.687  18.487 -0.2417 -0.4898  0.3235
 1121TIP3    H127558   2.121   3.645  18.440 -0.2914  0.0387 -0.0781
 1121TIP3    H227559   2.166   3.779  18.495  0.4913 -0.2375 -0.0355
 1122TIP3   OH227560   4.469   1.202  17.080 -0.1034 -0.2684 -0.4014
 1122TIP3    H127561   4.515   1.275  17.038 -1.7272  0.5887 -0.7782
 1122TIP3    H227562   4.389   1.191  17.028 -1.3211 -0.3637  1.3991
 1123TIP3   OH227563   1.672   1.594  18.327 -0.3469  0.0718 -0.4846
 1123TIP3    H127564   1.732   1.556  18.391 -0.4742  1.3238  0.4217
 1123TIP3    H227565   1.721   1.595  18.245  0.4483  0.0239 -0.0155
 1124TIP3   OH227566   2.826   5.717  17.828 -0.2050 -0.1975  0.4671
 1124TIP3    H127567   2.910   5.673  17.814  0.6788  1.1137  1.3866
 1124TIP3    H227568   2.819   5.778  17.755  0.3024  0.6357  1.1016
 1125TIP3   OH227569   2.384   5.852  19.381 -0.2214  0.0215  0.0072
 1125TIP3    H127570   2.346   5.879  19.464  0.1671 -3.4983  1.5129
 1125TIP3    H227571   2.312   5.809  19.334 -0.0795  0.7021 -0.8614
 1126TIP3   OH227572   4.857   0.040  16.177  0.4456  0.0880 -0.1865
 1126TIP3    H127573   4.912   0.064  16.251  0.3161  0.0287 -0.0713
 1126TIP3    H227574   4.880   0.104  16.109  2.0142 -1.0362 -0.7927
 1127TIP3   OH227575   3.362   1.722  17.735  0.1350  0.0948 -0.2322
 1127TIP3    H127576   3.333   1.810  17.713  1.5356  0.2619 -1.5552
 1127TIP3    H227577   3.334   1.668  17.660 -1.3713 -0.7697  0.8917
 1128TIP3   OH227578   0.049   6.167  17.382  0.8977 -0.0557  0.2502
 1128TIP3    H127579   0.075   6.076  17.396  1.1952 -0.3087 -1.7082
 1128TIP3    H227580  -0.045   6.167  17.399  0.7337 -0.9432 -0.5439
 1129TIP3   OH227581   2.093   4.014  18.787 -0.0663 -0.5852 -0.0045
 1129TIP3    H127582   2.036   4.090  18.788 -0.4968 -0.9103  0.9505
 1129TIP3    H227583   2.141   4.021  18.704  0.0574  0.8268  0.1649
 1130TIP3   OH227584   4.485   2.372  16.255  0.7976 -0.7012 -0.9088
 1130TIP3    H127585   4.521   2.333  16.176  0.3913 -1.1766 -0.8664
 1130TIP3    H227586   4.416   2.312  16.283  0.7152 -0.3736 -0.3758
 1131TIP3   OH227587   3.678   5.382  17.577 -0.4259 -0.2182  0.2138
 1131TIP3    H127588   3.695   5.452  17.514 -1.2686 -0.9423 -0.8755
 1131TIP3    H227589   3.713   5.414  17.659  0.9114  0.6862 -0.6700
 1132TIP3   OH227590   3.399   5.457  16.614  0.3165  0.4297  0.1904
 1132TIP3    H127591   3.388   5.428  16.704  0.0781  0.4536  0.1677
 1132TIP3    H227592   3.494   5.462  16.602  0.3533  1.9294  0.9282
 1133TIP3   OH227593   0.324   1.262  15.881 -0.6863 -0.5858  0.2864
 1133TIP3    H127594   0.291   1.296  15.964 -1.0109 -1.6151  0.5910
 1133TIP3    H227595   0.246   1.254  15.826 -0.4942 -0.0592 -0.0575
 1134TIP3   OH227596   6.232   4.842  17.578 -0.2894 -0.4471 -0.0707
 1134TIP3    H127597   6.253   4.819  17.488 -0.5001  1.7159 -0.7201
 1134TIP3    H227598   6.165   4.910  17.571  1.6521  1.7950  1.5891
 1135TIP3   OH227599   3.849   5.819  18.316 -0.0190 -0.2468  0.1944
 1135TIP3    H127600   3.893   5.812  18.401 -0.8409 -0.3322  0.6284
 1135TIP3    H227601   3.820   5.730  18.297 -0.0215 -0.1890 -0.0737
 1136TIP3   OH227602   4.503   4.782  19.184  0.2730 -0.5297 -0.5908
 1136TIP3    H127603   4.507   4.860  19.128 -1.4561  0.0767  0.0570
 1136TIP3    H227604   4.452   4.719  19.134  1.1870 -1.0654 -0.8739
 1137TIP3   OH227605   6.714   2.163  16.967  0.1166  0.3211 -0.1423
 1137TIP3    H127606   6.695   2.091  17.028  1.7724 -0.0707 -0.0446
 1137TIP3    H227607   6.633   2.213  16.963 -0.8657 -1.1720  0.3164
 1138TIP3   OH227608   5.878   5.800  17.012  0.1779  0.3878 -0.5612
 1138TIP3    H127609   5.873   5.739  16.938 -1.2264  1.1146 -1.0851
 1138TIP3    H227610   5.794   5.791  17.057  0.2670  1.3549 -0.1793
 1139TIP3   OH227611   3.177   1.871  16.029  0.1463  0.2607  0.5953
 1139TIP3    H127612   3.223   1.908  15.953  2.2996 -0.9381  1.2380
 1139TIP3    H227613   3.084   1.881  16.008  0.6224  3.0138 -0.6885
 1140TIP3   OH227614   4.899   0.525  16.520  0.3556  0.5815 -0.5107
 1140TIP3    H127615   4.931   0.436  16.532  2.7487  1.7023  3.9559
 1140TIP3    H227616   4.968   0.569  16.470  2.0967  1.0495  2.0801
 1141TIP3   OH227617   5.078   2.727  17.889  0.1276 -0.1887 -0.0227
 1141TIP3    H127618   5.033   2.647  17.916  0.7597 -0.6657 -0.3521
 1141TIP3    H227619   5.096   2.773  17.971  0.0503 -0.5415  0.1976
 1142TIP3   OH227620   2.555   6.385  19.502 -0.1262  0.0750  0.1559
 1142TIP3    H127621   2.509   6.409  19.422 -0.0221 -0.0976  0.0455
 1142TIP3    H227622   2.485   6.360  19.563 -0.1191 -1.3738 -0.4029
 1143TIP3   OH227623   4.879   3.262  17.281 -0.1170 -0.3601 -0.0748
 1143TIP3    H127624   4.874   3.311  17.199 -2.2156 -0.0005  0.2162
 1143TIP3    H227625   4.877   3.170  17.255  0.7821 -0.2755 -0.4767
 1144TIP3   OH227626   2.114   5.859  16.682  0.1436  0.0284  0.2109
 1144TIP3    H127627   2.200   5.832  16.715  0.5234  0.2673 -0.5741
 1144TIP3    H227628   2.088   5.931  16.740 -0.1085 -0.8735  1.2434
 1145TIP3   OH227629   6.040   4.051  18.110 -0.0287 -0.1545 -0.0067
 1145TIP3    H127630   6.102   4.076  18.042  2.1662 -2.4981  1.0046
 1145TIP3    H227631   6.084   4.072  18.192 -0.8583 -1.2290  0.7461
 1146TIP3   OH227632   0.010   4.132  18.290  0.3264  0.1347  0.3484
 1146TIP3    H127633  -0.049   4.205  18.272 -0.1973 -0.1411  0.9043
 1146TIP3    H227634  -0.003   4.113  18.383 -0.1095 -1.1450  0.0426
 1147TIP3   OH227635   0.499   5.914  18.033 -0.0547  0.4030  0.3658
 1147TIP3    H127636   0.474   5.945  18.121  0.7657 -0.7978  1.0430
 1147TIP3    H227637   0.582   5.869  18.046  0.3526  0.6701 -1.1424
 1148TIP3   OH227638   3.932   1.519  17.151 -0.3144 -0.2006 -0.2215
 1148TIP3    H127639   4.021   1.489  17.135 -0.5402 -1.4557  0.7126
 1148TIP3    H227640   3.881   1.439  17.160 -1.3741  0.4873  0.1421
 1149TIP3   OH227641   3.438   0.084  16.605 -0.2091  0.0451 -0.1529
 1149TIP3    H127642   3.382   0.006  16.600 -1.6409  0.9821  0.7904
 1149TIP3    H227643   3.378   0.158  16.595  1.2053  1.0552 -1.6595
 1150TIP3   OH227644   1.135   1.288  19.008 -0.2522 -0.1207 -0.0365
 1150TIP3    H127645   1.230   1.273  19.012 -0.3718 -1.4182 -1.2612
 1150TIP3    H227646   1.104   1.269  19.096  0.4554 -1.1444  0.0063
 1151TIP3   OH227647   0.651   6.550  16.667  0.0906  0.4544  0.6863
 1151TIP3    H127648   0.669   6.644  16.662  0.2217  0.4127  0.3803
 1151TIP3    H227649   0.686   6.514  16.586 -1.4846  0.3936 -0.0145
 1152TIP3   OH227650   3.279   5.015  17.505 -0.2826 -0.4546  0.5717
 1152TIP3    H127651   3.369   4.984  17.514 -0.1210 -0.3585 -0.6096
 1152TIP3    H227652   3.258   5.004  17.413 -1.6670 -0.9472  0.9184
 1153TIP3   OH227653   0.370   6.573  17.328 -0.4404 -0.0495 -0.7939
 1153TIP3    H127654   0.307   6.509  17.359 -0.6969  0.2315 -0.7310
 1153TIP3    H227655   0.339   6.657  17.363  1.0096 -0.1417  0.8632
 1154TIP3   OH227656   2.499   2.526  17.931  0.4146  0.3124 -0.6106
 1154TIP3    H127657   2.525   2.617  17.918 -0.7896  0.7193 -0.3110
 1154TIP3    H227658   2.480   2.494  17.842 -1.0429  0.9671 -0.5618
 1155TIP3   OH227659   3.699   6.569  17.875 -0.0578  0.2731  0.7578
 1155TIP3    H127660   3.764   6.502  17.891  1.2742  1.4598  0.5197
 1155TIP3    H227661   3.663   6.591  17.961  2.1961  1.8490  1.3832
 1156TIP3   OH227662   4.773   1.728  17.492 -0.1026 -0.2267  0.3611
 1156TIP3    H127663   4.723   1.646  17.488 -0.8267  0.1955  0.5946
 1156TIP3    H227664   4.721   1.791  17.442  0.1039  0.2657  0.7503
 1157TIP3   OH227665   5.938   2.818  18.247 -0.4582  0.0954  0.3888
 1157TIP3    H127666   5.998   2.843  18.177 -0.0998 -2.4191 -0.2997
 1157TIP3    H227667   5.994   2.776  18.313 -0.9440  1.4280  1.7151
 1158TIP3   OH227668   0.065   4.005  17.747 -0.4322  0.3616 -0.0809
 1158TIP3    H127669   0.130   3.997  17.678 -0.0177  1.2584  0.1797
 1158TIP3    H227670   0.017   3.923  17.746  1.1373 -0.6046  0.1532
 1159TIP3   OH227671   3.839   6.750  16.011  0.3373 -0.0671  0.1263
 1159TIP3    H127672   3.801   6.777  15.928 -0.7363 -0.4099  0.4897
 1159TIP3    H227673   3.866   6.659  15.998  0.4864 -0.0144  0.0582
 1160TIP3   OH227674   3.678   4.859  17.840 -0.4166  0.1756  0.5018
 1160TIP3    H127675   3.613   4.789  17.848 -0.7206  0.4914  0.7911
 1160TIP3    H227676   3.690   4.891  17.929 -0.9388  1.0934  0.2491
 1161TIP3   OH227677   2.052   1.188  16.865 -0.3170  0.2393  0.3189
 1161TIP3    H127678   1.986   1.119  16.868  2.1732 -2.6743 -2.9657
 1161TIP3    H227679   2.119   1.161  16.928  0.8300 -0.6714 -1.2208
 1162TIP3   OH227680   1.767   0.333  15.895  0.2530 -0.2848 -0.6505
 1162TIP3    H127681   1.811   0.267  15.842 -0.6250  0.3590 -2.2530
 1162TIP3    H227682   1.716   0.384  15.832 -0.3110  0.9410  0.7444
 1163TIP3   OH227683   4.515   0.311  16.267  0.5473 -0.2150 -0.0426
 1163TIP3    H127684   4.423   0.333  16.278  0.8267  0.4541  1.1235
 1163TIP3    H227685   4.562   0.384  16.308  1.6364  0.2590 -2.0025
 1164TIP3   OH227686   5.163   3.123  16.899 -0.4682  0.0112 -0.4075
 1164TIP3    H127687   5.068   3.138  16.895 -0.8945 -2.5450 -1.8056
 1164TIP3    H227688   5.190   3.119  16.808  0.7305 -0.6568 -0.0350
 1165TIP3   OH227689   3.153   0.356  15.741  0.0641 -0.1275 -0.3018
 1165TIP3    H127690   3.091   0.310  15.799 -1.0919  0.2471 -1.1935
 1165TIP3    H227691   3.176   0.435  15.789 -1.7275  0.7222 -0.7522
 1166TIP3   OH227692   6.355   4.958  17.112  0.1802 -0.0823  0.1790
 1166TIP3    H127693   6.366   4.864  17.099 -0.3996 -0.2403  0.7879
 1166TIP3    H227694   6.430   4.983  17.166 -0.2602 -0.4044  0.9471
 1167TIP3   OH227695   3.917   5.963  16.600  0.1352 -0.1817  0.0083
 1167TIP3    H127696   3.907   5.979  16.693 -1.0798  1.1382 -0.3194
 1167TIP3    H227697   4.004   5.925  16.591  2.0697  3.5175  1.2541
 1168TIP3   OH227698   5.710   0.566  16.956  0.2704  0.3271 -0.0084
 1168TIP3    H127699   5.660   0.549  16.876  1.7999  1.2245 -1.2133
 1168TIP3    H227700   5.652   0.619  17.010 -0.1923  1.1654 -1.2728
 1169TIP3   OH227701   2.658   1.282  17.168 -0.0551 -0.5248 -0.1812
 1169TIP3    H127702   2.578   1.233  17.147  0.0067 -1.0009  0.6732
 1169TIP3    H227703   2.640   1.321  17.253  1.0573 -1.5804  0.5565
 1170TIP3   OH227704   4.153   0.890  18.940 -0.2465 -0.0624  0.7488
 1170TIP3    H127705   4.223   0.849  18.889 -0.7428 -0.4223  0.3533
 1170TIP3    H227706   4.161   0.983  18.919 -1.7262 -0.4047 -1.6442
 1171TIP3   OH227707   4.926   2.722  19.052  0.0478 -0.0965 -0.1757
 1171TIP3    H127708   4.871   2.684  18.983 -1.1492  0.7251  0.2814
 1171TIP3    H227709   4.934   2.814  19.027  0.7076 -0.0772  0.0974
 1172TIP3   OH227710   1.713   0.412  19.211 -0.2962 -0.0465  0.1260
 1172TIP3    H127711   1.713   0.318  19.192 -0.4410  0.0763 -0.4818
 1172TIP3    H227712   1.675   0.418  19.299 -0.1754 -0.5642  0.2196
 1173TIP3   OH227713   2.106   4.797  17.248  0.1148  0.9820  0.3437
 1173TIP3    H127714   2.079   4.856  17.319 -0.6465 -0.0289  0.9205
 1173TIP3    H227715   2.182   4.751  17.282 -0.0905  0.6881  0.4105
 1174TIP3   OH227716   1.891   2.639  17.101  0.1315  0.4137 -0.2019
 1174TIP3    H127717   1.951   2.648  17.027 -1.3589 -0.0836 -1.5304
 1174TIP3    H227718   1.830   2.712  17.091  0.1798  0.6156  0.8299
 1175TIP3   OH227719   1.871   4.126  18.357 -0.2822  0.0696 -0.0373
 1175TIP3    H127720   1.940   4.185  18.330 -1.8367  2.1484  0.2551
 1175TIP3    H227721   1.815   4.116  18.280 -0.0010 -1.1309 -0.1115
 1176TIP3   OH227722   6.453   6.167  16.471  0.0614 -0.4818  0.1788
 1176TIP3    H127723   6.445   6.262  16.480 -1.1509 -0.4576 -0.8442
 1176TIP3    H227724   6.405   6.132  16.546  1.3980 -0.3168  1.1496
 1177TIP3   OH227725   1.808   2.439  18.317  0.0131  0.0776 -0.3420
 1177TIP3    H127726   1.857   2.426  18.236  0.9540  1.2347  0.0125
 1177TIP3    H227727   1.864   2.495  18.371 -0.4231 -0.9478  1.2643
 1178TIP3   OH227728   4.088   4.052  17.731 -0.3903  0.5619 -0.3637
 1178TIP3    H127729   4.099   4.101  17.649  0.2299  3.4453  1.2912
 1178TIP3    H227730   4.018   4.098  17.777 -1.2538 -1.4715  0.4431
 1179TIP3   OH227731   4.999   1.676  17.089  0.1414  0.1384 -0.1727
 1179TIP3    H127732   5.033   1.679  17.179 -0.7118  1.5096  0.1207
 1179TIP3    H227733   4.905   1.687  17.098  0.0500  0.3664 -1.2455
 1180TIP3   OH227734   5.846   4.670  17.116  0.1849  0.0200  0.2929
 1180TIP3    H127735   5.936   4.678  17.147  0.3406 -0.4316 -0.0201
 1180TIP3    H227736   5.848   4.707  17.028 -0.5961  2.7675  1.3369
 1181TIP3   OH227737   4.122   3.699  17.799  0.0419  0.1112  0.2204
 1181TIP3    H127738   4.201   3.710  17.746 -0.2264 -0.0386 -0.2163
 1181TIP3    H227739   4.075   3.628  17.756  0.3834 -0.8231  1.3459
 1182TIP3   OH227740   2.696   1.933  19.497 -0.2617  0.3678 -0.2623
 1182TIP3    H127741   2.667   2.023  19.477  0.0483  0.4740 -0.2381
 1182TIP3    H227742   2.681   1.923  19.591  0.9594  0.8685  0.0097
 1183TIP3   OH227743   3.749   2.566  18.493  0.3761 -0.1669  0.2849
 1183TIP3    H127744   3.761   2.637  18.555 -0.4310 -0.1176  0.3943
 1183TIP3    H227745   3.743   2.487  18.547  1.0651 -0.3093  0.1740
 1184TIP3   OH227746   5.344   4.514  17.603  0.4658 -0.2824  0.7143
 1184TIP3    H127747   5.364   4.437  17.549  0.3719  0.6475 -0.6984
 1184TIP3    H227748   5.405   4.581  17.574 -0.6277  0.7231  0.6513
 1185TIP3   OH227749   0.203   3.574  17.422  0.3094  0.7840 -0.1203
 1185TIP3    H127750   0.221   3.510  17.492  1.0702  0.7411 -0.3562
 1185TIP3    H227751   0.283   3.577  17.370 -1.1340 -1.3421 -2.7323
 1186TIP3   OH227752   2.373   2.174  17.525 -0.6873  0.3325  0.2183
 1186TIP3    H127753   2.354   2.248  17.468 -0.1324 -0.7285 -1.3910
 1186TIP3    H227754   2.329   2.099  17.485 -0.6849 -0.3660  1.4499
 1187TIP3   OH227755   0.377   1.463  18.448  0.5159 -0.1988  0.1274
 1187TIP3    H127756   0.302   1.472  18.507  0.6920 -0.5505  0.4063
 1187TIP3    H227757   0.444   1.420  18.500  0.7842 -0.2224 -0.2333
 1188TIP3   OH227758   1.486   3.134  16.063  0.4514 -0.3806 -0.0978
 1188TIP3    H127759   1.569   3.145  16.109 -0.0466  1.1076  0.5161
 1188TIP3    H227760   1.474   3.217  16.015 -0.1751 -0.9843 -1.0363
 1189TIP3   OH227761   0.841   1.625  16.076 -0.6388 -0.0613  0.4981
 1189TIP3    H127762   0.824   1.541  16.033  0.2858  0.5466 -1.1558
 1189TIP3    H227763   0.775   1.684  16.041  0.0010  0.3947  0.0286
 1190TIP3   OH227764   2.903   1.792  19.386 -0.1824  0.3589 -0.6675
 1190TIP3    H127765   2.858   1.810  19.304  0.6509 -1.4906 -1.5696
 1190TIP3    H227766   2.832   1.786  19.451 -0.9232  0.8582 -1.4096
 1191TIP3   OH227767   5.357   6.388  16.381  0.3071  0.0383 -0.2221
 1191TIP3    H127768   5.444   6.410  16.414  0.8096 -1.0349 -0.7780
 1191TIP3    H227769   5.342   6.450  16.310  1.3000 -0.7319 -1.1480
 1192TIP3   OH227770   2.404   5.453  17.895  0.4292  0.3207  0.0663
 1192TIP3    H127771   2.479   5.422  17.946 -1.0208 -0.2216  2.0045
 1192TIP3    H227772   2.385   5.381  17.835  0.7593 -0.0296  0.3784
 1193TIP3   OH227773   0.760   6.025  18.987 -0.4160 -0.4478  0.7333
 1193TIP3    H127774   0.774   6.007  18.894 -0.2028  2.2353  0.1570
 1193TIP3    H227775   0.669   6.052  18.992 -0.8055 -1.8130  1.5828
 1194TIP3   OH227776   2.056   2.744  18.708  0.0103 -0.2575  0.6173
 1194TIP3    H127777   2.133   2.752  18.764  0.3448 -1.0005  0.2832
 1194TIP3    H227778   2.083   2.782  18.625 -0.4099  0.6333  0.8766
 1195TIP3   OH227779   2.871   3.188  19.594  0.1173  0.6387 -0.0128
 1195TIP3    H127780   2.922   3.264  19.564  0.8521 -0.0733 -0.5797
 1195TIP3    H227781   2.797   3.227  19.641  0.7527  1.7077  0.1425
 1196TIP3   OH227782   4.368   2.437  18.546  0.1860  0.3911 -0.9158
 1196TIP3    H127783   4.422   2.361  18.526  0.9251  0.8296 -0.6535
 1196TIP3    H227784   4.278   2.406  18.540  0.4712 -0.3723 -1.3075
 1197TIP3   OH227785   1.229   3.589  16.049 -0.5715 -0.2861 -0.7605
 1197TIP3    H127786   1.152   3.635  16.017 -0.4529  0.4864  0.0012
 1197TIP3    H227787   1.260   3.644  16.122 -1.5330 -2.5382  1.4982
 1198TIP3   OH227788   1.529   2.913  16.597 -0.2689 -0.7977  0.6189
 1198TIP3    H127789   1.468   2.841  16.582  1.3531 -1.8438 -1.4525
 1198TIP3    H227790   1.575   2.924  16.513  0.8655  1.3973  1.4355
 1199TIP3   OH227791   2.885   4.239  17.986 -0.0296 -0.6543  0.0601
 1199TIP3    H127792   2.886   4.176  18.059  1.4341  1.5515  2.1128
 1199TIP3    H227793   2.929   4.317  18.021 -0.0208  0.8534 -2.9592
 1200TIP3   OH227794   5.342   1.209  16.294  0.2087  0.1299 -0.0391
 1200TIP3    H127795   5.272   1.272  16.274 -0.7643 -0.6842  0.6710
 1200TIP3    H227796   5.298   1.124  16.292  0.6154 -0.2411  2.6508
 1201TIP3   OH227797   4.370   0.330  16.681 -0.4384  0.1302 -0.0992
 1201TIP3    H127798   4.377   0.374  16.596  0.8441  0.0793 -0.0427
 1201TIP3    H227799   4.329   0.395  16.738 -0.8327  0.3547 -0.6258
 1202TIP3   OH227800   5.281   3.495  17.286 -0.0475  0.3435 -0.8891
 1202TIP3    H127801   5.349   3.506  17.353 -1.0274 -0.4142  0.2563
 1202TIP3    H227802   5.259   3.402  17.289  0.9836 -0.0636 -3.3966
 1203TIP3   OH227803   6.286   0.491  15.771  0.5049  0.3960  0.3324
 1203TIP3    H127804   6.220   0.454  15.712 -0.8537 -0.5670  2.3335
 1203TIP3    H227805   6.252   0.578  15.793  0.6505  0.4741  0.2505
 1204TIP3   OH227806   4.688   1.661  16.204 -0.1454 -0.1537  0.4032
 1204TIP3    H127807   4.686   1.566  16.191 -1.8684  0.0096 -0.8043
 1204TIP3    H227808   4.731   1.695  16.126 -0.3801  0.1162  0.3921
 1205TIP3   OH227809   1.931   6.686  19.064 -0.3244  0.5243  0.1775
 1205TIP3    H127810   2.022   6.671  19.040  0.4647  0.1325  3.0091
 1205TIP3    H227811   1.895   6.598  19.077 -1.3403  0.6504 -1.5070
 1206TIP3   OH227812   6.609   0.249  18.245 -0.1926  0.3496  0.0792
 1206TIP3    H127813   6.544   0.278  18.309  0.6256  1.2855  0.5233
 1206TIP3    H227814   6.593   0.305  18.169 -0.3410  0.1237 -0.0544
 1207TIP3   OH227815   3.300   2.042  18.210  0.4874  0.6304 -0.4983
 1207TIP3    H127816   3.290   1.980  18.137 -0.1055  1.2741 -0.9717
 1207TIP3    H227817   3.263   1.996  18.285  0.8787  0.0537 -0.6541
 1208TIP3   OH227818   2.142   5.717  19.297 -0.0365 -0.2736 -0.0654
 1208TIP3    H127819   2.127   5.627  19.327 -1.0739  0.5084  1.9181
 1208TIP3    H227820   2.057   5.759  19.304  0.3507  0.8031 -1.3327
 1209TIP3   OH227821   3.679   4.126  19.293  0.2957 -0.3460  0.2282
 1209TIP3    H127822   3.632   4.181  19.230 -1.0705 -0.8883  0.7257
 1209TIP3    H227823   3.716   4.055  19.241  1.6646  0.7739 -0.3496
 1210TIP3   OH227824   0.292   1.519  17.870 -0.5584 -0.0521  0.5675
 1210TIP3    H127825   0.327   1.567  17.795 -2.4675 -1.3671 -1.2898
 1210TIP3    H227826   0.363   1.518  17.934  0.4099  2.9904 -0.3012
 1211TIP3   OH227827   1.737   1.478  18.733 -0.2502 -0.3705 -0.4321
 1211TIP3    H127828   1.775   1.473  18.820  1.8585 -0.2159 -1.2885
 1211TIP3    H227829   1.643   1.493  18.748 -0.1968 -1.8513  1.7946
 1212TIP3   OH227830   3.878   4.516  19.314 -0.0212 -0.4865 -0.3879
 1212TIP3    H127831   3.818   4.477  19.378  1.3502 -1.6708  0.2310
 1212TIP3    H227832   3.822   4.537  19.239 -1.2387 -1.3994  0.2239
 1213TIP3   OH227833   1.032   1.282  16.927  0.5926 -0.1597  0.4457
 1213TIP3    H127834   1.103   1.328  16.971  1.3821 -0.0583 -0.8663
 1213TIP3    H227835   0.998   1.345  16.863  1.0760 -1.0451 -0.7288
 1214TIP3   OH227836   0.593   2.968  19.633 -0.2161  0.1804 -0.3839
 1214TIP3    H127837   0.641   3.051  19.626  0.7046 -0.2636  0.3372
 1214TIP3    H227838   0.660   2.904  19.658 -0.7305 -0.9822 -1.8272
 1215TIP3   OH227839   4.847   2.531  17.632 -0.5142 -0.5431  0.4127
 1215TIP3    H127840   4.939   2.539  17.607 -0.9097  0.9938 -0.6446
 1215TIP3    H227841   4.846   2.549  17.726  0.0959  1.0100  0.1472
 1216TIP3   OH227842   3.526   4.740  17.066  0.2950 -0.3897  0.2897
 1216TIP3    H127843   3.517   4.682  16.991  0.0478  0.7220 -0.5615
 1216TIP3    H227844   3.619   4.760  17.071  0.2232  0.0305 -0.0955
 1217TIP3   OH227845   2.299   2.793  18.819 -0.2153  0.0201  0.3000
 1217TIP3    H127846   2.297   2.799  18.914  0.5773 -0.1808  0.3367
 1217TIP3    H227847   2.329   2.704  18.801  0.0258  0.1819 -0.1278
 1218TIP3   OH227848   0.158   1.598  19.268 -0.5662 -0.0377  0.6054
 1218TIP3    H127849   0.163   1.575  19.176 -1.5749 -0.0294  0.5367
 1218TIP3    H227850   0.175   1.516  19.315  1.5814  0.2715  0.4661
 1219TIP3   OH227851   1.868   4.684  18.038  0.2062  0.7729 -1.1239
 1219TIP3    H127852   1.922   4.752  18.079 -2.7621  1.9352  1.2907
 1219TIP3    H227853   1.890   4.604  18.086 -1.1521  1.5373  0.8806
 1220TIP3   OH227854   4.841   5.999  18.804 -0.4347  0.4166 -0.0391
 1220TIP3    H127855   4.763   5.978  18.855  0.4930 -0.1410  1.2150
 1220TIP3    H227856   4.903   6.033  18.868  0.7205 -0.1694 -0.8126
 1221TIP3   OH227857   0.293   3.849  18.243 -0.3894  0.0217  0.4979
 1221TIP3    H127858   0.334   3.859  18.329 -1.2272 -0.5386  0.9650
 1221TIP3    H227859   0.325   3.765  18.211  1.2826  0.9810 -0.5060
 1222TIP3   OH227860   3.510   3.903  18.282 -0.2785  0.2771  0.7607
 1222TIP3    H127861   3.579   3.838  18.298 -2.2202 -2.3420 -0.5468
 1222TIP3    H227862   3.541   3.953  18.206 -0.4628 -2.1172 -1.0328
 1223TIP3   OH227863   2.339   3.655  19.214 -0.0362 -0.2510  0.2138
 1223TIP3    H127864   2.266   3.606  19.176 -1.5903  2.0503 -0.0149
 1223TIP3    H227865   2.297   3.727  19.262  1.9014 -1.4535  4.2075
 1224TIP3   OH227866   6.335   2.250  19.167  0.5159  0.5838 -0.2673
 1224TIP3    H127867   6.402   2.218  19.107  0.3446  1.2449 -0.8266
 1224TIP3    H227868   6.385   2.284  19.241  0.7316 -0.1679 -0.0588
 1225TIP3   OH227869   1.791   1.603  17.590  0.0490  0.1663  0.1339
 1225TIP3    H127870   1.749   1.533  17.538 -0.6491  1.1416 -0.6575
 1225TIP3    H227871   1.809   1.562  17.674 -1.8655 -0.5362  0.2718
 1226TIP3   OH227872   2.063   5.472  18.287  0.1444 -0.1102 -0.5025
 1226TIP3    H127873   2.064   5.530  18.211 -0.4846 -0.6372 -0.9236
 1226TIP3    H227874   2.155   5.458  18.308  0.3261  1.6416  0.0797
 1227TIP3   OH227875   5.266   6.108  18.725  0.4857 -0.2315 -0.3015
 1227TIP3    H127876   5.205   6.049  18.679  0.1595  1.9491 -2.9630
 1227TIP3    H227877   5.214   6.144  18.797 -0.5118 -0.4636 -0.8780
 1228TIP3   OH227878   6.173   5.299  17.741 -0.1047 -0.1498 -0.0171
 1228TIP3    H127879   6.119   5.220  17.740 -0.2786 -0.0328  0.0802
 1228TIP3    H227880   6.238   5.284  17.672 -0.9115  0.1628 -0.8638
 1229TIP3   OH227881   2.213   2.248  16.241 -0.2408  0.1535 -0.5395
 1229TIP3    H127882   2.168   2.169  16.270 -0.3016  0.5384  0.4644
 1229TIP3    H227883   2.306   2.228  16.249 -0.2503  0.4578  0.5731
 1230TIP3   OH227884   0.234   0.522  16.634  0.6251 -0.7928 -0.6140
 1230TIP3    H127885   0.315   0.552  16.593  0.3687 -0.5170 -0.9248
 1230TIP3    H227886   0.203   0.597  16.685  1.0697 -1.2096  0.2988
 1231TIP3   OH227887   5.631   4.747  16.654  0.1017  0.0507 -0.2487
 1231TIP3    H127888   5.698   4.725  16.590 -1.4543 -1.0179 -1.5953
 1231TIP3    H227889   5.666   4.716  16.737 -0.0344 -3.6653 -1.3716
 1232TIP3   OH227890   0.141   4.459  15.776  0.3422 -0.1912  0.2140
 1232TIP3    H127891   0.066   4.494  15.825  0.6996  0.1469  0.5282
 1232TIP3    H227892   0.171   4.532  15.722  0.9192 -0.0862  0.6625
 1233TIP3   OH227893   1.948   5.222  19.217  0.1499 -0.1887 -0.2571
 1233TIP3    H127894   1.979   5.132  19.227  1.8070 -0.1004 -3.2731
 1233TIP3    H227895   1.853   5.215  19.212  0.1002 -1.4689  1.6250
 1234TIP3   OH227896   3.203   6.501  16.163  0.0597  0.5743 -0.1118
 1234TIP3    H127897   3.145   6.577  16.176  0.7167  1.1897 -0.7304
 1234TIP3    H227898   3.178   6.466  16.078 -1.5366 -1.0817  0.9546
 1235TIP3   OH227899   1.525   1.920  17.240 -0.2457 -0.4035 -0.2196
 1235TIP3    H127900   1.620   1.913  17.238 -0.1681 -0.3981  1.5701
 1235TIP3    H227901   1.495   1.833  17.266 -0.6393 -0.0750  0.4543
 1236TIP3   OH227902   2.540   5.582  16.587  0.1808 -0.3359  0.4119
 1236TIP3    H127903   2.633   5.562  16.579  0.2741  0.4740 -1.0121
 1236TIP3    H227904   2.522   5.641  16.513 -1.9258 -2.2455 -0.7449
 1237TIP3   OH227905   0.974   3.317  19.357 -0.1494  0.0508  0.2093
 1237TIP3    H127906   1.055   3.320  19.305  0.1463  0.5765  0.6904
 1237TIP3    H227907   1.000   3.350  19.443 -0.1549 -2.6100  1.3285
 1238TIP3   OH227908   5.445   5.761  17.325 -0.4260 -0.6485  0.5989
 1238TIP3    H127909   5.381   5.708  17.277  0.8112 -2.4898  0.8686
 1238TIP3    H227910   5.405   5.777  17.410 -0.8527 -1.1399  0.4944
 1239TIP3   OH227911   3.325   6.079  16.434 -0.4236  0.1405 -0.0853
 1239TIP3    H127912   3.278   6.150  16.389 -2.7168 -1.4338 -0.3393
 1239TIP3    H227913   3.345   6.115  16.520 -0.5001  1.4732 -0.5939
 1240TIP3   OH227914   2.442   5.492  19.235 -0.5472  0.1532  0.2772
 1240TIP3    H127915   2.420   5.436  19.309  0.3814  0.4224  0.7813
 1240TIP3    H227916   2.529   5.526  19.256 -1.1673  1.9652  0.0851
 1241TIP3   OH227917   6.076   3.681  18.990  0.9956 -0.4510  0.3690
 1241TIP3    H127918   6.147   3.736  19.023  1.3679 -0.9827  0.4669
 1241TIP3    H227919   6.021   3.664  19.066 -1.3454  2.9649 -0.3295
 1242TIP3   OH227920   0.015   4.862  17.813  0.0597 -0.3327  0.3126
 1242TIP3    H127921  -0.052   4.842  17.747 -1.8509  0.9884  1.7290
 1242TIP3    H227922  -0.011   4.810  17.889  0.6990  0.1399  0.8634
 1243TIP3   OH227923   3.538   1.387  19.081  0.5126 -0.1449 -0.0221
 1243TIP3    H127924   3.556   1.413  19.171 -1.1939  2.4801 -0.3496
 1243TIP3    H227925   3.625   1.386  19.039  0.9650  3.6099  0.5028
 1244TIP3   OH227926   0.804   0.405  18.596  0.4384  0.3216 -0.1049
 1244TIP3    H127927   0.889   0.417  18.555  0.9223  0.8344  1.0217
 1244TIP3    H227928   0.793   0.481  18.652  0.0556 -0.6315  1.1688
 1245TIP3   OH227929   3.612   3.388  16.431  0.2634  0.0968 -0.1036
 1245TIP3    H127930   3.542   3.394  16.366  0.3823 -0.2665 -0.2690
 1245TIP3    H227931   3.692   3.380  16.379  0.3192 -0.6300  0.0859
 1246TIP3   OH227932   0.819   1.486  17.881 -0.1189  0.4211 -0.2745
 1246TIP3    H127933   0.881   1.471  17.810 -1.5839 -0.7043 -1.3665
 1246TIP3    H227934   0.844   1.422  17.948 -0.9780 -1.1002 -1.3416
 1247TIP3   OH227935   2.957   1.863  16.475  0.5424  0.0577 -0.1806
 1247TIP3    H127936   2.906   1.928  16.427 -0.2252  0.1083  0.6667
 1247TIP3    H227937   2.935   1.779  16.434  1.6843  0.3141 -1.4042
 1248TIP3   OH227938   2.934   4.535  16.657  0.1067  0.0397 -0.1231
 1248TIP3    H127939   2.855   4.548  16.708  0.6468  0.3886  0.6490
 1248TIP3    H227940   2.921   4.588  16.578  0.3776  1.7137  0.9075
 1249TIP3   OH227941   5.917   5.925  18.881  0.3698 -1.2211  0.0758
 1249TIP3    H127942   5.993   5.978  18.904 -0.2265 -1.1995  2.3086
 1249TIP3    H227943   5.874   5.974  18.811  1.5479 -0.4153 -0.1115
 1250TIP3   OH227944   1.778   0.090  16.345  0.1391 -0.2426 -0.4980
 1250TIP3    H127945   1.812   0.179  16.359 -1.6304  0.7095 -1.9557
 1250TIP3    H227946   1.717   0.077  16.417 -1.4750  0.7565 -1.6205
 1251TIP3   OH227947   1.679   0.686  17.947  0.1060  0.4077 -0.3881
 1251TIP3    H127948   1.607   0.623  17.952 -0.0439  0.6556  1.0028
 1251TIP3    H227949   1.758   0.634  17.956  0.1520  0.1158 -2.0625
 1252TIP3   OH227950   0.317   6.725  18.579 -0.0196  0.5711 -0.1456
 1252TIP3    H127951   0.381   6.759  18.642 -1.4169 -0.6615  2.0655
 1252TIP3    H227952   0.286   6.802  18.532  1.5184  1.4507  0.1986
 1253TIP3   OH227953   2.095   2.203  17.770 -0.0569  0.0647 -0.2222
 1253TIP3    H127954   2.046   2.126  17.744 -1.1772  0.7773 -0.2761
 1253TIP3    H227955   2.177   2.169  17.805 -0.2527 -1.1059 -0.8612
 1254TIP3   OH227956   5.158   6.253  18.429 -0.3302 -0.0832  0.2500
 1254TIP3    H127957   5.171   6.321  18.363 -1.1439  0.7628  0.9337
 1254TIP3    H227958   5.243   6.245  18.471 -0.5084  1.3956  0.9644
 1255TIP3   OH227959   4.464   1.007  19.111  0.0526 -0.2190 -0.3617
 1255TIP3    H127960   4.380   0.997  19.157  0.1733  0.5553  0.0373
 1255TIP3    H227961   4.485   0.918  19.081 -1.5962 -0.2092 -1.6986
 1256TIP3   OH227962   4.060   6.263  15.882 -0.5455  0.0324 -0.2530
 1256TIP3    H127963   4.005   6.202  15.832 -1.3073 -1.0702  1.8152
 1256TIP3    H227964   4.117   6.206  15.934  1.2833  1.1566 -0.9318
 1257TIP3   OH227965   2.523   0.970  19.560 -0.5413 -0.2458 -0.3553
 1257TIP3    H127966   2.511   1.065  19.555 -0.8997 -0.3164 -1.0198
 1257TIP3    H227967   2.452   0.940  19.617 -0.2476 -0.0841  0.0987
 1258TIP3   OH227968   3.142   1.016  18.053 -0.0209  0.7193  0.3614
 1258TIP3    H127969   3.091   1.019  18.134  1.5947  2.2096  1.3881
 1258TIP3    H227970   3.194   1.096  18.054  3.0060 -1.0730 -0.1734
 1259TIP3   OH227971   2.107   3.245  18.244 -0.4731  0.0676  0.2909
 1259TIP3    H127972   2.185   3.222  18.194 -0.9087  0.9201 -0.8288
 1259TIP3    H227973   2.049   3.170  18.233  0.3359 -0.7870  1.5340
 1260TIP3   OH227974   1.680   0.165  17.318 -0.0900 -0.2326 -0.0751
 1260TIP3    H127975   1.629   0.108  17.261  0.4337  1.6415 -2.6438
 1260TIP3    H227976   1.630   0.246  17.322 -0.3809 -0.4499  2.7308
 1261TIP3   OH227977   4.950   6.423  18.538 -0.1074  0.3095 -0.1752
 1261TIP3    H127978   5.001   6.503  18.552  1.8996 -0.8435 -0.5034
 1261TIP3    H227979   5.000   6.373  18.474 -1.4171 -1.1426 -0.1407
 1262TIP3   OH227980   1.601   4.532  18.868 -0.2245 -0.0936  0.6325
 1262TIP3    H127981   1.608   4.627  18.877  0.7281 -0.1711  0.7712
 1262TIP3    H227982   1.602   4.517  18.773 -1.6419  0.1048  0.5553
 1263TIP3   OH227983   6.407   0.233  18.970  0.0383 -0.4513  1.0031
 1263TIP3    H127984   6.373   0.227  18.881 -0.3655 -0.9071  1.1827
 1263TIP3    H227985   6.399   0.326  18.992  1.8139  0.0006 -0.0674
 1264TIP3   OH227986   5.426   0.707  18.058  0.2365 -0.0966  0.3803
 1264TIP3    H127987   5.489   0.639  18.033  0.0637  0.0107 -0.3748
 1264TIP3    H227988   5.344   0.680  18.017 -0.9079 -1.5661  3.3840
 1265TIP3   OH227989   0.473   1.124  17.607  0.6713  0.3543  0.3543
 1265TIP3    H127990   0.419   1.177  17.665  1.4725  1.9772 -0.3189
 1265TIP3    H227991   0.560   1.125  17.649  0.5093 -1.2010  0.7931
 1266TIP3   OH227992   2.293   1.243  19.043 -0.1214  0.3517 -0.2964
 1266TIP3    H127993   2.270   1.189  19.119 -0.8548  0.0460 -0.7264
 1266TIP3    H227994   2.266   1.331  19.068 -1.6319  0.0333 -0.7114
 1267TIP3   OH227995   3.410   4.529  16.802 -0.0612 -0.1140 -0.1557
 1267TIP3    H127996   3.369   4.515  16.717  0.9596 -1.5127 -0.4445
 1267TIP3    H227997   3.495   4.568  16.782  0.6513 -1.4700  0.1196
 1268TIP3   OH227998   0.768   2.847  19.360  0.2814 -0.2514  0.2054
 1268TIP3    H127999   0.686   2.896  19.349  0.1654 -0.4792  0.0470
 1268TIP3    H228000   0.836   2.910  19.337  0.1381 -0.1322  0.1005
 1269TIP3   OH228001   4.861   6.511  17.750 -0.2421  0.1809 -0.2341
 1269TIP3    H128002   4.866   6.417  17.734  0.2646  0.2505 -0.4897
 1269TIP3    H228003   4.813   6.546  17.675  2.3013  0.5355 -1.8061
 1270TIP3   OH228004   2.966   2.920  19.519  0.8180 -0.3801 -0.1429
 1270TIP3    H128005   2.955   2.946  19.610 -0.3689 -0.2825 -0.3012
 1270TIP3    H228006   3.015   2.993  19.479 -1.1296  0.9686 -0.2268
 1271TIP3   OH228007   3.554   0.667  18.322 -0.1646  0.1380 -0.4152
 1271TIP3    H128008   3.476   0.689  18.272 -1.9813 -0.5095  1.9684
 1271TIP3    H228009   3.578   0.749  18.365 -1.0906 -0.2351  0.8432
 1272TIP3   OH228010   5.334   0.976  17.401 -0.2940  0.3809 -0.2193
 1272TIP3    H128011   5.359   0.886  17.425  0.4192  0.3335 -1.0797
 1272TIP3    H228012   5.345   0.979  17.306 -0.7294  1.2619 -0.2530
 1273TIP3   OH228013   5.775   1.279  16.686  0.5128 -0.0464  0.6089
 1273TIP3    H128014   5.848   1.248  16.634  0.9159 -0.4399  1.3927
 1273TIP3    H228015   5.702   1.286  16.624  0.8273 -1.0434  0.1142
 1274TIP3   OH228016   4.136   2.558  18.813  0.1407 -0.1156 -0.0453
 1274TIP3    H128017   4.142   2.476  18.862 -0.3481 -0.3673 -0.4009
 1274TIP3    H228018   4.227   2.579  18.792  0.3798  0.1040  1.1346
 1275TIP3   OH228019   4.816   3.419  19.217 -0.2726  0.2575 -0.3671
 1275TIP3    H128020   4.892   3.435  19.272  0.0380  0.4167 -0.8484
 1275TIP3    H228021   4.806   3.497  19.164 -1.7581  0.9462  0.8321
 1276TIP3   OH228022   0.362   6.714  18.136 -0.1995 -0.2801  0.5329
 1276TIP3    H128023   0.270   6.690  18.126 -0.3753 -0.1844  1.7191
 1276TIP3    H228024   0.361   6.809  18.148  0.1773 -0.1095 -0.6907
 1277TIP3   OH228025   1.818   5.399  15.649 -0.0899  0.0426  0.1271
 1277TIP3    H128026   1.806   5.314  15.606  0.7567  0.1135 -0.2699
 1277TIP3    H228027   1.732   5.419  15.687 -0.5247 -0.5846 -0.5040
 1278TIP3   OH228028   6.683   6.131  18.867  0.0290 -0.4416  0.7986
 1278TIP3    H128029   6.633   6.051  18.851  1.0827 -0.8767 -0.5272
 1278TIP3    H228030   6.618   6.194  18.898 -0.7301 -1.9445  2.4753
 1279TIP3   OH228031   1.365   4.758  17.691 -0.0867  0.5005  0.3088
 1279TIP3    H128032   1.280   4.738  17.729 -0.6142 -0.0563 -1.1184
 1279TIP3    H228033   1.346   4.793  17.604  1.0886  1.8090  0.5282
 1280TIP3   OH228034   1.153   2.831  17.873 -0.0712 -0.3098 -0.6297
 1280TIP3    H128035   1.116   2.781  17.946  0.6612 -2.3775 -1.5974
 1280TIP3    H228036   1.088   2.821  17.803 -0.6830  1.5069 -0.3685
 1281TIP3   OH228037   1.386   5.424  18.326  0.2514 -0.3919  0.1781
 1281TIP3    H128038   1.326   5.482  18.372 -0.9356 -0.6094 -1.0229
 1281TIP3    H228039   1.472   5.446  18.361 -0.3971  0.6743  1.1848
 1282TIP3   OH228040   0.755   6.267  17.874  0.0618 -0.4560  0.4865
 1282TIP3    H128041   0.666   6.244  17.845  1.3727 -1.0848 -3.5582
 1282TIP3    H228042   0.746   6.354  17.913 -2.1982 -0.1481 -0.5793
 1283TIP3   OH228043   3.473   3.058  19.599 -0.1484 -0.4210  0.4856
 1283TIP3    H128044   3.439   3.139  19.562  0.3354 -0.7653 -0.7847
 1283TIP3    H228045   3.437   2.989  19.542  2.4512 -0.8274 -0.8422
 1284TIP3   OH228046   6.204   3.523  16.409  0.1101  0.7832  0.0594
 1284TIP3    H128047   6.254   3.474  16.344  0.9308  1.1706  0.3973
 1284TIP3    H228048   6.118   3.479  16.411  0.8487 -0.7204  0.4268
 1285TIP3   OH228049   0.073   6.636  18.179  0.5105 -0.3402 -0.3822
 1285TIP3    H128050   0.077   6.618  18.273 -1.9551 -0.9102 -0.3339
 1285TIP3    H228051   0.082   6.550  18.138  1.3633 -0.1183 -0.6837
 1286TIP3   OH228052   4.535   0.050  16.998  0.0634  0.2038 -0.0613
 1286TIP3    H128053   4.611   0.017  16.950 -0.0991 -0.6065  0.2183
 1286TIP3    H228054   4.535  -0.001  17.080 -0.2484  0.8442  0.3437
 1287TIP3   OH228055   4.469   2.385  16.909  0.2914 -0.3114 -0.0464
 1287TIP3    H128056   4.420   2.417  16.834 -0.2779 -0.8358  0.0954
 1287TIP3    H228057   4.417   2.409  16.985 -1.0685 -2.9889  0.0077
 1288TIP3   OH228058   0.531   1.937  18.910 -0.9873 -0.3981 -0.7036
 1288TIP3    H128059   0.614   1.892  18.924  0.0701  1.7082  0.4133
 1288TIP3    H228060   0.517   1.934  18.816  1.9938  1.7471 -1.3460
 1289TIP3   OH228061   6.120   6.744  19.249  0.4961 -0.3035 -0.5083
 1289TIP3    H128062   6.064   6.719  19.175 -0.2119  0.6142 -0.3007
 1289TIP3    H228063   6.080   6.701  19.324 -0.6032  1.2293 -0.1832
 1290TIP3   OH228064   5.628   1.746  18.738  0.4249 -0.1955 -0.5291
 1290TIP3    H128065   5.537   1.718  18.751  0.5679 -0.2071  0.4514
 1290TIP3    H228066   5.621   1.830  18.693 -0.0782 -0.0764 -0.2310
 1291TIP3   OH228067   4.404   0.808  17.903  0.2864 -0.3256 -0.5353
 1291TIP3    H128068   4.368   0.894  17.880 -1.2957 -0.7451  0.2225
 1291TIP3    H228069   4.392   0.802  17.998  3.2713 -0.1302 -0.0610
 1292TIP3   OH228070   1.361   3.369  18.195 -0.2738 -0.5759  0.6771
 1292TIP3    H128071   1.431   3.313  18.159  0.0137 -0.8114  1.5610
 1292TIP3    H228072   1.398   3.402  18.277 -0.7983  0.1853  0.6101
 1293TIP3   OH228073   1.063   2.582  18.515  0.4168 -0.4971  0.7426
 1293TIP3    H128074   1.154   2.555  18.525  1.1923  1.5298 -0.1608
 1293TIP3    H228075   1.051   2.589  18.420 -0.2762  0.4377  0.8891
 1294TIP3   OH228076   2.411   0.675  17.813  0.1888 -0.1888 -0.1496
 1294TIP3    H128077   2.330   0.725  17.824  0.7755  0.6070  0.6100
 1294TIP3    H228078   2.418   0.622  17.892  0.4207 -0.2492 -0.2092
 1295TIP3   OH228079   2.800   6.113  19.136 -0.0302  0.9395  0.3669
 1295TIP3    H128080   2.835   6.148  19.217 -0.0240  1.7191  0.0359
 1295TIP3    H228081   2.733   6.051  19.164 -0.1982  1.3821  0.9648
 1296TIP3   OH228082   5.347   4.074  17.390  0.2305  0.4780 -0.4019
 1296TIP3    H128083   5.289   4.101  17.462  1.9215 -0.4533  1.3928
 1296TIP3    H228084   5.287   4.044  17.322 -1.4822  2.5857  0.0425
 1297TIP3   OH228085   0.409   4.263  17.376 -0.0937  0.0667 -0.3129
 1297TIP3    H128086   0.413   4.357  17.359  0.4265  0.1975  0.4981
 1297TIP3    H228087   0.494   4.230  17.347 -0.3279 -0.1778 -0.7281
 1298TIP3   OH228088   2.836   1.572  16.612  0.2884 -0.0640  0.1643
 1298TIP3    H128089   2.839   1.588  16.518  2.8514 -1.8703 -0.1921
 1298TIP3    H228090   2.748   1.597  16.638 -1.2194 -1.3894 -3.0944
 1299TIP3   OH228091   6.298   4.589  16.464  0.2863 -0.0192  0.2684
 1299TIP3    H128092   6.315   4.679  16.437  1.6092 -0.4185 -0.3508
 1299TIP3    H228093   6.203   4.581  16.463  0.1942  0.8457 -1.4624
 1300TIP3   OH228094   1.905   6.548  17.138  0.3743  0.1063 -0.4130
 1300TIP3    H128095   1.998   6.545  17.162  0.1246 -1.2822  0.5199
 1300TIP3    H228096   1.859   6.552  17.222 -0.4401 -0.7374 -0.8024
 1301TIP3   OH228097   1.877   6.351  16.757 -0.2631  0.5150 -0.1113
 1301TIP3    H128098   1.965   6.385  16.771  0.4477 -1.0968 -0.4634
 1301TIP3    H228099   1.825   6.428  16.733  0.8759  1.5999  0.7508
 1302TIP3   OH228100   6.686   6.371  16.327 -0.0346 -0.1818 -0.5445
 1302TIP3    H128101   6.751   6.378  16.257  1.6425 -0.2516  0.9323
 1302TIP3    H228102   6.605   6.406  16.289  1.3844  1.9608 -1.8174
 1303TIP3   OH228103   0.771   2.436  17.345 -0.1337  0.1213 -0.0783
 1303TIP3    H128104   0.710   2.492  17.394 -0.2550 -0.6575  0.6809
 1303TIP3    H228105   0.854   2.483  17.348 -0.9344  1.8971 -2.2998
 1304TIP3   OH228106   2.625   4.658  17.541  0.8506  0.2655 -0.6702
 1304TIP3    H128107   2.671   4.712  17.476 -0.9439 -0.5685 -2.7584
 1304TIP3    H228108   2.682   4.583  17.554  0.6901 -0.1870 -2.3219
 1305TIP3   OH228109   4.160   1.374  19.267  0.4248  0.0394  0.7232
 1305TIP3    H128110   4.208   1.454  19.289 -0.0868  0.4482  0.3674
 1305TIP3    H228111   4.081   1.378  19.320  0.4411 -0.2826  0.7746
 1306TIP3   OH228112   6.157   4.318  18.753 -0.2872  0.7431  0.6779
 1306TIP3    H128113   6.073   4.332  18.797 -0.1124  2.2548  0.6082
 1306TIP3    H228114   6.138   4.333  18.660 -0.2752 -0.6195  0.4379
 1307TIP3   OH228115   3.596   5.820  16.349  0.3873  0.2152 -0.3381
 1307TIP3    H128116   3.608   5.786  16.438  0.2799 -0.1176 -0.4473
 1307TIP3    H228117   3.681   5.857  16.326  0.0833  1.3619  0.3378
 1308TIP3   OH228118   5.220   5.546  16.548 -0.0108  0.0315 -0.1694
 1308TIP3    H128119   5.308   5.543  16.511  0.1058  2.0198 -0.1673
 1308TIP3    H228120   5.162   5.541  16.472  0.1100 -0.8331 -0.2069
 1309TIP3   OH228121   5.159   2.404  18.577  0.3154 -0.0991 -0.0094
 1309TIP3    H128122   5.068   2.434  18.571 -0.9704 -3.0876  2.4542
 1309TIP3    H228123   5.202   2.470  18.631 -1.2395 -0.2629  1.4982
 1310TIP3   OH228124   0.583   5.959  16.791  0.0051  0.3089  0.1040
 1310TIP3    H128125   0.573   6.051  16.769  0.9893  0.8680  1.8108
 1310TIP3    H228126   0.561   5.953  16.884 -0.9264 -1.3563 -0.1724
 1311TIP3   OH228127   2.914   1.204  16.417  0.3717 -0.4430  0.1031
 1311TIP3    H128128   2.855   1.267  16.374  0.8199  0.4535  0.7573
 1311TIP3    H228129   2.991   1.201  16.361  0.5502 -0.0170  0.3142
 1312TIP3   OH228130   3.011   0.332  16.945 -0.2918  0.5110  0.4269
 1312TIP3    H128131   3.105   0.333  16.960 -0.1467 -0.0887 -0.3982
 1312TIP3    H228132   2.981   0.248  16.980 -0.2491 -0.0384 -0.8019
 1313TIP3   OH228133   3.832   0.705  15.618  0.0921 -0.5570 -0.4224
 1313TIP3    H128134   3.821   0.770  15.548  0.3537 -0.4175 -0.3332
 1313TIP3    H228135   3.743   0.691  15.652 -0.1246 -1.0452 -1.1595
 1314TIP3   OH228136   3.044   6.328  19.294 -0.2576  0.5044  0.4363
 1314TIP3    H128137   2.968   6.359  19.343  0.0295 -1.8627  2.6143
 1314TIP3    H228138   3.019   6.336  19.202 -2.9306  0.3032  1.0617
 1315TIP3   OH228139   4.337   0.121  17.738 -0.3601 -0.2754 -0.2118
 1315TIP3    H128140   4.299   0.043  17.778 -0.2966  0.4883  1.3936
 1315TIP3    H228141   4.331   0.188  17.805  0.4872  0.8521 -1.2224
 1316TIP3   OH228142   5.008   2.506  17.165 -0.0476 -0.5614  0.2185
 1316TIP3    H128143   5.019   2.423  17.119 -0.5044  0.3743 -1.7232
 1316TIP3    H228144   4.916   2.508  17.190 -0.3426 -0.1790 -0.8111
 1317TIP3   OH228145   1.561   4.502  17.170  0.2201  0.5662  0.4338
 1317TIP3    H128146   1.545   4.418  17.127 -0.5125  1.4418 -1.0935
 1317TIP3    H228147   1.606   4.479  17.252  0.2932 -1.2735 -0.0762
 1318TIP3   OH228148   6.567   2.544  17.653  0.0883 -0.3257  0.0833
 1318TIP3    H128149   6.487   2.497  17.630 -0.8787 -0.3996  3.1985
 1318TIP3    H228150   6.611   2.487  17.717  1.7063  0.5487 -0.1852
 1319TIP3   OH228151   2.802   5.771  18.840 -0.0610  0.0718  0.0873
 1319TIP3    H128152   2.882   5.822  18.849 -1.5162  2.9485 -1.9623
 1319TIP3    H228153   2.749   5.796  18.915 -0.0048 -0.0154  0.1586
 1320TIP3   OH228154   0.993   1.077  17.244  0.3746  0.1581 -0.1816
 1320TIP3    H128155   0.994   1.083  17.148  0.4251  0.4737 -0.1629
 1320TIP3    H228156   0.900   1.088  17.267 -0.0325 -2.4338 -0.3366
 1321TIP3   OH228157   6.005   3.081  18.473  0.1809 -0.1213  0.1670
 1321TIP3    H128158   5.998   3.169  18.508  1.6389 -0.6362  1.9348
 1321TIP3    H228159   6.096   3.055  18.491 -0.4760 -2.3379  0.6234
 1322TIP3   OH228160   2.796   6.604  16.535 -0.2884 -0.0308  0.0634
 1322TIP3    H128161   2.734   6.562  16.595 -0.5580  0.4811  0.1465
 1322TIP3    H228162   2.873   6.621  16.589 -1.4404  2.7756  1.0057
 1323TIP3   OH228163   2.992   4.096  16.699 -0.0419  0.2014  0.5131
 1323TIP3    H128164   2.936   4.020  16.712 -1.5222  0.9879 -0.8117
 1323TIP3    H228165   3.013   4.127  16.787 -1.5267 -0.2755  1.0645
 1324TIP3   OH228166   3.889   6.721  18.027  0.4386  0.2637  0.6154
 1324TIP3    H128167   3.825   6.694  18.092  0.0103 -1.6958 -0.5245
 1324TIP3    H228168   3.839   6.768  17.960 -0.0152 -1.7905 -0.5800
 1325TIP3   OH228169   0.810   0.345  16.694 -0.2524 -0.4501  0.4725
 1325TIP3    H128170   0.846   0.275  16.640  2.7755  0.7134  0.7887
 1325TIP3    H228171   0.774   0.408  16.632  0.5877 -0.4750 -0.0575
 1326TIP3   OH228172   4.172   3.537  18.558  0.9581 -0.0978 -0.3039
 1326TIP3    H128173   4.243   3.478  18.583  0.4651  0.5034  2.9371
 1326TIP3    H228174   4.198   3.622  18.592 -1.0831  0.2248  0.5662
 1327TIP3   OH228175   1.169   6.028  16.544 -0.4069  0.0935  0.2165
 1327TIP3    H128176   1.174   6.036  16.639 -0.5936 -2.2268  0.4962
 1327TIP3    H228177   1.099   5.964  16.530  2.0845 -2.5271 -1.2459
 1328TIP3   OH228178   1.888   6.217  17.188 -0.4049 -0.7788 -0.5127
 1328TIP3    H128179   1.972   6.247  17.152 -1.1560  1.8248 -0.3188
 1328TIP3    H228180   1.826   6.226  17.115 -0.9326 -0.4287 -0.0308
 1329TIP3   OH228181   2.693   4.638  16.733  0.1012  0.2339  0.2261
 1329TIP3    H128182   2.659   4.680  16.812  0.1545  0.5288  0.0909
 1329TIP3    H228183   2.633   4.665  16.663 -0.0546 -0.1748  0.1976
 1330TIP3   OH228184   4.405   2.536  17.117  0.1483 -0.3501 -1.0824
 1330TIP3    H128185   4.469   2.514  17.185 -0.6107  0.6665 -0.0089
 1330TIP3    H228186   4.410   2.631  17.110 -2.0390 -0.1208 -0.1453
 1331TIP3   OH228187   0.451   2.834  15.793  0.1745 -0.6741  0.4292
 1331TIP3    H128188   0.409   2.763  15.841  0.6875 -1.0420  0.3400
 1331TIP3    H228189   0.453   2.803  15.702 -2.1235  0.6208 -0.1456
 1332TIP3   OH228190   3.651   0.912  18.019 -0.4355 -0.1830 -0.1681
 1332TIP3    H128191   3.584   0.853  18.055 -0.4807 -0.0595 -0.0515
 1332TIP3    H228192   3.675   0.968  18.092 -0.7461  0.2695 -0.4118
 1333TIP3   OH228193   2.400   1.589  18.584  0.2325  0.4941 -0.6822
 1333TIP3    H128194   2.466   1.595  18.515  0.7946  1.9959 -0.0506
 1333TIP3    H228195   2.327   1.642  18.551 -0.4105 -0.5899 -1.0665
 1334TIP3   OH228196   2.690   3.320  18.781  0.1906  0.3585 -0.7683
 1334TIP3    H128197   2.712   3.259  18.851  0.1354  0.0324 -1.0344
 1334TIP3    H228198   2.606   3.358  18.807  0.2086  0.2955 -0.6209
 1335TIP3   OH228199   6.357   4.436  18.217 -0.4728 -0.0918 -0.1512
 1335TIP3    H128200   6.301   4.484  18.278 -1.3040  0.2131 -1.1203
 1335TIP3    H228201   6.446   4.462  18.240 -0.7237 -0.4050  1.2706
 1336TIP3   OH228202   0.282   5.747  16.937  0.1834 -0.0998 -0.2120
 1336TIP3    H128203   0.307   5.832  16.973  3.0418 -0.9708  0.1128
 1336TIP3    H228204   0.353   5.688  16.964 -1.9528 -2.7482  0.0608
 1337TIP3   OH228205   6.589   4.062  17.297 -0.1580 -0.6453  0.0254
 1337TIP3    H128206   6.593   4.154  17.271 -0.3265 -0.3961  0.8550
 1337TIP3    H228207   6.564   4.015  17.217 -0.0981  0.0307 -0.3928
 1338TIP3   OH228208   2.241   3.341  19.028 -0.0114  0.1146  0.0983
 1338TIP3    H128209   2.193   3.307  18.952  0.1209  0.4626 -0.1422
 1338TIP3    H228210   2.329   3.359  18.996  0.5205 -1.2147  0.7118
 1339TIP3   OH228211   1.530   4.109  19.451 -0.7686 -0.6388  0.2892
 1339TIP3    H128212   1.440   4.101  19.420 -1.3527  1.4435  1.2788
 1339TIP3    H228213   1.548   4.026  19.495 -1.7205 -1.5875 -1.0295
 1340TIP3   OH228214   0.930   6.445  17.289 -0.1636  0.1523  0.4115
 1340TIP3    H128215   1.004   6.401  17.331  0.5329  0.7741 -0.1325
 1340TIP3    H228216   0.885   6.375  17.242  0.2436 -0.1913  0.5170
 1341TIP3   OH228217   3.785   6.347  18.217 -0.7114  0.3631  0.1625
 1341TIP3    H128218   3.741   6.386  18.293  0.9406  0.7954  0.9434
 1341TIP3    H228219   3.799   6.256  18.241 -1.4366  0.1448 -0.2167
 1342TIP3   OH228220   2.522   1.203  18.259 -0.4421  0.0693 -0.3467
 1342TIP3    H128221   2.452   1.225  18.198 -0.6971  2.6462  0.7641
 1342TIP3    H228222   2.476   1.176  18.339 -0.2257  1.5007  0.2924
 1343TIP3   OH228223   6.529   1.077  18.951  0.1760 -0.2637 -0.0324
 1343TIP3    H128224   6.459   1.027  18.909 -1.0157 -0.1311  1.7216
 1343TIP3    H228225   6.595   1.088  18.882 -1.3107 -0.7791 -1.6028
 1344TIP3   OH228226   5.422   3.816  17.391  0.2149  0.3411 -0.5005
 1344TIP3    H128227   5.360   3.777  17.453  0.4380 -1.5644 -1.4101
 1344TIP3    H228228   5.391   3.906  17.380 -2.2017 -0.4248 -0.6144
 1345TIP3   OH228229   1.404   2.652  18.322  0.2081 -0.8049  0.3658
 1345TIP3    H128230   1.317   2.622  18.296 -0.5838  0.4047  1.5045
 1345TIP3    H228231   1.449   2.573  18.353 -0.5192 -1.4101 -0.0969
 1346TIP3   OH228232   1.814   1.028  18.819 -0.1300 -0.7181 -0.2198
 1346TIP3    H128233   1.733   1.068  18.850  0.5325  0.5623 -0.0718
 1346TIP3    H228234   1.879   1.048  18.887  0.7725  0.0229 -1.2654
 1347TIP3   OH228235   5.342   4.001  18.678 -0.2666 -0.2359  0.2989
 1347TIP3    H128236   5.327   4.091  18.707 -0.8969 -0.6584  1.3253
 1347TIP3    H228237   5.437   3.992  18.679 -0.2095  0.3052  0.5353
 1348TIP3   OH228238   5.963   4.353  15.776  0.1902  0.5013  0.0293
 1348TIP3    H128239   5.951   4.383  15.866 -0.2449 -1.3467  0.6469
 1348TIP3    H228240   5.885   4.300  15.759  1.5281 -1.4134 -0.4319
 1349TIP3   OH228241   1.766   5.026  16.424 -0.0186  0.2839  0.1633
 1349TIP3    H128242   1.740   5.118  16.429 -0.7881  0.0820 -0.0327
 1349TIP3    H228243   1.762   5.004  16.331 -0.5236 -0.1379  0.2807
 1350TIP3   OH228244   0.701   3.181  18.264 -0.2814  0.7749  1.0486
 1350TIP3    H128245   0.724   3.201  18.355 -0.2121  2.3174  0.7257
 1350TIP3    H228246   0.777   3.210  18.214  0.1170 -1.0225  0.5496
 1351TIP3   OH228247   5.119   1.412  17.574  0.3576 -0.2051 -0.3253
 1351TIP3    H128248   5.099   1.451  17.659 -0.4730 -0.7253 -0.2812
 1351TIP3    H228249   5.070   1.330  17.572  2.2131 -1.3703 -0.3469
 1352TIP3   OH228250   3.475   3.128  18.162  0.2257 -0.1026  0.2354
 1352TIP3    H128251   3.392   3.174  18.172 -0.6086 -1.3180 -0.8014
 1352TIP3    H228252   3.459   3.064  18.093  1.6533 -1.2152  0.8835
 1353TIP3   OH228253   0.374   1.944  16.735  0.2716 -0.4675 -0.0046
 1353TIP3    H128254   0.366   1.866  16.790  0.0468 -1.4613 -1.3995
 1353TIP3    H228255   0.452   1.989  16.769  1.2285 -2.0256 -0.0304
 1354TIP3   OH228256   5.751   0.009  17.421  0.6756 -0.4624  0.3556
 1354TIP3    H128257   5.808  -0.035  17.359 -1.1650  0.3408 -2.0512
 1354TIP3    H228258   5.671  -0.044  17.422 -0.5636  1.2822 -0.5638
 1355TIP3   OH228259   5.991   1.188  17.161  0.4760 -0.0035 -0.1505
 1355TIP3    H128260   6.014   1.234  17.080  1.8746  0.6695  0.5869
 1355TIP3    H228261   5.983   1.257  17.227  0.8107 -0.6596  0.5994
 1356TIP3   OH228262   5.840   0.434  19.071  0.5407  0.1002  0.2946
 1356TIP3    H128263   5.852   0.518  19.027 -1.4039  0.9711  1.3000
 1356TIP3    H228264   5.745   0.419  19.068  0.4714 -0.4767  2.9366
 1357TIP3   OH228265   5.378   3.314  17.891  0.3786 -0.2059 -0.0655
 1357TIP3    H128266   5.301   3.315  17.948 -1.4004  0.7608 -2.3019
 1357TIP3    H228267   5.432   3.387  17.921 -1.0905  1.0165 -0.2866
 1358TIP3   OH228268   1.751   1.852  17.939  0.1822  0.5957  0.6677
 1358TIP3    H128269   1.670   1.834  17.985  0.8414  2.9252  2.9797
 1358TIP3    H228270   1.807   1.895  18.003  0.9691  4.7576 -2.3727
 1359TIP3   OH228271   5.429   3.262  18.880 -0.2614 -0.4067  0.0840
 1359TIP3    H128272   5.511   3.218  18.856 -0.1212 -0.2596  0.2925
 1359TIP3    H228273   5.368   3.190  18.898 -0.5516 -0.5388 -1.2707
 1360TIP3   OH228274   0.035   0.664  17.733 -0.7597  0.4709  0.0729
 1360TIP3    H128275  -0.055   0.671  17.699 -0.8450 -1.4193 -0.2300
 1360TIP3    H228276   0.043   0.737  17.794 -1.7338  1.9983 -1.5403
 1361TIP3   OH228277   4.842   4.224  17.535  0.0084 -0.1290 -0.2181
 1361TIP3    H128278   4.891   4.298  17.500 -0.7381 -0.3179 -1.6984
 1361TIP3    H228279   4.867   4.221  17.628  1.0309  1.1666 -0.4275
 1362TIP3   OH228280   5.658   2.236  16.042 -0.2755 -0.0116 -0.0550
 1362TIP3    H128281   5.578   2.244  15.989  0.1321 -0.4062 -0.7483
 1362TIP3    H228282   5.665   2.143  16.061  0.1319 -0.0038 -0.1688
 1363TIP3   OH228283   5.566   1.681  18.454 -0.8127  0.2784  0.1175
 1363TIP3    H128284   5.520   1.765  18.463  0.5112  0.9232  1.1698
 1363TIP3    H228285   5.643   1.702  18.400 -0.1657 -0.1269  0.8674
 1364TIP3   OH228286   2.563   6.282  17.757 -0.7921  0.7938  0.1878
 1364TIP3    H128287   2.564   6.375  17.737 -2.1318  0.7712 -0.0965
 1364TIP3    H228288   2.546   6.240  17.672  1.6671  0.1381 -0.0548
 1365TIP3   OH228289   5.103   2.236  18.885 -0.0808 -0.0457 -0.6346
 1365TIP3    H128290   5.187   2.214  18.844  0.7006 -1.4106  1.4818
 1365TIP3    H228291   5.128   2.291  18.959 -1.1476  0.2727 -0.5112
 1366TIP3   OH228292   0.800   1.675  19.633  0.1581  0.0820  0.2152
 1366TIP3    H128293   0.719   1.709  19.594 -0.2643 -0.1066  0.8879
 1366TIP3    H228294   0.841   1.752  19.672 -0.0971  0.0567  0.5432
 1367TIP3   OH228295   1.460   4.893  18.089  0.2971 -0.0523 -0.1833
 1367TIP3    H128296   1.372   4.931  18.084 -0.7894 -2.4482 -0.8603
 1367TIP3    H228297   1.487   4.882  17.998  0.4646 -1.0889 -0.0186
 1368TIP3   OH228298   4.949   6.632  15.641 -0.0952 -0.7771  0.0677
 1368TIP3    H128299   4.879   6.638  15.706  0.4815 -0.2512  0.6515
 1368TIP3    H228300   4.920   6.688  15.569  0.4037  0.7047  0.9648
 1369TIP3   OH228301   0.212   5.026  16.528 -0.5496 -0.2103 -0.3269
 1369TIP3    H128302   0.194   4.954  16.588 -1.0324 -0.3879 -0.6790
 1369TIP3    H228303   0.194   5.105  16.579  1.6772 -0.2423  0.6422
 1370TIP3   OH228304   2.816   4.481  17.669  0.0015  0.6318  0.1249
 1370TIP3    H128305   2.768   4.401  17.693  0.0431  0.4383 -0.4321
 1370TIP3    H228306   2.897   4.450  17.629 -0.6018  0.9234 -1.3908
 1371TIP3   OH228307   2.662   5.790  18.380  0.1569 -0.1341  0.1981
 1371TIP3    H128308   2.744   5.831  18.352  0.2517 -1.2643 -1.2685
 1371TIP3    H228309   2.595   5.828  18.324  0.2184 -1.7538 -1.0565
 1372TIP3   OH228310   2.672   1.212  18.710 -0.4454 -0.0060 -0.1416
 1372TIP3    H128311   2.599   1.257  18.668 -0.4843 -0.3251 -0.4214
 1372TIP3    H228312   2.744   1.219  18.648 -0.4438 -0.3061 -0.1725
 1373TIP3   OH228313   1.501   4.760  16.842 -0.3789  0.7122 -0.1998
 1373TIP3    H128314   1.539   4.807  16.916  0.9597  1.2805 -1.2018
 1373TIP3    H228315   1.550   4.792  16.766 -0.5953 -1.0636 -1.1308
 1374TIP3   OH228316   2.102   4.479  17.034 -0.5883  0.0604 -0.4939
 1374TIP3    H128317   2.046   4.488  17.112  0.1309  0.6569 -0.0346
 1374TIP3    H228318   2.152   4.560  17.030  0.0430 -0.3397 -1.0635
 1375TIP3   OH228319   4.605   2.983  18.683  0.8740  0.4838  0.3637
 1375TIP3    H128320   4.568   3.007  18.768 -0.6847 -1.4667  0.3260
 1375TIP3    H228321   4.689   2.943  18.704 -0.7778 -2.8033  1.4454
 1376TIP3   OH228322   2.050   4.720  17.770  0.0384 -0.1748 -0.1327
 1376TIP3    H128323   2.035   4.814  17.779 -0.0411 -0.1504 -0.5157
 1376TIP3    H228324   2.007   4.681  17.846 -1.3181 -0.0456 -0.8011
 1377TIP3   OH228325   0.057   3.255  17.279  0.3747 -0.5826 -0.1007
 1377TIP3    H128326   0.128   3.201  17.243  1.2677  0.6218 -0.2364
 1377TIP3    H228327   0.044   3.324  17.214 -1.5843 -1.2827 -0.5083
 1378TIP3   OH228328   3.805   1.282  16.852  0.3903 -0.0234 -0.4415
 1378TIP3    H128329   3.711   1.268  16.864 -0.3566  1.0944 -3.7681
 1378TIP3    H228330   3.813   1.377  16.840  1.6098 -0.2722 -1.9513
 1379TIP3   OH228331   0.029   5.785  18.088 -0.0894  0.3409 -0.3956
 1379TIP3    H128332   0.006   5.693  18.096 -1.2550  0.5794 -0.8168
 1379TIP3    H228333   0.121   5.784  18.062 -0.1113 -0.7084 -0.4831
 1380TIP3   OH228334   5.765   3.860  18.633 -0.2719 -0.1433 -0.7531
 1380TIP3    H128335   5.850   3.837  18.672  0.8771  3.6295 -0.5528
 1380TIP3    H228336   5.785   3.875  18.541 -0.5002  1.2951 -0.6022
 1381TIP3   OH228337   1.328   1.524  18.601 -0.1578  0.1304  0.0721
 1381TIP3    H128338   1.384   1.528  18.678 -0.6453 -1.3359  0.5481
 1381TIP3    H228339   1.264   1.594  18.614  1.6430  1.9872 -0.6036
 1382TIP3   OH228340   4.406   3.386  19.320  0.7090 -0.4347 -0.1664
 1382TIP3    H128341   4.350   3.368  19.396  0.0722 -0.6847 -0.6896
 1382TIP3    H228342   4.489   3.415  19.359 -0.1563  1.1104  0.6008
 1383TIP3   OH228343   5.575   5.988  17.541 -0.0674  0.3587 -0.5643
 1383TIP3    H128344   5.516   5.915  17.558 -0.8741  1.4010  1.4959
 1383TIP3    H228345   5.655   5.947  17.509 -0.6423 -1.4003  0.1226
 1384TIP3   OH228346   5.899   5.650  16.040  0.3367  0.2296  0.3137
 1384TIP3    H128347   5.980   5.701  16.033  0.0683  0.5510 -0.5912
 1384TIP3    H228348   5.833   5.714  16.067  0.4155 -0.0741  1.2559
 1385TIP3   OH228349   3.760   1.558  16.819 -0.3136 -0.4541  0.4747
 1385TIP3    H128350   3.710   1.588  16.743  0.2200 -1.6957 -0.4004
 1385TIP3    H228351   3.703   1.573  16.893 -1.5406 -0.7872 -0.3761
 1386TIP3   OH228352   6.091   4.795  17.181 -0.9736  0.0308  0.1794
 1386TIP3    H128353   6.185   4.809  17.193 -1.0549  1.6502 -0.7347
 1386TIP3    H228354   6.057   4.782  17.269 -0.1076  1.1046  0.6947
 1387TIP3   OH228355   5.468   6.181  17.374  0.1742  0.8974 -0.1616
 1387TIP3    H128356   5.515   6.104  17.407 -1.6320 -0.4467 -0.5533
 1387TIP3    H228357   5.497   6.189  17.283  0.0576  0.4125 -0.2436
 1388TIP3   OH228358   4.166   6.237  17.032 -0.4027  0.3914 -0.5282
 1388TIP3    H128359   4.236   6.284  17.078 -0.9155 -0.1919  0.8735
 1388TIP3    H228360   4.157   6.154  17.079 -0.8923 -0.2799 -1.7421
 1389TIP3   OH228361   1.688   3.810  19.496  0.1577 -0.2459  0.3608
 1389TIP3    H128362   1.761   3.806  19.558  0.1309 -0.6287  0.3750
 1389TIP3    H228363   1.726   3.784  19.412 -0.2315 -1.8051  0.6327
 1390TIP3   OH228364   5.300   5.778  15.571  0.3424 -0.1623 -0.0537
 1390TIP3    H128365   5.347   5.741  15.646  0.8119  0.7609  0.1101
 1390TIP3    H228366   5.358   5.764  15.497  0.5437  0.2982  0.0181
 1391TIP3   OH228367   3.035   0.334  17.889 -0.3412  0.1173 -0.2266
 1391TIP3    H128368   3.065   0.358  17.977 -0.5661  2.9183 -0.8202
 1391TIP3    H228369   3.107   0.358  17.831  0.8674 -4.0014 -0.7617
 1392TIP3   OH228370   3.404   5.883  16.680  0.3450  0.0207  0.5995
 1392TIP3    H128371   3.484   5.831  16.666  1.2822  0.8655  2.5354
 1392TIP3    H228372   3.414   5.958  16.622  1.4866  0.6392  1.5541
 1393TIP3   OH228373   1.073   4.665  16.522 -0.3380  0.4212 -0.2523
 1393TIP3    H128374   1.133   4.646  16.594 -0.0286  0.2980 -0.5416
 1393TIP3    H228375   1.021   4.739  16.553  0.4854  1.0320 -0.2978
 1394TIP3   OH228376   3.562   6.002  15.488 -0.2126  0.1821  0.2442
 1394TIP3    H128377   3.589   5.959  15.407  3.2618 -1.0023  1.7903
 1394TIP3    H228378   3.531   6.088  15.461  2.3748  0.4744 -2.3252
 1395TIP3   OH228379   5.093   1.202  18.851 -0.2917 -0.3794 -0.3896
 1395TIP3    H128380   4.997   1.207  18.853 -0.3013 -0.5801 -0.3536
 1395TIP3    H228381   5.113   1.161  18.767 -0.2705 -1.1174 -0.0309
 1396TIP3   OH228382   0.838   0.313  17.795 -0.5296  0.3250 -0.5573
 1396TIP3    H128383   0.748   0.337  17.774 -1.3866 -1.2649  1.0575
 1396TIP3    H228384   0.871   0.268  17.717 -0.5526  2.2640 -1.7448
 1397TIP3   OH228385   3.080   5.146  19.416  0.2106  0.1034  0.4972
 1397TIP3    H128386   3.121   5.060  19.429  0.9595  0.7482  2.8767
 1397TIP3    H228387   3.001   5.143  19.470 -0.8685  0.2339 -1.0229
 1398TIP3   OH228388   0.944   4.463  18.808  0.3221 -0.4309 -0.1912
 1398TIP3    H128389   0.954   4.537  18.749  0.4688 -1.4641 -1.5034
 1398TIP3    H228390   1.016   4.471  18.871  0.0514  0.7789 -0.0260
 1399TIP3   OH228391   0.872   5.437  17.316 -0.3770  0.1394  0.4963
 1399TIP3    H128392   0.967   5.453  17.320 -0.5846  1.5104  0.3973
 1399TIP3    H228393   0.864   5.348  17.283  0.8738  0.6185 -1.2375
 1400TIP3   OH228394   1.538   5.369  17.269  0.0734 -0.1999  0.1722
 1400TIP3    H128395   1.503   5.399  17.185 -1.1897 -1.4996  0.2043
 1400TIP3    H228396   1.611   5.312  17.245  2.1244  2.2287  0.1007
 1401TIP3   OH228397   6.083   2.362  18.433 -0.3351 -0.3101 -0.0803
 1401TIP3    H128398   6.104   2.285  18.379  0.8540 -0.1693  0.1570
 1401TIP3    H228399   6.168   2.404  18.448 -0.9132  0.7677  0.2266
 1402TIP3   OH228400   0.803   4.976  16.798 -0.6356  0.2596  0.4578
 1402TIP3    H128401   0.738   4.910  16.776 -0.7046  0.6255 -0.4559
 1402TIP3    H228402   0.867   4.972  16.727 -0.4693  0.9597  0.5644
 1403TIP3   OH228403   5.761   2.407  16.409  0.3454  0.0036  0.1416
 1403TIP3    H128404   5.701   2.443  16.344  0.7228 -1.5522 -1.1454
 1403TIP3    H228405   5.706   2.391  16.486 -0.5408  0.1161 -0.4523
 1404TIP3   OH228406   2.675   0.176  17.102 -0.3007  0.7812 -0.5775
 1404TIP3    H128407   2.581   0.176  17.119 -0.0556  1.7318  1.0094
 1404TIP3    H228408   2.705   0.261  17.134  1.0887  0.5284 -1.1436
 1405TIP3   OH228409   0.471   4.029  17.107  0.6887  0.2893 -0.2463
 1405TIP3    H128410   0.427   4.112  17.087 -1.5661 -0.4524  1.3123
 1405TIP3    H228411   0.533   4.052  17.176 -0.9940  0.4934  1.2731
 1406TIP3   OH228412   1.229   5.409  17.766  0.2313 -0.2785 -0.3065
 1406TIP3    H128413   1.174   5.381  17.840  0.8175 -0.3033  0.1308
 1406TIP3    H228414   1.275   5.329  17.740  1.5870  0.1534  0.6637
 1407TIP3   OH228415   0.264   1.306  16.555  0.6763  0.1055 -0.4266
 1407TIP3    H128416   0.329   1.236  16.548  0.3916 -0.1117 -1.0565
 1407TIP3    H228417   0.266   1.349  16.469 -0.8684 -0.6895 -0.8923
 1408TIP3   OH228418   1.497   5.033  17.377 -0.5310 -0.4280  0.8009
 1408TIP3    H128419   1.539   4.947  17.383  2.0014  0.6853  0.4726
 1408TIP3    H228420   1.557   5.086  17.325 -2.4578  1.3214  0.1967
 1409TIP3   OH228421   1.553   3.431  19.439 -0.3888  0.4506  0.2359
 1409TIP3    H128422   1.501   3.436  19.359 -0.8967 -1.0960  0.4541
 1409TIP3    H228423   1.630   3.379  19.416 -0.9014 -0.6452  0.9277
 1410TIP3   OH228424   3.087   0.639  16.167  0.0026  0.3059 -0.3615
 1410TIP3    H128425   3.144   0.590  16.109 -1.3260 -0.0826 -1.3683
 1410TIP3    H228426   3.129   0.725  16.175  1.4084 -0.3817  0.0074
 1411TIP3   OH228427   5.299   3.082  16.309 -0.1086 -0.2628  0.0985
 1411TIP3    H128428   5.350   3.148  16.356  0.4976 -0.9124  0.3740
 1411TIP3    H228429   5.326   2.999  16.349 -0.0031 -0.7763 -1.0188
 1412TIP3   OH228430   4.852   1.000  18.293  0.0229 -0.1116  0.0186
 1412TIP3    H128431   4.841   1.078  18.347 -2.9061 -0.5349  0.1954
 1412TIP3    H228432   4.945   1.001  18.268  0.7290  1.8731  2.2996
 1413TIP3   OH228433   2.285   1.205  16.429  0.0820  0.7686 -0.3177
 1413TIP3    H128434   2.235   1.262  16.487 -2.5082 -0.5409 -1.1312
 1413TIP3    H228435   2.342   1.155  16.487 -0.6622  1.2081  0.8252
 1414TIP3   OH228436   3.004   3.791  19.349 -0.2740  0.2772  0.0658
 1414TIP3    H128437   2.920   3.813  19.309  0.5506  1.2796 -1.1792
 1414TIP3    H228438   3.039   3.875  19.377  0.4485 -0.1033  0.3219
 1415TIP3   OH228439   3.740   1.779  16.352  0.0386  0.3835 -0.0122
 1415TIP3    H128440   3.788   1.793  16.271  1.2358 -2.2221  0.1304
 1415TIP3    H228441   3.800   1.805  16.421  0.3018 -0.4510  0.0902
 1416TIP3   OH228442   6.359   1.078  18.687  0.4206 -0.1957 -0.3179
 1416TIP3    H128443   6.303   1.139  18.639 -0.9584 -0.4520  0.9080
 1416TIP3    H228444   6.316   1.066  18.771  2.5845 -0.0197  0.8964
 1417TIP3   OH228445   3.079   0.477  19.139  0.3637  0.6014  0.5803
 1417TIP3    H128446   3.019   0.520  19.078 -0.2432 -1.4612 -0.3877
 1417TIP3    H228447   3.166   0.501  19.108  0.1306 -1.5344 -2.1391
 1418TIP3   OH228448   3.997   2.697  19.126 -0.0685 -0.1492  0.0735
 1418TIP3    H128449   4.087   2.676  19.099 -0.7910  0.1355 -2.8618
 1418TIP3    H228450   3.983   2.786  19.094 -1.6559 -0.4928 -0.2497
 1419TIP3   OH228451   5.372   5.148  19.324 -0.0338  0.2577 -0.8017
 1419TIP3    H128452   5.375   5.196  19.241  1.0006 -0.2083 -1.0417
 1419TIP3    H228453   5.279   5.149  19.349 -0.2958  0.7314 -1.7622
 1420TIP3   OH228454   0.478   2.448  17.775  0.2030  0.4029 -0.4438
 1420TIP3    H128455   0.522   2.497  17.844 -0.1081  0.7090 -0.4595
 1420TIP3    H228456   0.512   2.486  17.694  2.6434 -1.7455 -0.5540
 1421TIP3   OH228457   1.073   5.292  18.008  0.0922  0.1629  0.8486
 1421TIP3    H128458   1.025   5.373  17.989  1.2849  0.5463 -0.7197
 1421TIP3    H228459   1.026   5.225  17.958 -1.0124 -0.2053  2.2991
 1422TIP3   OH228460   0.379   4.093  17.590  0.2072 -0.0309  0.2615
 1422TIP3    H128461   0.399   4.001  17.575  0.1689 -0.2928  1.6304
 1422TIP3    H228462   0.366   4.130  17.503  0.2398 -1.3153 -0.3085
 1423TIP3   OH228463   0.501   6.743  19.025 -0.2344  0.0750 -0.6558
 1423TIP3    H128464   0.596   6.736  19.031 -0.2510 -1.0006 -1.3353
 1423TIP3    H228465   0.480   6.715  18.936 -1.2887 -1.1920 -0.0466
 1424TIP3   OH228466   3.341   5.869  16.227 -0.0835  0.2770 -0.3429
 1424TIP3    H128467   3.419   5.843  16.277 -1.1556  1.2393  1.9623
 1424TIP3    H228468   3.296   5.931  16.284 -1.8384  0.8073 -2.2137
 1425TIP3   OH228469   2.439   0.434  19.310  0.2791  0.3035 -0.1681
 1425TIP3    H128470   2.481   0.358  19.269 -0.2171 -0.7433  1.2159
 1425TIP3    H228471   2.507   0.470  19.367 -0.0155 -0.1404  0.4760
 1426TIP3   OH228472   1.005   0.527  16.143 -0.2032  0.2157 -0.0469
 1426TIP3    H128473   1.039   0.441  16.169  0.5233  0.7629  0.8850
 1426TIP3    H228474   1.013   0.527  16.047  2.3419  0.2199  0.0742
 1427TIP3   OH228475   3.090   4.309  19.406  0.8010  0.1107 -0.1866
 1427TIP3    H128476   3.148   4.384  19.419  0.5461  0.5413 -1.4100
 1427TIP3    H228477   3.002   4.345  19.416  0.6953 -0.1921 -0.0149
 1428TIP3   OH228478   2.097   5.653  18.614 -0.3473  0.1345  0.2298
 1428TIP3    H128479   2.141   5.623  18.535 -0.9653 -2.4431  0.7676
 1428TIP3    H228480   2.103   5.749  18.610  1.1725  0.0254 -2.0073
 1429TIP3   OH228481   0.914   5.750  17.773 -0.1915  0.0967  1.0350
 1429TIP3    H128482   0.988   5.804  17.747 -0.3116  0.1237  0.7416
 1429TIP3    H228483   0.874   5.723  17.690 -0.1325 -0.4446  1.1762
 1430TIP3   OH228484   2.723   1.706  17.844 -0.0068 -0.4479  0.1861
 1430TIP3    H128485   2.801   1.655  17.867  0.1582  0.4516  1.8182
 1430TIP3    H228486   2.738   1.736  17.755  0.7072 -1.7244 -0.1455
 1431TIP3   OH228487   1.698   5.851  16.521 -0.2758  0.6235  0.0480
 1431TIP3    H128488   1.681   5.822  16.610  0.5706 -0.4589 -0.1385
 1431TIP3    H228489   1.723   5.772  16.473 -1.0597  1.1175 -1.2445
 1432TIP3   OH228490   3.690   5.180  17.404  0.5061 -0.7442 -0.5688
 1432TIP3    H128491   3.658   5.239  17.473 -2.0182 -2.3034 -0.3059
 1432TIP3    H228492   3.770   5.222  17.373 -0.5657  2.2521  0.3421
 1433TIP3   OH228493   6.641   3.154  17.052  0.1907 -0.8001  0.5283
 1433TIP3    H128494   6.652   3.113  17.138  3.0752 -0.5331  0.3907
 1433TIP3    H228495   6.659   3.084  16.990 -0.4587 -0.6469  0.1622
 1434TIP3   OH228496   3.840   5.922  18.000 -0.0803 -0.2084  0.3207
 1434TIP3    H128497   3.754   5.936  17.962 -0.6675 -2.8043  0.4772
 1434TIP3    H228498   3.839   5.972  18.082 -0.0468  2.6723 -1.3058
 1435TIP3   OH228499   2.058   4.927  17.485  0.0487  0.1003 -0.1211
 1435TIP3    H128500   2.010   4.948  17.565  2.0437  2.3092  0.6008
 1435TIP3    H228501   2.142   4.892  17.515  0.3213 -0.2677 -1.2596
 1436TIP3   OH228502   5.881   2.077  18.781  0.0511  0.5441 -0.4896
 1436TIP3    H128503   5.944   2.006  18.796 -2.2550 -2.1497 -2.5935
 1436TIP3    H228504   5.826   2.077  18.859 -1.0898 -1.3630 -1.2437
 1437TIP3   OH228505   2.876   2.713  18.410 -0.0451  0.3779  0.4115
 1437TIP3    H128506   2.924   2.632  18.389  0.1204  0.4975  0.3231
 1437TIP3    H228507   2.928   2.753  18.480 -0.1073  0.4264  0.4294
 1438TIP3   OH228508   0.990   3.851  17.795  0.0940 -0.1983 -0.1117
 1438TIP3    H128509   0.901   3.825  17.820 -0.4208 -0.0734 -1.7436
 1438TIP3    H228510   1.040   3.846  17.877 -1.2867 -0.7774  0.7276
 1439TIP3   OH228511   4.072   0.382  16.504 -0.0454 -0.6485 -0.4898
 1439TIP3    H128512   4.052   0.383  16.598 -0.4320 -1.3557 -0.5648
 1439TIP3    H228513   3.989   0.362  16.462 -0.1483  0.8807 -1.0730
 1440TIP3   OH228514   2.915   5.819  18.306  0.4391 -0.4718  0.3189
 1440TIP3    H128515   2.976   5.818  18.233  0.6912 -0.4306  0.5260
 1440TIP3    H228516   2.941   5.745  18.361  0.2928 -0.4635  0.4007
 1441TIP3   OH228517   6.288   2.603  18.756 -0.2623  0.0639 -0.5439
 1441TIP3    H128518   6.304   2.559  18.673 -1.6302  0.1100 -0.8570
 1441TIP3    H228519   6.195   2.587  18.774 -0.2687  1.0553  0.3873
 1442TIP3   OH228520   3.838   5.723  16.440 -0.1480  0.0599 -0.4723
 1442TIP3    H128521   3.916   5.759  16.483  0.1347 -1.1997  0.1405
 1442TIP3    H228522   3.862   5.719  16.347  0.6676 -0.5894 -0.2577
 1443TIP3   OH228523   5.119   2.279  18.077 -0.2416  0.1512  0.1022
 1443TIP3    H128524   5.193   2.327  18.038 -0.0978 -0.9903 -1.1097
 1443TIP3    H228525   5.041   2.319  18.038 -0.1904  0.3430  0.1964
 1444TIP3   OH228526   1.699   6.218  17.399  0.4710 -0.1179  0.3862
 1444TIP3    H128527   1.772   6.217  17.338  0.7525 -0.0913  0.7217
 1444TIP3    H228528   1.655   6.134  17.386 -0.2649  0.4257 -0.7998
 1445TIP3   OH228529   4.033   2.082  18.370 -0.1877  0.0849  0.3102
 1445TIP3    H128530   4.068   2.077  18.281  0.8707 -0.5241  0.7515
 1445TIP3    H228531   3.949   2.037  18.365  1.8536 -4.2302  0.5668
 1446TIP3   OH228532   1.356   2.309  17.035 -0.2102  0.0725  0.0848
 1446TIP3    H128533   1.299   2.272  17.103  0.0543 -1.9619 -0.7340
 1446TIP3    H228534   1.356   2.403  17.053 -3.1851  0.0827  0.6058
 1447TIP3   OH228535   0.825   2.710  17.129  0.3890 -0.2271  0.3842
 1447TIP3    H128536   0.838   2.745  17.217 -0.0345 -0.4521  0.5373
 1447TIP3    H228537   0.735   2.679  17.128  0.1928  0.3215 -0.3192
 1448TIP3   OH228538   6.231   1.772  18.945 -0.2908 -0.4001 -0.3426
 1448TIP3    H128539   6.180   1.849  18.919 -0.7969 -1.0461 -1.3376
 1448TIP3    H228540   6.229   1.716  18.868  0.7511 -1.0602  0.1037
 1449TIP3   OH228541   4.981   5.225  16.434 -1.0265  0.3358 -0.0513
 1449TIP3    H128542   4.956   5.139  16.469 -2.7282  0.5273 -0.6900
 1449TIP3    H228543   4.915   5.243  16.367 -0.5381  2.0252 -0.1095
 1450TIP3   OH228544   2.291   4.760  17.561  0.5209 -0.5637  0.0973
 1450TIP3    H128545   2.316   4.730  17.648  2.6674  0.0052 -0.2816
 1450TIP3    H228546   2.313   4.687  17.503 -0.9868 -0.9785 -0.0023
 1451TIP3   OH228547   5.549   2.866  16.631 -0.1090  0.1558  0.5314
 1451TIP3    H128548   5.610   2.794  16.646 -0.6525 -0.0246  2.0297
 1451TIP3    H228549   5.529   2.862  16.538  0.8407 -0.8350  0.3525
 1452TIP3   OH228550   6.634   5.905  17.301 -0.4675  0.7691 -0.5151
 1452TIP3    H128551   6.571   5.852  17.351 -1.3316  3.4702  1.4910
 1452TIP3    H228552   6.718   5.886  17.341 -0.3558 -0.8126 -1.4120
 1453TIP3   OH228553   5.687   0.728  18.402  0.2570  0.1335 -0.3269
 1453TIP3    H128554   5.636   0.716  18.482 -0.2421 -1.6009 -0.8724
 1453TIP3    H228555   5.727   0.643  18.385  1.3745  0.8082 -1.2561
 1454TIP3   OH228556   4.154   1.150  17.612  0.5935  0.2772  0.0735
 1454TIP3    H128557   4.205   1.084  17.566 -0.4899  1.2835 -2.8048
 1454TIP3    H228558   4.138   1.218  17.546 -2.3189  1.1701  1.5340
 1455TIP3   OH228559   1.109   1.941  18.135  0.0548 -0.5563 -0.0023
 1455TIP3    H128560   1.161   1.903  18.206  0.2134 -0.3733 -0.0194
 1455TIP3    H228561   1.018   1.933  18.164  0.1691  0.4621  0.6942
 1456TIP3   OH228562   1.357   5.232  18.592  0.1802  0.2486 -0.4042
 1456TIP3    H128563   1.296   5.302  18.616  1.5271  0.5397  2.7559
 1456TIP3    H228564   1.333   5.208  18.503 -1.0059  4.0038 -1.2646
 1457TIP3   OH228565   4.687   5.978  16.731 -0.1627 -0.4822 -0.0041
 1457TIP3    H128566   4.764   5.934  16.693  1.2908  1.2310  0.8128
 1457TIP3    H228567   4.710   5.992  16.823 -1.8393 -0.6988  0.4830
 1458TIP3   OH228568   2.240   3.985  18.561  0.1208 -0.0116 -0.2705
 1458TIP3    H128569   2.328   3.948  18.564 -0.5164 -1.5234  0.6035
 1458TIP3    H228570   2.238   4.036  18.480  2.1479  0.9934  0.2503
 1459TIP3   OH228571   2.713   1.576  19.314  0.3605  0.3266 -0.2699
 1459TIP3    H128572   2.770   1.567  19.237 -0.1086  1.5750 -0.7919
 1459TIP3    H228573   2.668   1.660  19.300 -1.0342 -0.2726  0.5120
 1460TIP3   OH228574   5.820   4.375  18.397 -0.3569 -0.1623 -0.0480
 1460TIP3    H128575   5.813   4.398  18.304  1.1688  0.0310 -0.1501
 1460TIP3    H228576   5.743   4.320  18.415 -1.0662  0.4194 -1.2257
 1461TIP3   OH228577   5.645   5.752  17.167 -0.0365 -0.3837  0.2237
 1461TIP3    H128578   5.691   5.752  17.251  0.5704 -0.0743 -0.1031
 1461TIP3    H228579   5.553   5.742  17.190  0.2541 -1.8875  0.8480
 1462TIP3   OH228580   2.330   3.205  17.508  0.4351  0.7114  0.6773
 1462TIP3    H128581   2.256   3.198  17.568  1.3869 -1.3811  1.7061
 1462TIP3    H228582   2.303   3.158  17.429  0.2471  0.9573  0.5954
 1463TIP3   OH228583   2.987   3.848  17.466 -0.2296  0.1086  0.0243
 1463TIP3    H128584   2.987   3.759  17.431 -0.6844  0.5995 -1.2967
 1463TIP3    H228585   2.967   3.837  17.559  3.5444 -1.4587  0.8398
 1464TIP3   OH228586   3.273   1.385  16.218  0.5103  0.1672 -0.5858
 1464TIP3    H128587   3.307   1.469  16.187  0.1673  0.3684 -0.4241
 1464TIP3    H228588   3.190   1.407  16.260  1.7322  0.1575  1.9914
 1465TIP3   OH228589   5.992   4.672  17.412  0.2816  0.2659  0.1008
 1465TIP3    H128590   6.042   4.602  17.370 -0.6405 -0.5262  0.2698
 1465TIP3    H228591   5.909   4.630  17.437 -0.9034  1.7604 -1.1157
 1466TIP3   OH228592   0.220   6.391  16.529 -0.1989 -1.0697  0.3261
 1466TIP3    H128593   0.238   6.424  16.616  1.3012 -0.4125 -0.2097
 1466TIP3    H228594   0.128   6.415  16.513  0.2635  1.1947  0.6937
 1467TIP3   OH228595   5.333   6.445  17.376 -0.3952 -0.2497 -0.2503
 1467TIP3    H128596   5.362   6.355  17.382  1.4462  0.2138 -1.3182
 1467TIP3    H228597   5.238   6.440  17.371 -0.3563 -2.0641  0.3816
 1468TIP3   OH228598   3.008   5.386  18.446  0.3854 -0.8121  0.0504
 1468TIP3    H128599   3.095   5.348  18.447  0.5791 -0.3884 -0.4270
 1468TIP3    H228600   2.986   5.395  18.354  0.2081 -0.0897  0.1530
 1469TIP3   OH228601   2.983   0.913  18.250 -0.0343  0.2815 -0.2009
 1469TIP3    H128602   2.902   0.952  18.217 -0.3283  0.1994  0.3947
 1469TIP3    H228603   2.972   0.819  18.234  0.3547  0.3600 -0.9672
 1470TIP3   OH228604   5.796   6.413  16.563  0.5101  0.3564  0.6218
 1470TIP3    H128605   5.755   6.329  16.583  1.9328 -0.4297  0.3951
 1470TIP3    H228606   5.741   6.452  16.496  1.3035 -1.6980 -1.3668
 1471TIP3   OH228607   4.883   4.428  16.949 -0.4805 -0.2661 -0.0094
 1471TIP3    H128608   4.847   4.384  16.872  0.1027 -1.1946  0.2348
 1471TIP3    H228609   4.972   4.453  16.922 -0.1591 -0.8811  0.4491
 1472TIP3   OH228610   3.060   6.738  17.526  0.2625 -0.0053  0.2301
 1472TIP3    H128611   3.026   6.744  17.615  0.2235  0.1034  0.2077
 1472TIP3    H228612   2.987   6.766  17.471  0.4416  0.4036  0.1924
 1473TIP3   OH228613   3.342   3.370  19.215 -0.2754  0.5770 -0.0201
 1473TIP3    H128614   3.304   3.420  19.287  0.7031  1.7287 -0.2560
 1473TIP3    H228615   3.289   3.394  19.139  0.2122  1.3194 -0.1392
 1474TIP3   OH228616   2.249   5.205  19.141  0.4373  0.0617  0.6119
 1474TIP3    H128617   2.160   5.233  19.164  0.6139 -0.2117  1.6533
 1474TIP3    H228618   2.271   5.139  19.206  2.1427  1.5118  1.5980
 1475TIP3   OH228619   4.779   3.220  19.582 -0.5232  0.4993 -0.0447
 1475TIP3    H128620   4.798   3.268  19.662  2.9307 -2.0196  0.9077
 1475TIP3    H228621   4.863   3.181  19.557 -1.9465 -0.6343 -3.6675
 1476TIP3   OH228622   6.199   3.667  18.609 -0.6184 -0.2386  0.2359
 1476TIP3    H128623   6.119   3.667  18.663 -1.7662 -0.7475 -1.3986
 1476TIP3    H228624   6.180   3.607  18.538  0.1292  1.7292 -1.7585
 1477TIP3   OH228625   2.379   5.144  16.647 -0.2585 -0.0594  0.3619
 1477TIP3    H128626   2.330   5.156  16.728 -1.0251  0.7775 -0.2118
 1477TIP3    H228627   2.427   5.226  16.635  0.1366 -0.3162  0.1462
 1478TIP3   OH228628   3.472   5.975  16.940  0.2737 -0.0585  0.0027
 1478TIP3    H128629   3.456   5.959  16.847 -0.5826 -0.7503  0.2597
 1478TIP3    H228630   3.445   5.894  16.984  0.4408  0.3457  0.8706
 1479TIP3   OH228631   2.589   1.984  16.132  0.3089 -0.0166  0.9143
 1479TIP3    H128632   2.657   1.968  16.197  0.4899  0.2759  0.8018
 1479TIP3    H228633   2.541   1.902  16.126  0.5725 -0.1851  1.0889
 1480TIP3   OH228634   5.332   5.125  16.623 -0.0394  0.0056 -0.1153
 1480TIP3    H128635   5.399   5.074  16.670  1.4325  0.6252 -1.4678
 1480TIP3    H228636   5.278   5.058  16.581  1.1843 -0.5065 -0.9468
 1481TIP3   OH228637   0.369   0.777  18.894  0.0221  0.4526 -0.0014
 1481TIP3    H128638   0.329   0.774  18.807 -3.4602 -0.7250  1.4523
 1481TIP3    H228639   0.420   0.697  18.900 -2.6312 -1.3620  0.1281
 1482TIP3   OH228640   0.444   5.661  18.696 -0.3187  0.6405  0.5175
 1482TIP3    H128641   0.499   5.673  18.618 -1.4293 -0.9701 -0.6005
 1482TIP3    H228642   0.395   5.743  18.703  0.9472  1.4228  0.4967
 1483TIP3   OH228643   1.279   4.457  18.678  0.3779  0.1227 -0.1276
 1483TIP3    H128644   1.204   4.511  18.653  0.1839  1.4700  2.9035
 1483TIP3    H228645   1.355   4.505  18.646  0.0556  0.3568 -0.5468
 1484TIP3   OH228646   6.084   3.232  17.396 -0.1987  0.1781  0.0993
 1484TIP3    H128647   6.082   3.218  17.301  0.3418  1.4817 -0.1246
 1484TIP3    H228648   5.995   3.216  17.425 -0.2053 -0.9756 -0.5073
 1485TIP3   OH228649   1.627   3.079  16.776  0.2509 -0.4249 -0.5482
 1485TIP3    H128650   1.635   3.011  16.710 -0.7773  0.2964 -1.4515
 1485TIP3    H228651   1.554   3.051  16.831  0.7492 -0.7511 -0.0466
 1486TIP3   OH228652   2.227   3.098  19.197 -0.1625 -0.1793  0.1743
 1486TIP3    H128653   2.270   3.168  19.147  1.4399 -1.6690 -0.6312
 1486TIP3    H228654   2.253   3.114  19.288 -1.8464  1.6625  0.3962
 1487TIP3   OH228655   0.273   0.748  18.635  0.2944 -0.2149 -0.4974
 1487TIP3    H128656   0.205   0.715  18.576 -0.4866 -0.6612  0.6232
 1487TIP3    H228657   0.330   0.672  18.648 -0.4729 -0.6250  0.6218
 1488TIP3   OH228658   6.724   4.513  18.961 -0.2567 -0.2205  0.2273
 1488TIP3    H128659   6.790   4.448  18.985  0.0744 -0.2033 -0.5737
 1488TIP3    H228660   6.758   4.596  18.995  1.1472  0.1246 -1.8241
 1489TIP3   OH228661   2.530   3.482  19.149  0.3197 -0.0998  0.0433
 1489TIP3    H128662   2.464   3.538  19.190  2.3072  0.0377  3.4920
 1489TIP3    H228663   2.530   3.508  19.057 -3.2479  0.9712  0.1989
 1490TIP3   OH228664   2.021   1.054  18.652  0.0112  0.5657  0.5849
 1490TIP3    H128665   1.943   1.050  18.707  0.1881  1.1221  0.8872
 1490TIP3    H228666   2.094   1.055  18.714  0.2069  1.3418  0.3488
 1491TIP3   OH228667   3.960   4.484  18.629  0.1143 -0.2518  0.1985
 1491TIP3    H128668   3.910   4.524  18.557 -0.3536 -0.7267  0.2551
 1491TIP3    H228669   4.024   4.551  18.654  0.9788 -0.4492 -1.3441
 1492TIP3   OH228670   6.303   0.097  16.961 -0.0500 -0.3149 -0.0008
 1492TIP3    H128671   6.321   0.084  17.054  0.2995  0.0009 -0.0234
 1492TIP3    H228672   6.209   0.079  16.952 -0.8679  2.7858  1.0108
 1493TIP3   OH228673   2.732   5.778  17.252 -0.1031  0.3422  0.3496
 1493TIP3    H128674   2.746   5.723  17.329 -1.4945  0.6577  0.8542
 1493TIP3    H228675   2.811   5.833  17.248 -0.0158  0.3433  1.5792
 1494TIP3   OH228676   5.691   0.170  18.233 -0.5476 -0.6608 -0.0172
 1494TIP3    H128677   5.709   0.115  18.310 -0.5282 -1.0563 -0.2977
 1494TIP3    H228678   5.615   0.221  18.257 -0.2058 -0.3731  0.4733
 1495TIP3   OH228679   3.429   4.138  18.466 -0.1795 -0.1785 -0.2415
 1495TIP3    H128680   3.498   4.201  18.445  0.0298 -0.4544 -0.3908
 1495TIP3    H228681   3.460   4.055  18.429  0.0385 -0.6081  0.8632
 1496TIP3   OH228682   5.915   0.448  18.716  0.2933  0.1351 -0.5406
 1496TIP3    H128683   6.011   0.438  18.714  0.2433 -0.3952 -0.2815
 1496TIP3    H228684   5.901   0.522  18.775  0.5689  0.5860 -1.0261
 1497TIP3   OH228685   3.786   2.744  18.690  0.0465 -0.3272 -0.1385
 1497TIP3    H128686   3.841   2.814  18.725  0.1805 -0.5821  0.1660
 1497TIP3    H228687   3.765   2.689  18.766 -0.6072 -0.2504 -0.2521
 1498TIP3   OH228688   5.538   6.580  16.154 -0.3314  0.0686  0.3580
 1498TIP3    H128689   5.583   6.540  16.079  0.2285 -1.0110  1.2502
 1498TIP3    H228690   5.455   6.612  16.117  0.7657  1.3593 -1.1380
 1499TIP3   OH228691   1.238   1.195  17.658  0.4862  0.4754  0.3652
 1499TIP3    H128692   1.180   1.201  17.734  1.9420  1.9569  1.4188
 1499TIP3    H228693   1.235   1.102  17.634 -1.0044  0.2139  1.4141
 1500TIP3   OH228694   0.420   2.278  16.257 -0.5099  0.3776  0.5009
 1500TIP3    H128695   0.413   2.183  16.267 -1.8895  0.3238 -0.7633
 1500TIP3    H228696   0.334   2.306  16.226  0.5783  1.7004 -1.5967
 1501TIP3   OH228697   5.029   6.379  18.871 -0.0599 -0.0508  0.2971
 1501TIP3    H128698   4.937   6.400  18.889 -0.5327 -1.8773  0.2380
 1501TIP3    H228699   5.035   6.382  18.776 -0.1468 -0.2685  0.2846
 1502TIP3   OH228700   4.125   5.829  16.510 -0.1108 -0.6007  0.3687
 1502TIP3    H128701   4.179   5.882  16.451 -2.0945 -0.9002 -1.8696
 1502TIP3    H228702   4.184   5.760  16.541  1.6430  0.9770  0.7468
 1503TIP3   OH228703   0.963   5.174  16.240 -0.0153  0.4739 -0.1243
 1503TIP3    H128704   1.007   5.090  16.228 -0.8556 -0.2535  1.6492
 1503TIP3    H228705   0.955   5.210  16.151 -0.8420 -1.9194 -1.0858
 1504TIP3   OH228706   3.834   1.974  17.206  0.0696  0.4688 -0.0186
 1504TIP3    H128707   3.777   2.043  17.238 -0.0779  0.4606 -0.2639
 1504TIP3    H228708   3.811   1.963  17.113 -0.1069 -0.1031  0.0869
 1505TIP3   OH228709   6.366   4.537  17.480 -0.1660  0.1223 -0.1682
 1505TIP3    H128710   6.318   4.561  17.558  0.2862  2.4896 -0.5639
 1505TIP3    H228711   6.432   4.475  17.511 -2.3814 -2.0304  0.6147
 1506TIP3   OH228712   4.407   1.816  19.375 -0.6007 -0.0198 -0.0391
 1506TIP3    H128713   4.345   1.835  19.445 -0.5865 -2.5170  0.7489
 1506TIP3    H228714   4.461   1.895  19.368 -2.4171  1.3615  0.7624
 1507TIP3   OH228715   5.582   0.641  19.206 -0.1686  0.1939  0.0993
 1507TIP3    H128716   5.487   0.655  19.200 -0.6539 -3.0851 -2.5136
 1507TIP3    H228717   5.591   0.560  19.256  1.4895  1.4799  2.0432
 1508TIP3   OH228718   1.467   0.502  17.588  0.2444  0.7061  0.0427
 1508TIP3    H128719   1.431   0.579  17.544  0.0274  0.4440 -0.2430
 1508TIP3    H228720   1.544   0.479  17.536 -1.2561 -0.9749 -1.6439
 1509TIP3   OH228721   4.579   5.865  17.555 -0.2101 -0.3759 -0.0112
 1509TIP3    H128722   4.618   5.888  17.470 -2.6723 -1.8739 -1.6791
 1509TIP3    H228723   4.553   5.949  17.592  0.5410  0.2925 -0.9455
 1510TIP3   OH228724   2.531   3.019  18.870 -0.3579  0.4505 -0.0564
 1510TIP3    H128725   2.441   3.034  18.840 -0.8661  0.6661  1.4702
 1510TIP3    H228726   2.532   2.927  18.897  0.0540  0.2893 -0.6181
 1511TIP3   OH228727   1.881   5.704  17.709  0.0457 -0.0742 -0.1836
 1511TIP3    H128728   1.933   5.781  17.733  1.3689 -0.6714 -1.0697
 1511TIP3    H228729   1.904   5.686  17.618 -1.3687 -0.6553 -0.4570
 1512TIP3   OH228730   1.826   5.713  18.584 -0.2142 -0.1640  0.0025
 1512TIP3    H128731   1.911   5.670  18.597  0.1793  0.9196  1.2664
 1512TIP3    H228732   1.765   5.663  18.637  0.5312  1.5891  2.7131
 1513TIP3   OH228733   3.792   4.118  17.691 -0.4280  0.4189  0.5438
 1513TIP3    H128734   3.750   4.041  17.729  0.0974  0.0566  0.4092
 1513TIP3    H228735   3.723   4.162  17.642 -0.3692 -0.8843 -0.7825
 1514TIP3   OH228736   3.522   0.840  17.629  0.3388  0.5352 -0.1918
 1514TIP3    H128737   3.534   0.901  17.702 -1.2523 -0.5236  1.0355
 1514TIP3    H228738   3.493   0.895  17.556  2.2967  1.6672 -0.1834
 1515TIP3   OH228739   2.320   5.714  17.679  0.0457  0.5731 -0.0509
 1515TIP3    H128740   2.394   5.714  17.740 -0.4922  0.3553  0.6151
 1515TIP3    H228741   2.246   5.684  17.731 -0.6218  1.2568 -0.5812
 1516TIP3   OH228742   3.057   6.430  17.692  0.3170 -0.3201 -0.0636
 1516TIP3    H128743   2.992   6.438  17.622  0.1479 -0.6721  0.0528
 1516TIP3    H228744   3.006   6.409  17.770  0.3411  1.5763  0.5040
 1517TIP3   OH228745   2.021   6.091  17.662  0.4325 -0.4220  0.1046
 1517TIP3    H128746   1.948   6.153  17.668 -0.4261 -1.3141 -0.7151
 1517TIP3    H228747   2.090   6.130  17.715 -0.2182  1.0418 -0.0746
 1518TIP3   OH228748   5.649   2.840  16.285  0.0232 -0.4056 -0.1066
 1518TIP3    H128749   5.672   2.757  16.243 -0.4148 -0.5753 -0.0238
 1518TIP3    H228750   5.559   2.827  16.315  0.2766 -0.2236  0.7440
 1519TIP3   OH228751   0.255   4.412  16.539 -0.3541 -0.3179  0.2909
 1519TIP3    H128752   0.167   4.375  16.545 -1.0326  1.2699  0.4348
 1519TIP3    H228753   0.251   4.473  16.465  1.2988 -1.9301 -1.2554
 1520TIP3   OH228754   1.074   6.264  17.018 -0.1680 -0.6930  0.2210
 1520TIP3    H128755   1.152   6.284  17.069 -0.1172  0.7675 -0.3854
 1520TIP3    H228756   1.005   6.250  17.083 -0.0373  0.8324  0.7098
 1521TIP3   OH228757   1.041   5.504  16.570  0.5905  0.5730  0.4358
 1521TIP3    H128758   1.109   5.437  16.572  0.2302  0.1928  2.3908
 1521TIP3    H228759   0.978   5.473  16.505  2.0943  0.7770 -1.1736
 1522TIP3   OH228760   5.923   4.866  16.297 -0.3312  0.4583  0.6642
 1522TIP3    H128761   5.865   4.791  16.286  0.1986 -0.3012  2.7155
 1522TIP3    H228762   6.011   4.831  16.286 -0.1383  1.2755 -0.6916
 1523TIP3   OH228763   4.419   1.214  18.593  0.6193  0.0628 -0.3696
 1523TIP3    H128764   4.508   1.180  18.590 -0.0290 -1.6746 -0.5818
 1523TIP3    H228765   4.429   1.303  18.629  2.6118  0.6121 -2.0837
 1524TIP3   OH228766   6.534   6.154  17.510  0.6210  0.2628  0.6209
 1524TIP3    H128767   6.477   6.169  17.585  1.1873  0.2881  1.0590
 1524TIP3    H228768   6.547   6.059  17.508  0.0838  0.1992  0.1591
 1525TIP3   OH228769   2.707   0.417  17.190 -0.4602 -0.1099 -0.3312
 1525TIP3    H128770   2.789   0.462  17.171  0.3726 -1.3254  0.2231
 1525TIP3    H228771   2.648   0.486  17.221 -0.4196  1.1596 -2.8571
 1526TIP3   OH228772   2.253   4.035  17.988  0.2378  0.6209  0.4506
 1526TIP3    H128773   2.158   4.048  17.982  0.2942  1.1998  0.7152
 1526TIP3    H228774   2.263   3.950  18.029 -0.1611  0.0857 -0.5345
 1527TIP3   OH228775   1.622   1.137  19.635 -0.0403 -0.5703 -0.1190
 1527TIP3    H128776   1.585   1.195  19.701 -0.9422 -0.3634 -0.8031
 1527TIP3    H228777   1.559   1.137  19.563 -0.5758 -3.1590  0.2488
 1528TIP3   OH228778   3.760   5.021  17.126  0.3599 -0.1036 -0.7546
 1528TIP3    H128779   3.744   4.998  17.218 -0.1163 -0.3285 -0.8894
 1528TIP3    H228780   3.855   5.018  17.116  0.4643  0.5741 -0.0988
 1529TIP3   OH228781   3.923   6.633  15.733  0.1348 -0.5632 -0.6655
 1529TIP3    H128782   3.830   6.643  15.713 -0.0844 -1.8982 -0.4454
 1529TIP3    H228783   3.967   6.699  15.680 -1.0742  1.3736  0.6188
 1530TIP3   OH228784   0.750   2.884  19.060 -0.2701  0.7666 -0.0904
 1530TIP3    H128785   0.713   2.968  19.086 -0.3181  0.5044  0.6994
 1530TIP3    H228786   0.785   2.846  19.141  1.7784  1.0186 -0.7868
 1531TIP3   OH228787   1.270   5.352  16.500 -0.2503  0.5017  0.1551
 1531TIP3    H128788   1.342   5.414  16.515  1.6176 -1.5527  0.2906
 1531TIP3    H228789   1.314   5.268  16.487 -2.7066 -1.0961  1.4194
 1532TIP3   OH228790   4.513   2.715  15.913  0.6039  0.2970  0.8858
 1532TIP3    H128791   4.541   2.770  15.840  0.9537 -2.6415 -1.3707
 1532TIP3    H228792   4.580   2.730  15.980  3.8355 -1.1800 -1.6753
 1533TIP3   OH228793   3.619   4.252  16.997  0.0801  0.2804 -0.4007
 1533TIP3    H128794   3.671   4.330  17.015 -0.9070  0.6405  1.0668
 1533TIP3    H228795   3.623   4.201  17.078 -2.7055  0.8680  0.2000
 1534TIP3   OH228796   2.650   1.715  17.076 -0.3265  0.4575 -0.2147
 1534TIP3    H128797   2.566   1.744  17.112  0.0869 -2.4618  3.6465
 1534TIP3    H228798   2.626   1.656  17.005 -1.6273 -0.6668  1.1026
 1535TIP3   OH228799   1.446   4.510  16.419 -0.0277  0.0770 -0.2182
 1535TIP3    H128800   1.518   4.571  16.433  0.1390  0.0682 -0.9901
 1535TIP3    H228801   1.406   4.500  16.505  0.3681  0.7372  0.0513
 1536TIP3   OH228802   1.682   5.830  17.926  0.3722  0.6388 -0.3352
 1536TIP3    H128803   1.725   5.838  17.841  0.8455 -0.9759 -0.2934
 1536TIP3    H228804   1.614   5.897  17.925  1.3399  1.6505 -1.3650
 1537TIP3   OH228805   3.190   5.209  16.982  0.5330  0.5836 -0.6026
 1537TIP3    H128806   3.098   5.202  17.008  1.3678  1.1140  2.9859
 1537TIP3    H228807   3.209   5.125  16.939 -1.5825  0.4867 -1.4653
 1538TIP3   OH228808   1.192   3.571  16.848 -0.1002 -0.1694 -0.2748
 1538TIP3    H128809   1.281   3.548  16.821 -0.2995  0.0316 -1.1316
 1538TIP3    H228810   1.196   3.666  16.865 -0.6419  0.2859 -2.4419
 1539TIP3   OH228811   5.690   2.377  17.340  0.0489  0.1755 -0.0631
 1539TIP3    H128812   5.600   2.403  17.323 -0.0161  0.8515  1.1854
 1539TIP3    H228813   5.738   2.459  17.350  0.3967 -0.1612  1.1950
 1540TIP3   OH228814   6.267   3.460  17.424 -0.0778 -0.4774 -0.3831
 1540TIP3    H128815   6.231   3.490  17.507  1.6592 -2.4628  1.1974
 1540TIP3    H228816   6.224   3.376  17.408 -0.5589 -0.0150 -1.6530
 1541TIP3   OH228817   0.839   0.621  17.882 -0.2976 -0.1055  0.3491
 1541TIP3    H128818   0.885   0.543  17.850  0.5002  0.7598 -0.6770
 1541TIP3    H228819   0.908   0.684  17.901 -0.9929  1.1331 -0.9848
 1542TIP3   OH228820   2.976   5.891  17.215  0.0143  0.3291  0.2853
 1542TIP3    H128821   2.976   5.914  17.122  1.6187 -0.1645  0.1298
 1542TIP3    H228822   3.064   5.855  17.231 -0.1872  0.5073  2.0150
 1543TIP3   OH228823   0.355   0.681  16.852 -0.4395  0.7272 -0.2712
 1543TIP3    H128824   0.433   0.627  16.863 -1.3131 -0.5272 -0.1127
 1543TIP3    H228825   0.289   0.641  16.908 -1.3663  1.4371 -0.8192
 1544TIP3   OH228826   1.535   5.770  19.058 -0.9937 -0.1161  0.4403
 1544TIP3    H128827   1.532   5.813  18.973  1.0826  1.3892  1.0546
 1544TIP3    H228828   1.513   5.839  19.120 -0.5717 -0.6992  1.2578
 1545TIP3   OH228829   6.638   3.095  18.955 -0.1182  0.1507  0.3832
 1545TIP3    H128830   6.605   3.011  18.987  1.1032 -1.2980 -1.8762
 1545TIP3    H228831   6.721   3.074  18.913  0.0271  2.4186 -0.6544
 1546TIP3   OH228832   5.821   2.488  17.749 -0.1747  0.2218 -0.0730
 1546TIP3    H128833   5.748   2.545  17.774  0.1684 -0.5885  3.3830
 1546TIP3    H228834   5.781   2.418  17.698 -1.5196  0.6964  0.2929
 1547TIP3   OH228835   2.908   5.211  16.944  0.5264 -0.2775  0.1316
 1547TIP3    H128836   2.883   5.245  17.030  0.5878 -0.9746  0.4323
 1547TIP3    H228837   2.827   5.211  16.894  0.7431  1.3856 -0.2555
 1548TIP3   OH228838   3.210   1.380  17.307  0.1807  0.3407 -0.0431
 1548TIP3    H128839   3.127   1.338  17.331 -0.5876  2.0020  0.3694
 1548TIP3    H228840   3.225   1.354  17.216 -1.1635  0.5724 -0.3492
 1549TIP3   OH228841   3.124   5.127  17.672 -0.1902 -0.1071 -0.6387
 1549TIP3    H128842   3.160   5.099  17.756 -2.3041 -1.0514  0.0268
 1549TIP3    H228843   3.189   5.099  17.607  1.1746  0.0574  0.6053
 1550TIP3   OH228844   3.681   2.838  16.773 -0.4614 -0.0311  0.0095
 1550TIP3    H128845   3.595   2.869  16.744  0.6171  1.8235 -1.4406
 1550TIP3    H228846   3.708   2.774  16.708 -0.4170 -0.0373  0.0343
 1551TIP3   OH228847   1.043   3.227  16.710  0.2144  0.6652  0.3097
 1551TIP3    H128848   1.006   3.312  16.732  0.2483  1.2442 -1.6778
 1551TIP3    H228849   1.023   3.215  16.617  0.7371 -1.2327  0.3871
 1552TIP3   OH228850   1.057   3.268  17.930 -0.6214  0.0563 -0.3021
 1552TIP3    H128851   1.128   3.215  17.966 -0.9398  0.2037  0.5683
 1552TIP3    H228852   1.099   3.349  17.902 -0.1756 -0.5435 -1.3990
 1553TIP3   OH228853   3.096   5.881  17.952  0.4053  0.6220 -0.0933
 1553TIP3    H128854   3.010   5.923  17.957  1.4640  2.7748  1.2674
 1553TIP3    H228855   3.158   5.950  17.976  2.5069 -0.9680 -0.6688
 1554TIP3   OH228856   6.307   5.783  18.975 -0.3987  0.7117 -0.0383
 1554TIP3    H128857   6.379   5.749  19.028  0.5052  0.4093 -1.4099
 1554TIP3    H228858   6.228   5.764  19.026  0.4302  0.4880  1.2015
 1555TIP3   OH228859   6.113   0.274  19.333 -0.1730  0.4264  0.0824
 1555TIP3    H128860   6.108   0.210  19.262 -0.9261  0.0627  0.4472
 1555TIP3    H228861   6.035   0.256  19.386  0.7495  0.1929  1.4073
 1556TIP3   OH228862   0.283   1.286  17.731 -0.5685  0.6221  0.2978
 1556TIP3    H128863   0.215   1.231  17.692 -2.7079  1.3847  2.7104
 1556TIP3    H228864   0.238   1.337  17.798  1.8974  3.1313  0.2452
 1557TIP3   OH228865   1.929   2.541  17.615  0.3002 -0.1880  0.3616
 1557TIP3    H128866   2.002   2.480  17.621  1.1592  0.7825  0.1882
 1557TIP3    H228867   1.948   2.593  17.536  0.1426  0.9552  1.0527
 1558TIP3   OH228868   0.817   3.663  18.525 -0.4744 -0.2683 -0.3236
 1558TIP3    H128869   0.789   3.604  18.456  0.7965  1.8952 -2.8748
 1558TIP3    H228870   0.761   3.740  18.516  0.6828  0.6558  0.0387
 1559TIP3   OH228871   4.549   4.463  16.356  0.2695 -0.3954 -0.5490
 1559TIP3    H128872   4.475   4.403  16.356  0.0604 -0.1452  0.3646
 1559TIP3    H228873   4.587   4.455  16.268  0.9584 -2.7151 -0.1057
 1560TIP3   OH228874   0.720   4.943  16.316 -0.1152  0.4053 -0.5553
 1560TIP3    H128875   0.631   4.938  16.352 -0.4365 -0.9697 -1.4832
 1560TIP3    H228876   0.709   4.923  16.223  1.3467 -1.3875 -0.3841
 1561TIP3   OH228877   0.139   5.772  16.717  0.1912  0.0295  0.4959
 1561TIP3    H128878   0.202   5.756  16.788  1.2320 -0.6661 -0.5564
 1561TIP3    H228879   0.152   5.865  16.695  1.5739 -0.3315 -0.3522
 1562TIP3   OH228880   5.168   1.974  18.047 -0.2166  0.2803 -0.1772
 1562TIP3    H128881   5.099   1.940  17.992 -1.2574 -0.0218  1.2528
 1562TIP3    H228882   5.151   2.068  18.053 -0.3665  0.2427 -0.0137
 1563TIP3   OH228883   1.745   5.853  18.352 -0.2471  0.1551 -0.0348
 1563TIP3    H128884   1.723   5.789  18.420  1.3406  0.7904  1.1349
 1563TIP3    H228885   1.661   5.889  18.325 -1.0391 -1.2634  0.4187
 1564TIP3   OH228886   0.593   2.602  17.581  0.2000 -0.7424 -0.0681
 1564TIP3    H128887   0.550   2.685  17.601 -0.1328 -0.9119 -0.0748
 1564TIP3    H228888   0.686   2.619  17.596  0.0947 -0.4772  0.3122
 1565TIP3   OH228889   2.266   3.748  19.527  0.1992 -0.2402  0.0204
 1565TIP3    H128890   2.362   3.748  19.530  0.1833 -0.8452  1.5150
 1565TIP3    H228891   2.244   3.831  19.485  1.3791 -0.3365 -0.8505
 1566TIP3   OH228892   0.269   1.398  16.998  0.2035  0.4525  0.3582
 1566TIP3    H128893   0.277   1.305  17.015  0.7522  0.4928  0.3338
 1566TIP3    H228894   0.190   1.425  17.044 -0.2899 -0.1404 -0.1232
 1567TIP3   OH228895   6.269   6.486  18.183 -0.3782 -0.0615 -0.1087
 1567TIP3    H128896   6.293   6.395  18.200  0.1883  0.2977  1.1320
 1567TIP3    H228897   6.347   6.524  18.142  0.1428  0.3547  1.2155
 1568TIP3   OH228898   3.505   1.851  16.532 -0.0474 -0.4117  0.4695
 1568TIP3    H128899   3.429   1.882  16.582 -0.1693 -0.6015  0.4049
 1568TIP3    H228900   3.548   1.931  16.503 -0.7303 -0.2873 -0.2533
 1569TIP3   OH228901   4.975   0.521  15.479 -0.0796  0.2621  0.0430
 1569TIP3    H128902   4.930   0.528  15.395  1.8926  0.2240 -1.0862
 1569TIP3    H228903   5.023   0.603  15.488  0.7875 -0.2720  0.4717
 1570TIP3   OH228904   3.319   4.449  18.112 -0.0868  0.2302 -0.4346
 1570TIP3    H128905   3.296   4.367  18.155 -0.9045  2.1186  3.1994
 1570TIP3    H228906   3.235   4.487  18.086  0.0899  0.7606 -0.2600
 1571TIP3   OH228907   5.546   5.231  16.497 -0.5929 -0.4423  0.1740
 1571TIP3    H128908   5.490   5.186  16.560 -0.2539 -0.9069  0.1491
 1571TIP3    H228909   5.508   5.318  16.489 -0.4915 -0.2969  1.2084
 1572TIP3   OH228910   0.288   6.209  16.842  0.4577  0.2106  0.1936
 1572TIP3    H128911   0.308   6.302  16.832  0.0640  0.4283  1.3405
 1572TIP3    H228912   0.369   6.170  16.876 -0.3615  0.7680  3.0313
 1573TIP3   OH228913   3.705   5.562  17.203  0.6190  0.1844  0.2494
 1573TIP3    H128914   3.645   5.569  17.277 -0.5130 -0.0190 -0.6272
 1573TIP3    H228915   3.770   5.497  17.232 -0.1622 -0.3679  0.8282
 1574TIP3   OH228916   0.563   4.214  19.108  0.1867 -0.2814 -0.1305
 1574TIP3    H128917   0.593   4.288  19.162 -2.3707  0.8305 -0.1172
 1574TIP3    H228918   0.561   4.249  19.019 -0.5253 -0.5094 -0.2043
 1575TIP3   OH228919   2.710   5.294  18.854  0.5201  0.2489 -0.2413
 1575TIP3    H128920   2.671   5.293  18.942 -0.8104 -0.7587 -0.7985
 1575TIP3    H228921   2.644   5.336  18.799  1.9853  2.3065 -0.5372
 1576TIP3   OH228922   3.942   3.583  17.270  0.2206 -0.2097  0.5085
 1576TIP3    H128923   3.862   3.606  17.318  1.1842  0.9717  1.6343
 1576TIP3    H228924   4.012   3.628  17.318  1.6975 -1.9655  0.1221
 1577TIP3   OH228925   0.119   4.172  17.985  0.3344  0.3107 -0.4028
 1577TIP3    H128926   0.027   4.190  18.008  0.0208 -0.3709 -1.0828
 1577TIP3    H228927   0.114   4.132  17.898  1.2198 -0.4512 -0.1060
 1578TIP3   OH228928   3.387   1.008  15.838  0.4406 -0.1948  0.5634
 1578TIP3    H128929   3.299   0.971  15.846 -0.1836  1.1620  0.3928
 1578TIP3    H228930   3.402   1.052  15.922  0.2835  0.9019  0.0450
 1579TIP3   OH228931   4.682   4.403  19.003  0.4232  0.0158 -0.1633
 1579TIP3    H128932   4.696   4.490  18.965 -0.7986  0.9473  1.3441
 1579TIP3    H228933   4.632   4.355  18.937 -1.0876  1.3576 -0.0496
 1580TIP3   OH228934   5.070   3.942  19.043 -0.0418  0.7094 -0.5417
 1580TIP3    H128935   4.991   3.943  19.097  0.5305 -1.1353  0.4016
 1580TIP3    H228936   5.116   4.022  19.068  0.8330 -0.6702  2.7958
 1581TIP3   OH228937   4.024   4.814  16.871  0.1871  0.1416 -0.0462
 1581TIP3    H128938   3.979   4.898  16.887  1.5787  0.6357  1.4760
 1581TIP3    H228939   4.090   4.809  16.939 -0.2610 -2.5243  0.2890
 1582TIP3   OH228940   2.989   6.004  16.585 -0.0075 -0.1542 -0.1950
 1582TIP3    H128941   3.074   6.021  16.626  0.8766 -1.1722 -1.5259
 1582TIP3    H228942   2.960   6.089  16.554  1.0830  0.0299 -0.7489
 1583TIP3   OH228943   3.310   2.418  17.821 -0.3682 -0.0859 -0.6341
 1583TIP3    H128944   3.288   2.468  17.901  0.8125 -1.9991  0.9639
 1583TIP3    H228945   3.313   2.485  17.752 -2.9003  1.4540  0.5681
 1584TIP3   OH228946   1.336   6.062  17.066 -0.7078  0.5393 -0.4441
 1584TIP3    H128947   1.410   6.046  17.008  0.0202  0.7021  0.4330
 1584TIP3    H228948   1.310   6.152  17.047 -0.2205  0.7246 -0.2415
 1585TIP3   OH228949   6.342   0.242  18.703  0.4792 -0.2540  0.5995
 1585TIP3    H128950   6.265   0.217  18.652  1.4874 -0.4167 -0.9288
 1585TIP3    H228951   6.397   0.291  18.641  1.1005  0.8552  1.9688
 1586TIP3   OH228952   3.417   5.012  17.769  0.3131  0.2763 -0.1955
 1586TIP3    H128953   3.399   4.965  17.688 -0.8612  3.9748 -2.3589
 1586TIP3    H228954   3.507   5.043  17.760  0.4235  0.0925  0.2558
 1587TIP3   OH228955   4.469   3.244  16.268 -0.1842  0.5878 -0.1424
 1587TIP3    H128956   4.540   3.284  16.216  0.3380  0.2522  0.3002
 1587TIP3    H228957   4.487   3.150  16.265  0.1588  0.5928  1.0549
 1588TIP3   OH228958   4.278   0.305  19.131 -0.3196  0.1475 -0.0280
 1588TIP3    H128959   4.329   0.381  19.103 -1.1994  0.3617 -1.1008
 1588TIP3    H228960   4.199   0.343  19.171 -1.4175 -0.1643 -1.7959
 1589TIP3   OH228961   2.180   4.542  18.019 -1.0026 -0.0488  0.3085
 1589TIP3    H128962   2.171   4.634  18.044 -1.5065 -0.1462  0.4934
 1589TIP3    H228963   2.103   4.500  18.056  0.0037 -0.8388  1.6053
 1590TIP3   OH228964   5.935   2.835  19.531 -0.4395 -0.4222 -0.4194
 1590TIP3    H128965   5.956   2.742  19.523 -2.3611 -0.9767  0.5575
 1590TIP3    H228966   5.945   2.854  19.625 -0.0863  0.3756 -0.6052
 1591TIP3   OH228967   3.447   3.159  18.600 -0.0601  0.5493  0.1345
 1591TIP3    H128968   3.404   3.082  18.562  1.1386 -0.0762 -0.0124
 1591TIP3    H228969   3.423   3.157  18.692  1.0090 -0.7793  0.4194
 1592TIP3   OH228970   5.769   3.593  17.525  0.9034 -0.0380 -0.0575
 1592TIP3    H128971   5.768   3.674  17.575  1.1618 -0.1798  0.1788
 1592TIP3    H228972   5.841   3.542  17.562 -0.2994 -1.0903  0.9402
 1593TIP3   OH228973   0.653   0.644  18.488 -0.2226 -0.1647 -0.0512
 1593TIP3    H128974   0.667   0.633  18.582  0.4161  2.4572  0.2139
 1593TIP3    H228975   0.558   0.653  18.479 -0.2301  0.2184  0.4168
 1594TIP3   OH228976   3.083   6.396  16.827 -0.2827 -0.2265 -0.4728
 1594TIP3    H128977   3.004   6.412  16.880 -0.5047 -1.1236 -0.5118
 1594TIP3    H228978   3.068   6.446  16.747 -1.4846 -1.5053 -1.0871
 1595TIP3   OH228979   1.513   3.532  17.868  0.5514  0.0120 -0.0151
 1595TIP3    H128980   1.517   3.453  17.814  3.1249  0.5439 -0.7783
 1595TIP3    H228981   1.604   3.545  17.897  0.3849  3.0181 -0.4788
 1596TIP3   OH228982   2.421   1.895  17.093  0.1046  0.1613 -0.8135
 1596TIP3    H128983   2.417   1.952  17.016  2.5974 -0.3733 -1.4198
 1596TIP3    H228984   2.484   1.938  17.151  0.0606 -0.6595 -0.1447
 1597TIP3   OH228985   0.074   0.600  18.510 -0.2774 -0.1868  0.6084
 1597TIP3    H128986   0.055   0.507  18.523 -1.2025 -0.5750 -2.6334
 1597TIP3    H228987  -0.008   0.645  18.531 -1.4007 -0.6859 -2.2496
 1598TIP3   OH228988   3.877   0.877  18.909 -0.0692 -0.5353  0.4020
 1598TIP3    H128989   3.868   0.965  18.946 -1.1433 -0.0342 -0.9368
 1598TIP3    H228990   3.970   0.869  18.887 -0.4159  1.5202 -2.2636
 1599TIP3   OH228991   3.687   6.506  16.585 -0.4713 -0.0168 -0.2104
 1599TIP3    H128992   3.720   6.589  16.550 -2.2302  0.1071 -1.7461
 1599TIP3    H228993   3.595   6.504  16.558 -2.2258  0.1927  4.6996
 1600TIP3   OH228994   5.325   5.394  17.642  0.3659  0.0288 -0.2902
 1600TIP3    H128995   5.273   5.338  17.700  1.3481  0.2487  0.8515
 1600TIP3    H228996   5.263   5.426  17.577 -1.6264  2.5090  2.5689
 1601TIP3   OH228997   2.142   4.701  19.352  0.5740  0.0400  0.5693
 1601TIP3    H128998   2.068   4.656  19.312  1.4871 -0.6553 -0.3814
 1601TIP3    H228999   2.216   4.683  19.294  1.3849  1.1590  1.2122
 1602TIP3   OH229000   2.598   4.157  18.827  0.3299 -0.1947  0.2767
 1602TIP3    H129001   2.512   4.181  18.863  1.7683  0.6420  3.5211
 1602TIP3    H229002   2.633   4.240  18.793  0.7694  0.0049  1.1758
 1603TIP3   OH229003   2.564   4.291  19.450  0.5187 -0.4964 -0.6744
 1603TIP3    H129004   2.493   4.355  19.448  0.2839 -0.7674 -2.0898
 1603TIP3    H229005   2.522   4.210  19.480  0.9378  0.1125  1.6935
 1604TIP3   OH229006   5.009   2.983  18.972  0.3734 -0.6697  0.4899
 1604TIP3    H129007   4.980   3.016  19.056  0.0184 -0.0070  0.1119
 1604TIP3    H229008   4.948   3.020  18.908  0.9956 -0.6717 -0.1279
 1605TIP3   OH229009   3.990   6.192  17.238  0.9083  0.5352  0.1971
 1605TIP3    H129010   3.999   6.110  17.190 -0.2873  0.1080  0.6838
 1605TIP3    H229011   3.960   6.255  17.172 -2.3771 -0.4264  0.6015
 1606TIP3   OH229012   3.933   6.750  16.749  0.1215 -0.2131  0.3053
 1606TIP3    H129013   3.843   6.753  16.779  0.0509  0.5011  0.0429
 1606TIP3    H229014   3.931   6.693  16.672 -0.5471  1.6084 -1.0915
 1607TIP3   OH229015   0.571   0.750  17.888 -0.1904  0.2230  0.2044
 1607TIP3    H129016   0.661   0.730  17.912  0.0846 -0.3782 -1.1959
 1607TIP3    H229017   0.575   0.839  17.852  0.0080 -0.0855 -0.5645
 1608TIP3   OH229018   3.750   2.228  17.012  0.1425 -0.2587  0.3586
 1608TIP3    H129019   3.689   2.165  16.974  1.0158 -0.2267 -1.1994
 1608TIP3    H229020   3.700   2.309  17.019 -0.3610 -0.5676  0.3207
 1609TIP3   OH229021   4.141   5.540  18.679 -0.0703  0.5075  0.6626
 1609TIP3    H129022   4.118   5.449  18.659 -1.2563  1.0266 -0.4105
 1609TIP3    H229023   4.152   5.541  18.775  3.0972 -1.4282  0.4773
 1610TIP3   OH229024   1.642   4.569  19.492 -0.8278 -0.2683  0.2524
 1610TIP3    H129025   1.690   4.540  19.569 -2.0291 -0.7959  0.8256
 1610TIP3    H229026   1.654   4.498  19.428 -0.6224 -0.2712  0.2949
 1611TIP3   OH229027   6.115   5.100  15.552 -0.0836  0.1096 -0.0754
 1611TIP3    H129028   6.141   5.192  15.551 -1.3089  0.5469  2.1381
 1611TIP3    H229029   6.020   5.102  15.540 -0.1375 -0.8709  0.0876
 1612TIP3   OH229030   3.475   2.861  18.734  0.4326  0.2963 -0.1310
 1612TIP3    H129031   3.486   2.769  18.759  1.7428  0.5589  0.3479
 1612TIP3    H229032   3.540   2.908  18.786  1.4982  1.1741 -2.1436
 1613TIP3   OH229033   4.363   2.249  17.385 -0.1803 -0.2080 -0.9060
 1613TIP3    H129034   4.427   2.222  17.451 -1.0476 -0.7605 -0.2815
 1613TIP3    H229035   4.363   2.177  17.321  0.3882  0.1569 -1.3268
 1614TIP3   OH229036   2.236   5.098  17.908 -0.6464  0.1267  0.6013
 1614TIP3    H129037   2.231   5.153  17.830 -1.1788 -1.4067 -0.4976
 1614TIP3    H229038   2.319   5.050  17.900 -2.2810 -2.7283 -1.0114
 1615TIP3   OH229039   6.211   5.042  18.603  0.6991 -0.5736  0.0186
 1615TIP3    H129040   6.292   5.031  18.654 -0.0505  1.0817  1.6856
 1615TIP3    H229041   6.143   5.005  18.659 -0.0403  0.5532 -0.1123
 1616TIP3   OH229042   1.134   1.827  17.608 -0.9582  0.1237 -0.1766
 1616TIP3    H129043   1.217   1.868  17.583 -0.9267  0.4077  0.3811
 1616TIP3    H229044   1.093   1.803  17.524  1.7838 -4.4101 -0.5578
 1617TIP3   OH229045   3.461   5.350  15.773 -0.2926 -0.3993  0.1902
 1617TIP3    H129046   3.405   5.324  15.699  1.0001  1.9004 -1.7698
 1617TIP3    H229047   3.407   5.411  15.823 -0.4964 -0.3993 -0.0244
 1618TIP3   OH229048   3.113   1.684  18.620  0.2042 -0.2222 -0.3935
 1618TIP3    H129049   3.051   1.614  18.640 -0.6111  0.5605 -0.0737
 1618TIP3    H229050   3.183   1.642  18.571 -1.1387 -0.9315 -1.7590
 1619TIP3   OH229051   5.713   3.519  16.646  0.1324 -0.0974 -0.1307
 1619TIP3    H129052   5.737   3.456  16.578 -0.3526  0.5956 -0.9645
 1619TIP3    H229053   5.772   3.593  16.632  0.1397 -0.0202  0.3093
 1620TIP3   OH229054   0.890   3.311  18.132  0.0351 -0.1355 -0.3688
 1620TIP3    H129055   0.946   3.275  18.064 -1.0420  0.4789 -1.6297
 1620TIP3    H229056   0.950   3.347  18.197  1.0881 -0.4005 -1.1765
 1621TIP3   OH229057   5.086   0.284  15.604  0.1804 -0.1034 -0.2482
 1621TIP3    H129058   5.041   0.215  15.556 -1.3397  0.2975  0.5423
 1621TIP3    H229059   5.068   0.364  15.554 -0.5702  0.1594  0.4240
 1622TIP3   OH229060   0.934   3.070  19.234  0.2279 -0.1558  0.1418
 1622TIP3    H129061   0.906   3.093  19.146 -0.9172 -0.8533  0.3002
 1622TIP3    H229062   0.940   3.154  19.280  1.6627  0.2997 -0.7975
 1623TIP3   OH229063   2.860   0.363  18.232 -0.5896 -0.0872 -0.1250
 1623TIP3    H129064   2.786   0.306  18.250 -0.8298  0.3650  0.3666
 1623TIP3    H229065   2.936   0.317  18.269 -0.5766 -0.6749 -0.8696
 1624TIP3   OH229066   6.531   3.923  18.833 -0.1147 -0.1727 -0.1573
 1624TIP3    H129067   6.516   4.002  18.885 -0.1173 -0.6628  0.6073
 1624TIP3    H229068   6.473   3.932  18.758  0.0654  0.6658 -0.2017
 1625TIP3   OH229069   2.846   5.008  18.421  0.6145 -0.1857 -0.3498
 1625TIP3    H129070   2.922   4.975  18.374  0.2753  0.7429 -1.6228
 1625TIP3    H229071   2.779   5.021  18.353 -0.2505  0.2201  0.5475
 1626TIP3   OH229072   3.241   0.814  16.607 -0.1128  0.6570  0.2781
 1626TIP3    H129073   3.191   0.854  16.678 -0.6817  0.7260 -0.1650
 1626TIP3    H229074   3.208   0.724  16.603  0.9342  0.2097  1.0571
 1627TIP3   OH229075   3.708   3.041  18.288  0.3334  0.1315 -0.1638
 1627TIP3    H129076   3.628   3.082  18.256  0.6932  0.2110 -0.9899
 1627TIP3    H229077   3.678   2.981  18.357 -0.3030  1.0183  0.3638
 1628TIP3   OH229078   1.982   1.544  17.838 -0.3672  0.1012  0.8489
 1628TIP3    H129079   1.935   1.461  17.825 -0.1992 -0.1385  1.7052
 1628TIP3    H229080   2.074   1.520  17.833 -0.3207  0.2989  0.7527
 1629TIP3   OH229081   5.584   1.495  16.876 -0.2019 -0.6750 -0.7506
 1629TIP3    H129082   5.676   1.482  16.900 -0.0837  2.2831  0.8038
 1629TIP3    H229083   5.576   1.588  16.858 -3.0727 -0.6764 -0.0114
 1630TIP3   OH229084   0.788   1.711  17.466 -0.3437 -0.3850 -0.3948
 1630TIP3    H129085   0.765   1.790  17.515  0.1612 -0.1557 -0.5291
 1630TIP3    H229086   0.860   1.672  17.514  0.1326 -0.1789 -0.9247
 1631TIP3   OH229087   1.074   4.764  19.189  0.1412 -0.4893 -0.1356
 1631TIP3    H129088   1.102   4.809  19.269 -1.0318 -0.1552  0.1113
 1631TIP3    H229089   1.045   4.678  19.219  2.0902 -1.3479 -0.5660
 1632TIP3   OH229090   2.536   0.770  18.984  0.0631 -0.1949  0.0079
 1632TIP3    H129091   2.604   0.837  18.973 -0.1168 -0.2259 -1.5395
 1632TIP3    H229092   2.565   0.719  19.059  0.0806  1.7496  1.4059
 1633TIP3   OH229093   0.919   4.765  16.078 -0.6347  0.6942 -0.2948
 1633TIP3    H129094   0.829   4.796  16.085 -0.4955  0.8761  0.8700
 1633TIP3    H229095   0.915   4.693  16.015 -1.4018  1.4128 -1.0820
 1634TIP3   OH229096   1.047   3.536  18.646  0.6007  0.1118  0.0780
 1634TIP3    H129097   0.958   3.568  18.632 -0.4312 -1.5305  2.2658
 1634TIP3    H229098   1.038   3.441  18.648  2.5616 -0.1188 -0.4939
 1635TIP3   OH229099   5.344   5.247  18.760  0.2225  0.3484 -0.5032
 1635TIP3    H129100   5.401   5.210  18.693 -0.5079  0.0607 -0.9680
 1635TIP3    H229101   5.268   5.189  18.763  0.2265  0.3733  0.5533
 1636TIP3   OH229102   1.784   5.313  16.589  0.5198  0.0292  0.1819
 1636TIP3    H129103   1.722   5.353  16.650  0.6939 -0.1885  0.5045
 1636TIP3    H229104   1.790   5.375  16.516  0.3495  0.3143  0.4102
 1637TIP3   OH229105   6.473   5.286  17.277  0.0652 -0.5293  0.1532
 1637TIP3    H129106   6.535   5.348  17.238 -1.3422  0.0683 -1.2363
 1637TIP3    H229107   6.523   5.205  17.288  1.5200  0.4025  0.5988
 1638TIP3   OH229108   5.205   4.217  16.320  0.3899 -0.0672  0.3296
 1638TIP3    H129109   5.194   4.310  16.298 -0.6189 -0.4904 -1.0966
 1638TIP3    H229110   5.172   4.170  16.244 -0.5405 -1.6294  1.6296
 1639TIP3   OH229111   4.218   3.418  19.088 -0.1395  0.6063  0.1063
 1639TIP3    H129112   4.252   3.380  19.169 -0.5742 -0.1664 -0.0646
 1639TIP3    H229113   4.279   3.489  19.068  2.6454 -1.9608 -1.2773
 1640TIP3   OH229114   3.195   1.190  16.767  0.7942  0.0700 -0.6757
 1640TIP3    H129115   3.125   1.249  16.739  1.6688  1.1553 -0.6408
 1640TIP3    H229116   3.173   1.106  16.727 -0.1423  0.5757 -1.2541
 1641TIP3   OH229117   4.921   4.967  17.787 -0.4674  0.8763 -0.2502
 1641TIP3    H129118   4.873   5.003  17.862 -0.0647  2.7496 -0.8356
 1641TIP3    H229119   4.980   4.902  17.824 -1.3174  0.7200  0.8588
 1642TIP3   OH229120   1.378   1.227  18.719 -0.1473 -0.3505  0.0440
 1642TIP3    H129121   1.351   1.319  18.724  0.1061 -0.2027 -1.0410
 1642TIP3    H229122   1.346   1.198  18.634  0.1794 -1.1352  0.1839
 1643TIP3   OH229123   3.166   3.452  17.656 -0.7537 -0.4347  0.0609
 1643TIP3    H129124   3.260   3.469  17.660 -0.7594  0.0779 -1.4762
 1643TIP3    H229125   3.133   3.483  17.740  0.2364  0.8659  0.0073
 1644TIP3   OH229126   5.555   3.497  19.468  0.4410  0.0440  0.1113
 1644TIP3    H129127   5.468   3.461  19.484  0.1297  1.4450  1.8783
 1644TIP3    H229128   5.607   3.470  19.544  1.5925 -0.7946 -0.9335
 1645TIP3   OH229129   0.151   3.167  19.124  0.3307 -0.2386  0.0521
 1645TIP3    H129130   0.075   3.116  19.154  0.5231 -0.1450  0.7033
 1645TIP3    H229131   0.225   3.106  19.131  0.2671 -0.4528 -0.9486
 1646TIP3   OH229132   5.675   5.313  16.015  0.4612 -0.5630  0.1291
 1646TIP3    H129133   5.586   5.340  15.994  0.2046 -0.3084  1.4739
 1646TIP3    H229134   5.707   5.379  16.076  1.3487 -0.9897  0.1453
 1647TIP3   OH229135   0.453   4.924  17.080  0.4987 -0.4112  0.8658
 1647TIP3    H129136   0.543   4.902  17.102  0.3814  0.2974  2.1710
 1647TIP3    H229137   0.459   4.966  16.995  1.5839  0.7697  1.4930
 1648TIP3   OH229138   6.569   0.884  17.406  0.1682  0.1745  0.2134
 1648TIP3    H129139   6.505   0.837  17.353  0.6394  0.6309 -0.7806
 1648TIP3    H229140   6.569   0.837  17.490 -2.1736  0.7541  0.6144
 1649TIP3   OH229141   6.059   5.957  18.112 -0.4621 -0.5066 -0.2630
 1649TIP3    H129142   6.067   5.865  18.087  1.8323 -0.3748 -0.2216
 1649TIP3    H229143   6.004   5.957  18.189 -0.7621 -1.8095 -0.4656
 1650TIP3   OH229144   2.484   0.689  19.563  0.0946  0.1742  0.3862
 1650TIP3    H129145   2.528   0.608  19.540  2.1528  0.8577  1.6632
 1650TIP3    H229146   2.551   0.756  19.555 -0.8938  1.3910  1.7452
 1651TIP3   OH229147   4.243   2.018  18.527 -0.2036  0.8300  0.3306
 1651TIP3    H129148   4.168   2.052  18.478  0.5435  0.2559 -1.3129
 1651TIP3    H229149   4.298   1.977  18.460  0.1400 -1.4063  1.8804
 1652TIP3   OH229150   3.321   5.523  17.153 -0.0105  0.1384 -0.0427
 1652TIP3    H129151   3.302   5.446  17.100  0.1984 -0.0069  0.0890
 1652TIP3    H229152   3.236   5.555  17.182 -0.0400 -0.8920  1.1018
 1653TIP3   OH229153   5.228   4.257  18.679 -0.4321 -0.1690 -0.0554
 1653TIP3    H129154   5.279   4.327  18.719 -1.0747  0.4997 -0.3791
 1653TIP3    H229155   5.159   4.238  18.743 -0.0137 -0.8103  0.2167
 1654TIP3   OH229156   3.259   1.026  18.446  0.2056 -0.1546 -0.1192
 1654TIP3    H129157   3.204   0.952  18.471  0.0502 -0.0761 -0.2292
 1654TIP3    H229158   3.322   1.034  18.517  0.5049 -0.6744 -0.3236
 1655TIP3   OH229159   1.273   5.757  17.987  0.0080 -0.2467  0.2761
 1655TIP3    H129160   1.354   5.780  18.032  0.5462 -0.2936 -0.6424
 1655TIP3    H229161   1.301   5.724  17.902 -0.9850  0.0989 -0.2088
 1656TIP3   OH229162   4.491   2.637  16.341 -0.2852  0.3815 -0.2083
 1656TIP3    H129163   4.502   2.672  16.253  0.0861  0.4604 -0.1330
 1656TIP3    H229164   4.486   2.542  16.328 -1.3410  0.4524 -0.4141
 1657TIP3   OH229165   6.734   0.923  18.284  0.1145 -0.0297  0.3286
 1657TIP3    H129166   6.770   0.843  18.245 -0.8719 -0.9678  1.2855
 1657TIP3    H229167   6.647   0.899  18.314  0.1185  1.1674  1.4183
 1658TIP3   OH229168   4.341   4.433  18.730 -0.0104  0.0701  0.1435
 1658TIP3    H129169   4.363   4.502  18.792 -2.0182  0.9173  0.0037
 1658TIP3    H229170   4.402   4.362  18.750  1.3869  1.4412  1.0302
 1659TIP3   OH229171   4.420   1.241  16.214 -0.5865 -0.0892 -0.3114
 1659TIP3    H129172   4.480   1.176  16.251 -0.4115  0.2714  0.0402
 1659TIP3    H229173   4.452   1.256  16.125  1.0674  1.5783  0.5060
 1660TIP3   OH229174   5.012   0.555  18.072  0.2383  0.3995 -0.1048
 1660TIP3    H129175   5.090   0.592  18.032 -0.6304  2.1339 -0.2570
 1660TIP3    H229176   4.938   0.599  18.029 -0.7784  0.2178  1.3643
 1661TIP3   OH229177   3.822   2.612  15.891  0.0206 -0.6627 -0.1864
 1661TIP3    H129178   3.845   2.543  15.829 -0.1317  0.0128 -1.0191
 1661TIP3    H229179   3.874   2.688  15.863 -1.1821  0.0911 -0.4368
 1662TIP3   OH229180   3.481   6.549  17.131 -0.5083  0.9103 -0.6050
 1662TIP3    H129181   3.447   6.617  17.189 -2.7169 -0.5612 -0.0122
 1662TIP3    H229182   3.542   6.594  17.073  1.8629  2.5318  2.7641
 1663TIP3   OH229183   0.713   4.114  18.225  0.1825  0.2424  0.0923
 1663TIP3    H129184   0.693   4.204  18.199 -1.4047 -0.1260 -0.0754
 1663TIP3    H229185   0.808   4.110  18.225  0.2876  1.4811 -1.4741
 1664TIP3   OH229186   4.896   4.424  18.647 -0.6288 -0.0130 -0.4764
 1664TIP3    H129187   4.945   4.363  18.701  0.7992 -0.0581 -1.7697
 1664TIP3    H229188   4.929   4.511  18.672 -1.6479  0.1543  0.3565
 1665TIP3   OH229189   0.130   3.838  19.281 -0.3727  0.3930 -0.4790
 1665TIP3    H129190   0.062   3.903  19.268 -0.2731  0.8277  0.9997
 1665TIP3    H229191   0.209   3.878  19.245 -0.2693  1.2018  0.6094
 1666TIP3   OH229192   2.842   5.338  17.189 -0.2335  0.3054 -0.5646
 1666TIP3    H129193   2.772   5.354  17.253  0.8945 -0.3716  0.8908
 1666TIP3    H229194   2.882   5.424  17.176 -0.2054  0.3826 -0.0213
 1667TIP3   OH229195   1.138   5.023  17.839 -0.1359  0.2486  0.2973
 1667TIP3    H129196   1.212   5.055  17.787  0.0000 -0.5722 -0.0384
 1667TIP3    H229197   1.068   5.086  17.822 -0.1238 -0.0464 -0.9869
 1668TIP3   OH229198   3.288   2.068  17.357  0.5311 -0.4006 -0.2146
 1668TIP3    H129199   3.193   2.079  17.360  0.4595 -0.4657 -1.5669
 1668TIP3    H229200   3.323   2.157  17.370  0.2690 -0.3005 -0.1959
 1669TIP3   OH229201   0.226   2.761  19.396 -0.2554 -0.3367 -0.0384
 1669TIP3    H129202   0.258   2.674  19.372 -2.4354 -1.4058  0.6729
 1669TIP3    H229203   0.152   2.776  19.337 -1.0138  0.2312  1.0297
 1670TIP3   OH229204   4.629   1.450  17.390  0.1422 -0.1581  0.3338
 1670TIP3    H129205   4.697   1.423  17.451  0.8784 -0.4470 -0.5930
 1670TIP3    H229206   4.569   1.376  17.386  0.8722 -0.7284 -0.3798
 1671TIP3   OH229207   5.618   2.070  19.385  0.2492  0.0258  0.6702
 1671TIP3    H129208   5.548   2.007  19.368  0.0788  0.4599 -0.2798
 1671TIP3    H229209   5.698   2.020  19.371  0.1209 -0.1400  0.5241
 1672TIP3   OH229210   1.690   4.300  18.658 -0.1727 -0.4295 -0.3923
 1672TIP3    H129211   1.603   4.275  18.690 -0.3840 -0.6722 -1.1402
 1672TIP3    H229212   1.749   4.281  18.732 -0.6091 -1.2269 -0.2376
 1673TIP3   OH229213   1.494   4.075  18.621  0.3311 -0.3062 -0.5586
 1673TIP3    H129214   1.408   4.100  18.654  0.4357 -0.0820 -0.4459
 1673TIP3    H229215   1.480   4.056  18.529  0.6307  2.4642 -1.2814
 1674TIP3   OH229216   3.812   3.882  17.160 -0.0335  0.0144 -0.1907
 1674TIP3    H129217   3.791   3.791  17.182 -1.4557 -0.0043 -1.4885
 1674TIP3    H229218   3.778   3.894  17.071 -0.0379  1.8611  0.0230
 1675TIP3   OH229219   5.612   6.197  18.056  0.1936 -0.1075  0.4709
 1675TIP3    H129220   5.646   6.116  18.017 -0.3460  0.3443 -1.0128
 1675TIP3    H229221   5.688   6.239  18.096  0.3275 -1.7568  2.0711
 1676TIP3   OH229222   1.179   3.174  17.484 -0.0049 -0.4617  0.0429
 1676TIP3    H129223   1.128   3.247  17.518  2.0039  1.1690 -0.2854
 1676TIP3    H229224   1.152   3.165  17.393 -1.1763 -1.0336  0.4168
 1677TIP3   OH229225   1.142   4.772  17.017  0.0623 -0.1251 -0.0742
 1677TIP3    H129226   1.231   4.766  17.053 -0.6123 -2.0158  1.4511
 1677TIP3    H229227   1.096   4.833  17.075  0.3304  0.8953 -0.8956
 1678TIP3   OH229228   4.932   5.314  17.644 -0.1850 -0.0084 -0.4792
 1678TIP3    H129229   4.935   5.366  17.564  1.0568 -2.0490 -1.8724
 1678TIP3    H229230   4.876   5.240  17.622 -0.2020 -0.3765  0.7179
 1679TIP3   OH229231   3.712   0.966  16.497  0.3685  0.0874 -0.5470
 1679TIP3    H129232   3.764   0.909  16.554  2.0873  1.4069 -0.7020
 1679TIP3    H229233   3.625   0.968  16.537  0.1512 -2.7526 -0.6461
 1680TIP3   OH229234   5.052   5.436  18.554  1.0175  0.0459  0.2565
 1680TIP3    H129235   5.041   5.493  18.478 -0.6113 -0.8681 -0.2258
 1680TIP3    H229236   4.997   5.474  18.622 -0.5601 -1.2219 -0.2548
 1681TIP3   OH229237   1.598   4.357  18.408 -0.2555 -0.1746  0.1946
 1681TIP3    H129238   1.647   4.324  18.484 -1.4893 -1.1078  0.6258
 1681TIP3    H229239   1.584   4.450  18.427  1.0899  0.0504  0.1851
 1682TIP3   OH229240   0.814   2.084  18.240  0.7651 -0.2622 -0.4089
 1682TIP3    H129241   0.823   1.990  18.254  0.5902 -0.0209  1.5727
 1682TIP3    H229242   0.722   2.102  18.259  1.0928  0.4972  0.4966
 1683TIP3   OH229243   0.077   6.354  18.076 -0.5536  0.2068 -0.0267
 1683TIP3    H129244   0.113   6.317  18.157  1.2765  1.3745 -0.2301
 1683TIP3    H229245   0.050   6.279  18.025 -0.2377 -0.6472  1.0216
 1684TIP3   OH229246   0.334   1.912  17.889  0.3292 -0.4141  0.3400
 1684TIP3    H129247   0.419   1.869  17.892  0.1851 -0.7795 -0.6282
 1684TIP3    H229248   0.351   2.001  17.922  1.2257 -0.2695 -0.4603
 1685TIP3   OH229249   3.246   5.756  16.871  0.2279 -0.0790  0.2721
 1685TIP3    H129250   3.296   5.791  16.797  0.2075  0.1829  0.3826
 1685TIP3    H229251   3.311   5.708  16.923  0.0839 -0.9879 -0.3619
 1686TIP3   OH229252   1.403   0.167  16.504  0.1108 -0.4625  0.0206
 1686TIP3    H129253   1.414   0.186  16.411  0.6556 -1.8193 -0.2058
 1686TIP3    H229254   1.492   0.173  16.540 -0.1917  0.8439  0.6368
 1687TIP3   OH229255   1.312   4.734  16.030  0.5353  0.1987 -0.0866
 1687TIP3    H129256   1.290   4.820  16.065  0.7731 -0.3653  1.5542
 1687TIP3    H229257   1.293   4.673  16.102  0.3748 -1.1281 -1.1980
 1688TIP3   OH229258   1.364   5.575  18.786 -0.4605 -0.2070  0.0576
 1688TIP3    H129259   1.294   5.514  18.762 -0.5729 -0.0133 -0.1121
 1688TIP3    H229260   1.319   5.657  18.803 -0.2863 -0.1132  0.0674
 1689TIP3   OH229261   1.419   0.154  18.864 -0.0667  0.1416  0.2145
 1689TIP3    H129262   1.402   0.238  18.905 -0.4082 -0.3046  1.0147
 1689TIP3    H229263   1.366   0.155  18.784  1.1239  1.2856 -0.5818
 1690TIP3   OH229264   0.947   0.476  16.900  0.5287 -0.3603 -0.5288
 1690TIP3    H129265   0.898   0.430  16.832 -0.6617  1.6724 -1.1335
 1690TIP3    H229266   0.947   0.567  16.872  1.4913  0.2801  1.3689
 1691TIP3   OH229267   1.840   3.263  19.439 -0.6861  0.0963 -0.0696
 1691TIP3    H129268   1.888   3.274  19.521 -2.4315 -0.8177  1.1536
 1691TIP3    H229269   1.908   3.261  19.371  0.6902  3.0669  1.0441
 1692TIP3   OH229270   5.579   2.373  18.011  0.3114 -0.4299 -0.0503
 1692TIP3    H129271   5.583   2.466  17.990  0.5732 -0.3367  0.3938
 1692TIP3    H229272   5.518   2.336  17.947  0.7776 -0.0889 -0.7033
 1693TIP3   OH229273   6.458   4.709  18.342 -0.5003 -0.6492 -0.3903
 1693TIP3    H129274   6.390   4.776  18.348 -0.4532 -0.6239 -0.1284
 1693TIP3    H229275   6.461   4.670  18.429  0.1468 -0.3318 -0.2654
 1694TIP3   OH229276   6.218   3.918  17.028 -0.4937  0.0959  0.3486
 1694TIP3    H129277   6.160   3.845  17.051 -0.3536 -0.2276 -0.2987
 1694TIP3    H229278   6.260   3.891  16.947 -1.1332  1.2915 -0.4049
 1695TIP3   OH229279   5.211   3.074  16.648  0.0599 -0.0627  0.0282
 1695TIP3    H129280   5.202   3.001  16.587  0.3646 -1.4168  1.5354
 1695TIP3    H229281   5.265   3.138  16.602  2.4038 -2.1041 -0.2266
 1696TIP3   OH229282   5.481   4.620  19.095 -0.1719 -0.5696  0.0499
 1696TIP3    H129283   5.466   4.692  19.156  0.9947  0.0792 -0.4151
 1696TIP3    H229284   5.434   4.546  19.134 -0.9005  0.2773  0.8266
 1697TIP3   OH229285   1.858   2.352  18.767  0.0831 -0.2663  0.1643
 1697TIP3    H129286   1.938   2.399  18.792 -0.4143  1.5903 -1.5282
 1697TIP3    H229287   1.788   2.404  18.806 -0.4001 -0.5144 -0.3732
 1698TIP3   OH229288   6.431   4.699  16.994  0.1529 -0.6527 -0.4311
 1698TIP3    H129289   6.411   4.736  16.908 -1.4748 -1.3873 -0.3996
 1698TIP3    H229290   6.527   4.694  16.996  0.2013 -1.6024 -2.6169
 1699TIP3   OH229291   1.054   0.452  18.473  0.3009  0.2962 -0.8915
 1699TIP3    H129292   1.113   0.401  18.418 -0.0159 -0.7250 -0.3049
 1699TIP3    H229293   1.103   0.467  18.554 -0.8790 -2.2412  0.3888
 1700TIP3   OH229294   3.027   4.791  16.802 -0.6088  0.1433 -0.1528
 1700TIP3    H129295   3.105   4.810  16.749  0.8252  0.0329  1.8201
 1700TIP3    H229296   3.004   4.701  16.779  0.4097 -0.1450 -0.0839
 1701TIP3   OH229297   1.622   3.321  17.579  0.1366 -0.2450  0.2065
 1701TIP3    H129298   1.532   3.352  17.587  0.6442  1.0627  1.1999
 1701TIP3    H229299   1.660   3.371  17.507  0.3162 -0.1607  0.3568
 1702TIP3   OH229300   2.926   4.167  16.358  0.3948  0.2380  0.6255
 1702TIP3    H129301   2.985   4.243  16.355 -0.4220  0.8596 -0.9036
 1702TIP3    H229302   2.852   4.193  16.303  0.4941 -1.9982 -0.6555
 1703TIP3   OH229303   3.857   0.496  19.019 -0.8246  0.0155  0.4744
 1703TIP3    H129304   3.769   0.459  19.022 -1.0522  0.5543  0.4470
 1703TIP3    H229305   3.910   0.427  18.979 -0.5920 -1.5814  3.3071
 1704TIP3   OH229306   6.404   3.201  17.715  0.0321 -0.0403  0.0472
 1704TIP3    H129307   6.426   3.294  17.722  1.4484 -0.2650 -0.9303
 1704TIP3    H229308   6.487   3.155  17.728 -0.9754 -1.3116  2.5083
 1705TIP3   OH229309   0.721   5.001  18.069  0.1623 -0.2821 -0.1411
 1705TIP3    H129310   0.737   5.045  17.985  1.2097  0.2731  0.3296
 1705TIP3    H229311   0.642   4.949  18.054  1.2371 -1.5424 -2.0093
 1706TIP3   OH229312   3.833   2.865  18.032 -0.1839 -0.1992  0.4640
 1706TIP3    H129313   3.814   2.786  18.083  0.8510 -0.0265  1.1369
 1706TIP3    H229314   3.747   2.899  18.007 -0.6843 -0.6998  1.4762
 1707TIP3   OH229315   3.790   2.617  17.120 -0.0854  0.3728  0.2876
 1707TIP3    H129316   3.722   2.557  17.088  0.1921  0.1326  0.1353
 1707TIP3    H229317   3.809   2.586  17.209 -0.5785  0.7974  0.5456
 1708TIP3   OH229318   6.524   6.025  17.866 -0.0032  0.1056 -0.6055
 1708TIP3    H129319   6.457   5.962  17.841 -0.0235 -0.3781  0.6023
 1708TIP3    H229320   6.502   6.104  17.817  0.1029 -0.8417 -2.2518
 1709TIP3   OH229321   3.601   0.615  17.255  0.0068 -0.1284 -0.2748
 1709TIP3    H129322   3.583   0.591  17.346 -0.0920 -0.3301 -0.3476
 1709TIP3    H229323   3.598   0.711  17.254  1.0547 -0.0774  0.1542
 1710TIP3   OH229324   5.288   0.612  16.635 -0.1362  0.5893 -0.2964
 1710TIP3    H129325   5.383   0.599  16.635 -0.0573  1.0698  0.5239
 1710TIP3    H229326   5.252   0.527  16.660  0.0086  0.0866 -1.7271
 1711TIP3   OH229327   5.907   1.609  17.483 -0.3156  0.0865  0.3112
 1711TIP3    H129328   5.942   1.547  17.547  2.6122  2.0597  0.8264
 1711TIP3    H229329   5.871   1.680  17.535 -0.7534  0.2794 -0.2472
 1712TIP3   OH229330   2.010   2.606  17.366  0.1660  0.0850 -0.5683
 1712TIP3    H129331   2.102   2.633  17.366 -0.2024  1.4124 -1.2824
 1712TIP3    H229332   1.977   2.632  17.280 -0.7834 -0.7426 -0.4738
 1713TIP3   OH229333   6.113   2.932  16.466 -0.2575 -0.0132 -0.2778
 1713TIP3    H129334   6.091   3.024  16.454  0.8092  0.2256 -0.5343
 1713TIP3    H229335   6.204   2.925  16.434  0.7117 -0.5272  2.3432
 1714TIP3   OH229336   1.295   0.340  16.682 -0.1450 -0.4196 -0.6811
 1714TIP3    H129337   1.233   0.380  16.620 -1.0402  0.5928  0.7977
 1714TIP3    H229338   1.366   0.308  16.627 -0.4365  1.2929 -2.1709
 1715TIP3   OH229339   1.936   1.586  17.158 -0.0310  0.2798  0.1963
 1715TIP3    H129340   1.872   1.638  17.109 -0.1769 -0.4160 -0.3713
 1715TIP3    H229341   1.950   1.635  17.239  0.3967  1.5813 -0.6400
 1716TIP3   OH229342   0.776   5.335  15.221 -0.1106 -0.0484 -0.1890
 1716TIP3    H129343   0.864   5.360  15.194 -0.5277  1.1563 -0.5228
 1716TIP3    H229344   0.788   5.287  15.303  0.9630 -1.3492 -1.0592
 1717TIP3   OH229345   2.283   4.723  19.113 -0.2657  0.4351 -0.2684
 1717TIP3    H129346   2.225   4.706  19.038  0.4104  0.5053 -0.8164
 1717TIP3    H229347   2.325   4.806  19.092 -1.3850  1.3698  1.0297
 1718TIP3   OH229348   1.378   0.813  16.615  0.3833 -0.4707 -0.1186
 1718TIP3    H129349   1.357   0.735  16.667 -2.6864  0.2776 -0.0379
 1718TIP3    H229350   1.377   0.782  16.524 -1.6156 -0.4424 -0.1415
 1719TIP3   OH229351   2.998   6.290  18.192  0.5065  0.1629  0.0145
 1719TIP3    H129352   2.982   6.326  18.280  0.1284 -0.6272  0.2738
 1719TIP3    H229353   3.027   6.200  18.208  2.0532  0.5118 -0.5974
 1720TIP3   OH229354   1.373   3.943  16.491  0.7283 -0.2106 -0.2473
 1720TIP3    H129355   1.449   3.959  16.434  0.2062 -0.2833 -0.9843
 1720TIP3    H229356   1.406   3.886  16.560  1.9375  1.7013  0.8246
 1721TIP3   OH229357   2.866   5.217  17.493 -0.0315  0.1428  0.1457
 1721TIP3    H129358   2.865   5.128  17.529 -0.2460 -0.1884 -0.6370
 1721TIP3    H229359   2.928   5.212  17.420  0.7629  0.9160  0.7619
 1722TIP3   OH229360   4.790   4.004  16.883 -0.2391 -0.0747  0.2534
 1722TIP3    H129361   4.706   4.048  16.869 -0.7620 -1.0860  0.0314
 1722TIP3    H229362   4.820   3.982  16.795  0.4864  0.6576  0.3055
 1723TIP3   OH229363   3.439   1.137  15.615  0.2679 -0.6162  0.3047
 1723TIP3    H129364   3.368   1.135  15.552 -1.4207  2.1849  1.9232
 1723TIP3    H229365   3.405   1.091  15.692  0.9957 -0.9562  0.4425
 1724TIP3   OH229366   6.221   1.237  18.509  0.5009 -0.2483 -0.4100
 1724TIP3    H129367   6.270   1.202  18.435  1.8340 -1.1522  0.8384
 1724TIP3    H229368   6.268   1.316  18.534  0.2104 -0.0881 -0.3638
 1725TIP3   OH229369   0.254   1.637  17.427  0.2395  0.4884 -1.0587
 1725TIP3    H129370   0.253   1.543  17.408  1.0393  0.5635 -1.5397
 1725TIP3    H229371   0.237   1.679  17.342 -2.9379  0.7770 -0.3979
 1726TIP3   OH229372   0.142   4.305  19.033  0.5299  0.2128  0.3637
 1726TIP3    H129373   0.227   4.342  19.009  1.0400 -0.2915  1.3141
 1726TIP3    H229374   0.137   4.224  18.984  0.4666  0.3900  0.0776
 1727TIP3   OH229375   4.678   4.995  18.592 -0.4262  0.1032  0.7538
 1727TIP3    H129376   4.651   4.905  18.610 -2.0667  0.5162  0.5336
 1727TIP3    H229377   4.696   4.997  18.498 -1.2836  0.2018  0.5827
 1728TIP3   OH229378   5.656   2.348  18.749 -0.4817  0.2643  0.5517
 1728TIP3    H129379   5.713   2.355  18.826  1.1991  0.5667 -0.6721
 1728TIP3    H229380   5.711   2.310  18.681 -1.9347 -0.0064 -0.5367
 1729TIP3   OH229381   2.802   6.094  16.151 -0.2429 -0.2765 -0.2010
 1729TIP3    H129382   2.892   6.108  16.124 -0.5891 -0.9373 -1.7954
 1729TIP3    H229383   2.761   6.180  16.148  0.3159  0.0206  0.5082
 1730TIP3   OH229384   3.058   1.643  17.292  0.1378  0.1324 -0.7723
 1730TIP3    H129385   2.966   1.648  17.266 -0.0138  0.0804 -0.2730
 1730TIP3    H229386   3.089   1.560  17.255 -0.4685 -0.6389  0.3735
 1731TIP3   OH229387   3.079   4.854  19.018 -0.0846  0.8242 -0.0339
 1731TIP3    H129388   3.063   4.806  18.937  1.5286  0.5773 -0.2319
 1731TIP3    H229389   3.034   4.802  19.085 -0.5282  0.4431 -0.6156
 1732TIP3   OH229390   5.977   6.327  18.990 -0.0368  0.1205 -0.4315
 1732TIP3    H129391   6.019   6.353  18.909 -2.4269 -1.6854 -2.3966
 1732TIP3    H229392   6.012   6.240  19.008  0.1520  0.3322  0.2737
 1733TIP3   OH229393   0.492   5.144  17.266 -0.6112  0.1416  0.2152
 1733TIP3    H129394   0.482   5.050  17.255  0.2801  0.1134 -0.4132
 1733TIP3    H229395   0.452   5.162  17.351  0.2116 -0.9728  0.8617
 1734TIP3   OH229396   3.816   2.591  18.919 -0.2767  0.2518 -0.2926
 1734TIP3    H129397   3.814   2.497  18.905  0.5303  0.4222 -1.7202
 1734TIP3    H229398   3.885   2.605  18.984  0.5792 -0.0567 -1.1047
 1735TIP3   OH229399   5.986   4.834  16.003 -0.2427 -0.4645 -0.0919
 1735TIP3    H129400   5.923   4.775  16.043 -1.5412  0.1432 -1.1526
 1735TIP3    H229401   6.003   4.796  15.917  0.5666 -0.4260  0.0454
 1736TIP3   OH229402   2.258   0.023  16.989 -0.3302  0.0040  0.2329
 1736TIP3    H129403   2.326   0.090  16.989 -0.1916 -0.1340  0.4127
 1736TIP3    H229404   2.305  -0.059  16.999 -0.4768 -0.1468 -0.3056
 1737TIP3   OH229405   5.490   3.948  18.306  0.3113  0.0948  0.1902
 1737TIP3    H129406   5.404   3.931  18.343 -0.0791 -1.3967 -1.3036
 1737TIP3    H229407   5.475   4.015  18.239 -0.2084 -1.9783 -1.8652
 1738TIP3   OH229408   4.412   6.000  18.004 -0.1914  0.3732 -0.3235
 1738TIP3    H129409   4.473   5.931  18.029 -0.8961 -0.6126 -1.2275
 1738TIP3    H229410   4.423   6.067  18.072  0.5004 -0.6240  0.5966
 1739TIP3   OH229411   5.723   0.211  17.820  0.4380  0.4470 -0.0197
 1739TIP3    H129412   5.776   0.158  17.761  0.1955  0.8508 -0.6077
 1739TIP3    H229413   5.651   0.153  17.845  1.1853 -0.1419  0.8708
 1740TIP3   OH229414   4.764   4.586  16.524 -0.3326 -0.3905 -0.1215
 1740TIP3    H129415   4.836   4.608  16.464  0.4296 -0.9794  0.5556
 1740TIP3    H229416   4.718   4.514  16.481 -0.5821  0.0390 -0.5931
 1741TIP3   OH229417   3.745   2.254  17.631  0.4526 -0.0225  0.2836
 1741TIP3    H129418   3.818   2.271  17.691  1.0638 -1.8887  0.1522
 1741TIP3    H229419   3.667   2.283  17.678  0.8204 -2.1070  2.3715
 1742TIP3   OH229420   1.285   0.448  16.176  0.3107 -0.3851 -0.9672
 1742TIP3    H129421   1.211   0.389  16.162 -0.8760  1.2670 -1.9836
 1742TIP3    H229422   1.308   0.478  16.089  0.7185  0.8364 -0.4524
 1743TIP3   OH229423   3.598   5.223  19.075  0.4200 -0.1985  0.3173
 1743TIP3    H129424   3.544   5.303  19.076 -0.3404 -0.6894 -0.6217
 1743TIP3    H229425   3.552   5.164  19.135  0.5345 -0.2284  0.3757
 1744TIP3   OH229426   0.450   1.034  18.772  0.0791  0.1781  0.0161
 1744TIP3    H129427   0.419   0.955  18.815  1.3787  0.0354  0.7317
 1744TIP3    H229428   0.409   1.106  18.820 -1.2486 -0.0255 -0.7485
 1745TIP3   OH229429   6.442   1.109  17.500 -0.0217  0.5847 -0.0454
 1745TIP3    H129430   6.502   1.179  17.523 -0.8044  0.9428  0.9864
 1745TIP3    H229431   6.498   1.039  17.467  0.7776  1.6329 -0.9841
 1746TIP3   OH229432   4.827   0.941  16.883  0.0331 -0.3394  0.8078
 1746TIP3    H129433   4.868   0.875  16.826 -2.4510 -1.1836 -0.1550
 1746TIP3    H229434   4.773   0.889  16.943 -2.2213  0.7714 -0.1689
 1747TIP3   OH229435   5.908   5.877  16.421 -0.0570  0.4663 -0.1552
 1747TIP3    H129436   5.813   5.871  16.430 -0.1936  1.4592 -0.7828
 1747TIP3    H229437   5.929   5.814  16.352  0.1981 -2.2446  2.1904
 1748TIP3   OH229438   6.387   0.336  19.362  0.2468 -0.1215 -0.0049
 1748TIP3    H129439   6.299   0.345  19.326  0.3129  0.9872  0.0642
 1748TIP3    H229440   6.380   0.266  19.427 -1.3091  1.8105  2.0718
 1749TIP3   OH229441   5.569   2.532  19.045 -0.1948 -0.0595  0.3206
 1749TIP3    H129442   5.561   2.476  19.123 -0.6681 -0.9496 -0.3454
 1749TIP3    H229443   5.577   2.621  19.080  0.8439 -0.5516  1.4284
 1750TIP3   OH229444   4.896   3.709  18.086 -0.0497 -0.1581  0.9185
 1750TIP3    H129445   4.843   3.772  18.037 -0.2057 -1.7003 -1.0274
 1750TIP3    H229446   4.847   3.696  18.168 -3.1877 -1.9248 -0.9949
 1751TIP3   OH229447   6.594   3.350  19.007  0.1137  0.3436 -0.6740
 1751TIP3    H129448   6.642   3.267  18.998 -0.5411 -0.0855 -0.3410
 1751TIP3    H229449   6.661   3.415  19.025  0.6674 -0.0758 -1.1687
 1752TIP3   OH229450   3.576   1.024  18.947  0.8455 -0.0028 -0.2208
 1752TIP3    H129451   3.633   1.079  18.893  1.8908  1.2865  2.0336
 1752TIP3    H229452   3.630   0.948  18.969  0.9069  0.1165  0.0526
 1753TIP3   OH229453   2.332   4.182  18.887 -0.1139  0.4814 -0.1124
 1753TIP3    H129454   2.300   4.227  18.808 -0.2474 -1.0419 -0.9628
 1753TIP3    H229455   2.282   4.101  18.890  1.0822 -0.2540  0.6178
 1754TIP3   OH229456   0.572   0.522  16.862  0.8249 -0.0537 -0.4435
 1754TIP3    H129457   0.605   0.487  16.779 -0.2654  2.4070 -2.0094
 1754TIP3    H229458   0.634   0.592  16.885 -0.2705  0.9767 -0.5636
 1755TIP3   OH229459   4.521   2.199  17.599 -0.0857 -0.6558  0.1081
 1755TIP3    H129460   4.500   2.106  17.605  0.8680 -0.9037 -0.1430
 1755TIP3    H229461   4.482   2.237  17.678 -1.1259 -1.1242 -0.1611
 1756TIP3   OH229462   3.250   1.844  18.014 -0.1852 -0.4610 -0.0172
 1756TIP3    H129463   3.173   1.896  17.992  1.3672  1.3529 -1.4480
 1756TIP3    H229464   3.248   1.771  17.952  0.1389  0.5361 -1.2422
 1757TIP3   OH229465   4.031   5.136  18.838 -0.2492  0.1718  0.1910
 1757TIP3    H129466   3.993   5.075  18.775  1.2204 -1.3144  0.6695
 1757TIP3    H229467   3.965   5.146  18.906 -0.8718 -0.1327 -0.3546
 1758TIP3   OH229468   2.833   0.579  16.246  0.5953  0.2499  0.1678
 1758TIP3    H129469   2.814   0.513  16.178  1.8171  0.0071  0.0459
 1758TIP3    H229470   2.916   0.617  16.219  0.7683  0.6046  1.1961
 1759TIP3   OH229471   2.730   0.995  18.873 -0.2936 -0.2646 -0.4634
 1759TIP3    H129472   2.813   0.966  18.835  0.6244 -0.3226  1.4553
 1759TIP3    H229473   2.706   1.072  18.821  1.3244  0.1696 -0.6472
 1760TIP3   OH229474   1.040   4.158  16.809  0.3930  0.0890  0.2910
 1760TIP3    H129475   1.090   4.135  16.887 -2.4015 -1.7981  1.6732
 1760TIP3    H229476   1.087   4.116  16.737  1.9514  0.2195  1.2007
 1761TIP3   OH229477   0.829   6.149  16.485 -0.0000  0.9976 -0.0472
 1761TIP3    H129478   0.826   6.216  16.416  0.3690  0.2814 -0.7846
 1761TIP3    H229479   0.768   6.180  16.551  1.2144  2.7790  0.3093
 1762TIP3   OH229480   3.601   3.518  17.769 -0.1699  0.1802  0.5626
 1762TIP3    H129481   3.507   3.526  17.755 -0.2904  2.0651  2.0143
 1762TIP3    H229482   3.610   3.514  17.865  1.0696 -3.2078  0.4251
 1763TIP3   OH229483   2.661   0.595  16.493 -0.4670  0.4237  0.4650
 1763TIP3    H129484   2.735   0.534  16.484 -0.9901 -0.4551  1.6889
 1763TIP3    H229485   2.593   0.560  16.435 -0.9087 -0.4412  1.4587
 1764TIP3   OH229486   0.573   3.312  19.358  0.2368 -0.1371 -0.0741
 1764TIP3    H129487   0.513   3.382  19.384  0.0702 -1.0666  2.2428
 1764TIP3    H229488   0.583   3.258  19.436  4.0614 -0.0903 -0.3511
 1765TIP3   OH229489   6.302   0.340  16.218 -0.0228 -0.2211  0.1993
 1765TIP3    H129490   6.321   0.431  16.195  1.4107 -0.6093 -0.3046
 1765TIP3    H229491   6.268   0.300  16.138 -1.4750  0.0555  0.6497
 1766TIP3   OH229492   3.973   2.081  19.122 -0.4543 -0.7634  0.1758
 1766TIP3    H129493   3.956   2.046  19.034 -0.4817 -2.0389  0.6692
 1766TIP3    H229494   4.050   2.033  19.152 -0.8164 -0.7857  1.1009
 1767TIP3   OH229495   1.234   5.345  17.097  0.2841 -0.0967  0.4658
 1767TIP3    H129496   1.269   5.390  17.021  0.2355 -0.1556  0.4085
 1767TIP3    H229497   1.186   5.270  17.062  1.0691 -0.6713  0.6044
 1768TIP3   OH229498   3.626   1.523  18.639  0.2387  0.5000  0.2726
 1768TIP3    H129499   3.552   1.578  18.613 -1.2304 -1.0603  0.9315
 1768TIP3    H229500   3.646   1.471  18.560 -0.0989  0.1633  0.4050
 1769TIP3   OH229501   3.522   2.764  19.478 -0.0205  0.4761  0.0775
 1769TIP3    H129502   3.458   2.835  19.481 -0.3479  0.2852 -1.5088
 1769TIP3    H229503   3.471   2.685  19.499  0.0144  0.5031  0.2697
 1770TIP3   OH229504   1.970   1.005  19.279 -0.0411 -0.1019  0.0608
 1770TIP3    H129505   1.905   0.987  19.347 -0.1829 -1.3451 -0.3644
 1770TIP3    H229506   2.011   1.087  19.305 -2.2392  1.1036 -0.0170
 1771TIP3   OH229507   1.917   0.023  19.380  0.3312 -0.0890 -0.2071
 1771TIP3    H129508   1.915  -0.013  19.468 -0.4655 -0.7812 -0.4926
 1771TIP3    H229509   1.958   0.109  19.390 -1.3901  0.6376  1.1381
 1772TIP3   OH229510   2.476   2.360  16.590 -0.1220  0.7906 -0.5401
 1772TIP3    H129511   2.546   2.386  16.650  1.1962  0.2066 -1.7569
 1772TIP3    H229512   2.451   2.272  16.618  0.2716  0.6423 -0.6546
 1773TIP3   OH229513   1.936   5.046  17.191 -0.1654  0.2353 -0.0005
 1773TIP3    H129514   1.966   5.012  17.107  0.0876 -0.0544  0.2033
 1773TIP3    H229515   2.016   5.069  17.238 -0.2765 -0.1255  0.3749
 1774TIP3   OH229516   5.787   2.622  16.206 -0.3073  0.1853 -0.1247
 1774TIP3    H129517   5.847   2.676  16.257 -1.4341  3.7836 -2.2393
 1774TIP3    H229518   5.843   2.579  16.141  0.3335  0.9952 -0.1204
 1775TIP3   OH229519   2.835   4.328  16.911  0.3313 -0.3558 -0.5488
 1775TIP3    H129520   2.816   4.234  16.917  0.4099 -0.4026 -1.0143
 1775TIP3    H229521   2.930   4.333  16.902  0.3712 -0.2067 -0.0970
 1776TIP3   OH229522   0.957   1.660  18.800 -0.6056 -0.3871  0.0687
 1776TIP3    H129523   0.981   1.567  18.797 -1.0384 -0.4863 -0.5738
 1776TIP3    H229524   1.038   1.706  18.776 -0.4087 -0.6020  0.3190
 1777TIP3   OH229525   6.582   2.005  18.805 -0.4574  0.1198 -0.1930
 1777TIP3    H129526   6.540   2.072  18.859  0.8442  0.2715  0.6690
 1777TIP3    H229527   6.653   1.972  18.860  1.3884  0.7962 -2.0847
 1778TIP3   OH229528   5.677   4.031  17.093  0.5930 -0.0831 -0.0278
 1778TIP3    H129529   5.720   3.991  17.169 -0.4835  0.6762  1.0166
 1778TIP3    H229530   5.641   4.113  17.126 -1.6377 -0.6675 -0.8638
 1779TIP3   OH229531   4.716   2.725  18.882  0.0706 -0.5086  0.1648
 1779TIP3    H129532   4.762   2.784  18.823  3.0869 -1.6892  1.1229
 1779TIP3    H229533   4.683   2.655  18.826 -1.5880  0.8687 -0.6779
 1780TIP3   OH229534   1.024   0.636  17.149 -0.0492 -0.0392 -0.6514
 1780TIP3    H129535   0.960   0.623  17.080 -1.2223  0.2569  0.3431
 1780TIP3    H229536   1.033   0.549  17.189  0.0140 -0.0367 -0.6596
 1781TIP3   OH229537   0.630   1.422  16.664  0.2384 -0.0485  0.3480
 1781TIP3    H129538   0.565   1.446  16.730 -1.8376  0.0038 -1.5998
 1781TIP3    H229539   0.637   1.327  16.670 -0.0414 -0.0542  0.5641
 1782TIP3   OH229540   4.017   4.565  17.088  0.1796 -0.1861  0.3728
 1782TIP3    H129541   3.985   4.536  17.173  0.9216 -0.7745  0.4629
 1782TIP3    H229542   4.091   4.622  17.108  1.0614 -1.2007  0.1157
 1783TIP3   OH229543   1.618   1.047  18.461  0.2398 -0.0749 -0.2367
 1783TIP3    H129544   1.574   1.094  18.390  2.2207  1.7118 -0.3692
 1783TIP3    H229545   1.669   0.979  18.416 -0.1601 -0.3263 -0.3197
 1784TIP3   OH229546   6.512   0.490  19.111 -0.2626 -0.3438  0.4052
 1784TIP3    H129547   6.478   0.481  19.200 -0.3251 -0.9774  0.3215
 1784TIP3    H229548   6.504   0.583  19.091 -0.6541 -0.2714  0.9006
 1785TIP3   OH229549   5.930   5.415  17.370 -0.2560 -0.9014  0.1289
 1785TIP3    H129550   5.864   5.362  17.413  0.4033 -2.7432 -0.9906
 1785TIP3    H229551   5.910   5.407  17.276 -0.8010  1.7997 -0.0556
 1786TIP3   OH229552   3.135   1.937  19.464 -0.0708  0.1975  0.1502
 1786TIP3    H129553   3.198   1.880  19.507 -0.6917 -0.7917 -0.2117
 1786TIP3    H229554   3.064   1.879  19.437 -1.6281  1.3991  1.4320
 1787TIP3   OH229555   5.992   4.117  16.357 -0.2310  0.2342 -0.2608
 1787TIP3    H129556   5.949   4.152  16.279  1.5631  1.0478 -0.9363
 1787TIP3    H229557   5.923   4.114  16.423 -1.6314  0.1804 -1.6647
 1788TIP3   OH229558   0.046   4.993  17.511  0.1644 -0.2394  0.1620
 1788TIP3    H129559   0.091   4.960  17.589  2.1721 -0.1645 -0.9018
 1788TIP3    H229560   0.042   4.917  17.452 -0.5746 -0.0836  0.0101
 1789TIP3   OH229561   3.000   1.345  16.670 -0.0940  0.4833 -0.0735
 1789TIP3    H129562   2.952   1.422  16.702 -1.2832 -1.1950  2.4680
 1789TIP3    H229563   2.938   1.300  16.613  1.3181  2.3695 -3.3409
 1790TIP3   OH229564   1.365   2.005  17.868  0.1248  0.0786  0.6083
 1790TIP3    H129565   1.307   1.969  17.801  1.2990 -1.1365  0.2032
 1790TIP3    H229566   1.437   2.044  17.819  0.3297  0.3919  1.1467
 1791TIP3   OH229567   4.890   0.171  18.832  0.1917 -0.5179 -0.5568
 1791TIP3    H129568   4.961   0.113  18.859 -1.7580 -2.7955 -0.0127
 1791TIP3    H229569   4.858   0.133  18.750 -1.6775 -0.7472  0.2429
 1792TIP3   OH229570   1.034   5.941  19.117 -0.2948  0.0232  0.0729
 1792TIP3    H129571   0.947   5.948  19.079 -0.6382 -0.6331  0.7065
 1792TIP3    H229572   1.021   5.956  19.211  0.5784  1.9474 -0.0778
 1793TIP3   OH229573   0.065   2.789  17.807  0.0282 -0.0737  0.0959
 1793TIP3    H129574   0.100   2.723  17.747 -1.4493 -1.3653  0.5928
 1793TIP3    H229575   0.141   2.844  17.829  0.7564  0.0541 -2.3978
 1794TIP3   OH229576   6.038   0.091  17.009  0.0290  0.2095 -0.5154
 1794TIP3    H129577   5.980   0.030  17.054  0.8356 -1.7001 -1.9099
 1794TIP3    H229578   5.981   0.163  16.982 -1.1525 -0.3554  0.3953
 1795TIP3   OH229579   1.164   2.631  16.671  0.4107  0.1182 -0.6346
 1795TIP3    H129580   1.144   2.538  16.661  0.2911  0.0852 -0.1211
 1795TIP3    H229581   1.163   2.646  16.766  1.6203  0.3755 -0.6399
 1796TIP3   OH229582   5.733   2.122  17.322  0.0519 -0.0595  0.4942
 1796TIP3    H129583   5.820   2.145  17.356 -0.0066 -0.9521  1.2906
 1796TIP3    H229584   5.684   2.204  17.325  0.9490  0.5241 -0.2673
 1797TIP3   OH229585   0.907   1.860  16.203  0.7105 -0.2100 -0.1443
 1797TIP3    H129586   0.911   1.774  16.161  1.3174 -0.4884  0.4737
 1797TIP3    H229587   0.952   1.848  16.286  0.1432  0.5247  0.2729
 1798TIP3   OH229588   5.577   1.538  16.400  0.2286  0.5251  0.0770
 1798TIP3    H129589   5.638   1.609  16.378  0.6776  0.5458  1.3014
 1798TIP3    H229590   5.492   1.571  16.371  0.7898  0.4307 -1.8048
 1799TIP3   OH229591   1.641   4.569  17.923  0.2691  0.6118  0.1792
 1799TIP3    H129592   1.724   4.613  17.939  0.5178  0.4618 -0.6667
 1799TIP3    H229593   1.609   4.607  17.841 -1.3340  1.9048  1.3211
 1800TIP3   OH229594   5.987   6.748  18.694  0.2622 -0.2335 -0.0039
 1800TIP3    H129595   5.969   6.686  18.623 -2.3163 -0.7581  0.9910
 1800TIP3    H229596   6.020   6.826  18.650 -0.6456 -0.7672 -1.7235
 1801TIP3   OH229597   1.480   3.118  17.152 -0.2660  0.0724 -0.2902
 1801TIP3    H129598   1.572   3.096  17.135 -0.5386 -1.4290  0.0245
 1801TIP3    H229599   1.450   3.162  17.073  0.4863 -0.2055 -0.7372
 1802TIP3   OH229600   2.060   1.984  16.317 -0.1593  0.3467 -0.4175
 1802TIP3    H129601   2.112   1.911  16.352  2.5173  1.9920 -0.7040
 1802TIP3    H229602   1.975   1.976  16.361  1.6937 -0.0085  3.5224
 1803TIP3   OH229603   5.965   0.823  18.609  0.4253 -0.0610  0.9951
 1803TIP3    H129604   5.929   0.745  18.651  0.3635  0.7744  2.6143
 1803TIP3    H229605   5.890   0.882  18.601  0.2233 -0.5368 -1.2861
 1804TIP3   OH229606   2.295   4.375  18.389  0.2013 -0.2464  0.0586
 1804TIP3    H129607   2.359   4.366  18.460  1.2373 -0.0449 -0.8288
 1804TIP3    H229608   2.333   4.327  18.316 -1.1104 -0.9080 -0.2218
 1805TIP3   OH229609   3.560   0.391  16.997  0.1389  0.2646 -0.2650
 1805TIP3    H129610   3.593   0.390  16.907 -0.7385 -0.1543 -0.5943
 1805TIP3    H229611   3.621   0.335  17.045 -0.5410 -1.2452 -1.0573
 1806TIP3   OH229612   4.541   4.777  18.277 -0.1664 -0.2071  0.1266
 1806TIP3    H129613   4.603   4.764  18.205 -1.7610  0.6205 -1.4511
 1806TIP3    H229614   4.575   4.853  18.324 -0.2546  0.5975 -1.0679
 1807TIP3   OH229615   5.038   2.620  18.271 -0.2193  0.9340  0.2106
 1807TIP3    H129616   5.116   2.572  18.299 -0.8465  0.2371  0.8157
 1807TIP3    H229617   5.013   2.579  18.188  1.1706  2.4658 -1.0439
 1808TIP3   OH229618   6.389   1.128  16.865  0.5684 -0.1058 -0.0545
 1808TIP3    H129619   6.431   1.210  16.892  0.7048  0.0373 -0.6793
 1808TIP3    H229620   6.412   1.066  16.934  0.5982  0.3424  0.3446
 1809TIP3   OH229621   5.745   5.082  17.895  0.5349 -0.5843  0.1752
 1809TIP3    H129622   5.798   5.115  17.967 -1.4883 -0.7643  1.8416
 1809TIP3    H229623   5.669   5.041  17.937 -0.7068 -0.7658 -2.0501
 1810TIP3   OH229624   2.863   3.073  16.522  0.5445  0.1753 -0.2681
 1810TIP3    H129625   2.770   3.077  16.547 -0.1439 -1.3622 -2.2897
 1810TIP3    H229626   2.902   3.152  16.559 -1.2858  0.2368  1.7033
 1811TIP3   OH229627   3.285   6.343  18.996  0.1591 -0.0594 -0.6968
 1811TIP3    H129628   3.268   6.407  19.064 -1.8654  0.1457 -1.3319
 1811TIP3    H229629   3.218   6.360  18.929  2.2212 -0.0436 -2.9105
 1812TIP3   OH229630   1.275   6.363  17.193  0.0051 -1.0010 -0.4635
 1812TIP3    H129631   1.329   6.386  17.117  0.0151  0.2995 -0.0995
 1812TIP3    H229632   1.336   6.321  17.253  0.5341  0.0302 -0.2492
 1813TIP3   OH229633   3.313   3.736  16.978  0.2053 -0.1185  0.4468
 1813TIP3    H129634   3.339   3.823  17.006 -1.7905  0.7785 -0.2954
 1813TIP3    H229635   3.232   3.750  16.929  0.6845 -2.2137 -1.0834
 1814TIP3   OH229636   6.256   5.703  16.881  0.5060 -0.2217  0.7205
 1814TIP3    H129637   6.201   5.661  16.947  1.1837 -0.3618  1.1992
 1814TIP3    H229638   6.332   5.735  16.929  1.0808 -0.4522 -0.0113
 1815TIP3   OH229639   3.356   5.324  19.375  0.4670 -0.3784  0.0182
 1815TIP3    H129640   3.279   5.307  19.430 -0.1189  0.0223 -0.6617
 1815TIP3    H229641   3.369   5.243  19.325  0.5902 -0.5034  0.2515
 1816TIP3   OH229642   0.929   5.191  17.808 -0.1426  0.1925 -0.5030
 1816TIP3    H129643   0.836   5.189  17.831  0.4114  2.3129  2.6735
 1816TIP3    H229644   0.934   5.250  17.733 -1.3912 -0.5327 -1.1851
 1817TIP3   OH229645   4.446   1.095  18.201 -0.9026  0.2508 -0.0567
 1817TIP3    H129646   4.456   1.031  18.131  0.5659 -0.1300  0.4634
 1817TIP3    H229647   4.385   1.054  18.263 -1.6945  0.3178 -0.7742
 1818TIP3   OH229648   4.930   4.471  16.302 -0.3401 -0.4838 -0.0002
 1818TIP3    H129649   4.878   4.527  16.244 -0.5904 -0.7771 -0.0622
 1818TIP3    H229650   5.020   4.497  16.285 -0.4809  0.2031  0.2908
 1819TIP3   OH229651   2.940   0.079  17.012 -0.1512  0.1534 -0.3072
 1819TIP3    H129652   2.844   0.087  17.009 -0.0668  1.6372 -0.0340
 1819TIP3    H229653   2.956  -0.015  17.019 -1.6356 -0.0552  0.8659
 1820TIP3   OH229654   5.499   6.671  16.819  0.1532  0.2188  0.2558
 1820TIP3    H129655   5.512   6.577  16.829  0.3697 -0.2383 -3.0425
 1820TIP3    H229656   5.480   6.703  16.907  0.2568 -2.8576  1.5065
 1821TIP3   OH229657   1.730   4.582  16.404  0.6442 -0.5158 -0.4216
 1821TIP3    H129658   1.811   4.602  16.452  0.7190 -1.7508  0.0096
 1821TIP3    H229659   1.721   4.487  16.412 -2.2615 -0.1774  1.8253
 1822TIP3   OH229660   5.616   2.935  18.807  0.6187 -0.1453  0.3981
 1822TIP3    H129661   5.584   2.844  18.803  0.6018 -0.0944 -0.9238
 1822TIP3    H229662   5.702   2.932  18.766  1.0037  0.2891  1.1534
 1823TIP3   OH229663   4.681   6.281  17.641  0.5250 -0.0042 -0.0226
 1823TIP3    H129664   4.764   6.265  17.594  1.0745 -0.5347  1.1046
 1823TIP3    H229665   4.664   6.201  17.689 -1.4817 -0.4898 -1.4080
 1824TIP3   OH229666   4.727   4.568  17.577  0.1818  0.3511  0.2090
 1824TIP3    H129667   4.703   4.534  17.491  0.6428 -1.4176  0.7323
 1824TIP3    H229668   4.771   4.651  17.559 -2.1863  1.4396 -1.0533
 1825TIP3   OH229669   2.179   5.401  17.244 -0.2581  0.3072  0.5728
 1825TIP3    H129670   2.168   5.315  17.285  3.2656 -0.2104  0.7357
 1825TIP3    H229671   2.177   5.463  17.316 -0.3122  0.0961  0.7516
 1826TIP3   OH229672   2.480   1.790  19.417 -0.0947  0.2647  0.2008
 1826TIP3    H129673   2.500   1.755  19.330 -0.3660 -1.6078  0.8463
 1826TIP3    H229674   2.559   1.840  19.440  1.0859 -1.3877 -0.0674
 1827TIP3   OH229675   5.947   4.188  16.087  0.6408 -0.5212 -0.0257
 1827TIP3    H129676   5.960   4.280  16.066  0.7682 -0.3688  0.6946
 1827TIP3    H229677   5.871   4.161  16.035 -0.0228  0.2574  0.5331
 1828TIP3   OH229678   0.415   5.561  16.185  0.3030  0.5864 -0.1439
 1828TIP3    H129679   0.505   5.576  16.215  0.2675  1.2338 -0.3490
 1828TIP3    H229680   0.361   5.611  16.246  0.1818  1.3432 -0.8592
 1829TIP3   OH229681   2.585   0.246  19.134 -0.1574 -0.0808 -0.4993
 1829TIP3    H129682   2.586   0.150  19.138  0.5610 -0.1679 -2.0626
 1829TIP3    H229683   2.623   0.267  19.049  0.1727  1.6234  0.0309
 1830TIP3   OH229684   5.812   0.351  18.049 -0.1018 -0.3840  0.4794
 1830TIP3    H129685   5.762   0.309  18.119 -0.6079 -1.3120 -0.3980
 1830TIP3    H229686   5.777   0.312  17.968  0.4453  0.6685 -0.2910
 1831TIP3   OH229687   5.068   4.132  16.119 -0.4708  0.1647 -0.1341
 1831TIP3    H129688   5.067   4.049  16.071  1.0275  0.2009 -0.2742
 1831TIP3    H229689   4.997   4.183  16.079  0.7351  0.2053 -2.3675
 1832TIP3   OH229690   3.692   6.162  18.940  0.3770 -0.1721  0.2008
 1832TIP3    H129691   3.652   6.243  18.971 -0.8775 -1.1330  1.2365
 1832TIP3    H229692   3.740   6.129  19.016  0.8311 -0.4306 -0.1922
 1833TIP3   OH229693   3.929   6.053  16.868  0.1710  0.2104  0.2986
 1833TIP3    H129694   4.007   5.999  16.858 -0.4439 -0.3915 -1.6037
 1833TIP3    H229695   3.862   5.992  16.900 -0.4362 -0.1453 -1.5368
 1834TIP3   OH229696   3.116   1.852  19.015  0.1907  0.3698 -0.4030
 1834TIP3    H129697   3.177   1.848  18.941  0.7287  0.0365  0.0547
 1834TIP3    H229698   3.169   1.829  19.091 -0.7863 -1.1813 -0.1531
 1835TIP3   OH229699   3.526   1.376  17.321 -1.1541  0.2812  0.0739
 1835TIP3    H129700   3.581   1.454  17.310 -0.0165 -0.5152  0.0129
 1835TIP3    H229701   3.436   1.409  17.310 -0.7485  1.7260  0.8287
 1836TIP3   OH229702   5.956   4.780  18.228 -0.0910  0.0659  0.4351
 1836TIP3    H129703   6.040   4.774  18.182 -1.3404 -0.5715 -1.8848
 1836TIP3    H229704   5.910   4.853  18.187 -0.0867  1.5290  2.8285
 1837TIP3   OH229705   6.461   0.441  18.118  0.0597  0.6179  0.4069
 1837TIP3    H129706   6.497   0.428  18.030  0.5313  1.3810  0.4827
 1837TIP3    H229707   6.382   0.387  18.119  0.0518  0.5938 -0.4800
 1838TIP3   OH229708   1.418   4.004  17.722 -0.2638 -0.1095 -0.0528
 1838TIP3    H129709   1.418   3.912  17.696 -0.7611  0.1369 -0.9819
 1838TIP3    H229710   1.475   4.008  17.798 -0.0239 -1.1412 -0.1695
 1839TIP3   OH229711   4.559   0.050  16.247  0.5932  0.5625 -0.0174
 1839TIP3    H129712   4.525   0.139  16.256 -0.5035  0.2253 -0.6538
 1839TIP3    H229713   4.629   0.057  16.182  1.1025  1.0903  0.5654
 1840TIP3   OH229714   0.524   0.262  18.792 -0.8387 -0.6934  0.1654
 1840TIP3    H129715   0.609   0.246  18.831  0.3952  1.6730 -1.3163
 1840TIP3    H229716   0.530   0.224  18.704 -1.1256 -0.0492 -0.1369
 1841TIP3   OH229717   3.787   3.239  17.403  1.1425  0.5591 -0.1217
 1841TIP3    H129718   3.742   3.242  17.487  1.1782  0.6234 -0.1037
 1841TIP3    H229719   3.737   3.297  17.346  1.8116  1.4891  0.2035
 1842TIP3   OH229720   6.750   4.645  17.111 -0.0323 -0.4388 -0.3689
 1842TIP3    H129721   6.827   4.632  17.057 -0.4732 -2.7448 -0.5563
 1842TIP3    H229722   6.761   4.584  17.184 -1.0724  0.1112  0.2724
 1843TIP3   OH229723   0.027   0.773  18.807  0.3881  0.3432 -0.2253
 1843TIP3    H129724  -0.044   0.823  18.767  0.2570 -0.6689 -1.3088
 1843TIP3    H229725   0.100   0.780  18.744  0.7938  0.2396  0.2271
 1844TIP3   OH229726   0.013   3.177  18.645  0.0097  0.4680 -0.1784
 1844TIP3    H129727  -0.014   3.095  18.603  0.7637  0.6060 -0.9414
 1844TIP3    H229728  -0.059   3.198  18.705 -0.1624 -0.7789  0.0668
 1845TIP3   OH229729   0.082   1.324  15.771  0.2938  0.5878  0.0588
 1845TIP3    H129730  -0.012   1.313  15.778  0.2535  1.3404  0.9215
 1845TIP3    H229731   0.094   1.414  15.740  0.7082 -0.0323 -1.6781
 1846TIP3   OH229732   5.259   4.224  17.090  0.2831  0.0214 -0.7963
 1846TIP3    H129733   5.264   4.134  17.122 -0.4533 -0.2710 -1.4919
 1846TIP3    H229734   5.321   4.228  17.017  0.0672 -0.0121 -0.9808
 1847TIP3   OH229735   4.290   0.959  17.424 -0.1543 -0.0609 -0.0306
 1847TIP3    H129736   4.379   0.968  17.388  0.1004  0.4060  0.6842
 1847TIP3    H229737   4.265   0.869  17.403  0.9577 -0.5848  0.7603
 1848TIP3   OH229738   1.167   3.838  16.886  0.3992 -0.3673 -0.2406
 1848TIP3    H129739   1.237   3.896  16.915  0.9976 -1.5041  0.6519
 1848TIP3    H229740   1.135   3.878  16.805  0.7208  1.2464  0.3876
 1849TIP3   OH229741   0.052   3.462  17.109 -0.3923 -0.4662  0.0198
 1849TIP3    H129742   0.011   3.547  17.090 -0.4524 -0.6244 -0.5643
 1849TIP3    H229743   0.038   3.410  17.030  1.0529 -0.4851 -0.2481
 1850TIP3   OH229744   4.677   4.164  17.195 -0.0862 -0.0347 -0.0814
 1850TIP3    H129745   4.619   4.089  17.183 -1.2648  0.0629  3.6491
 1850TIP3    H229746   4.765   4.129  17.179 -0.7043 -1.9289  0.4049
 1851TIP3   OH229747   4.743   2.566  17.212 -0.1510 -0.2573  0.0569
 1851TIP3    H129748   4.780   2.653  17.229  0.6018 -0.6744  0.6380
 1851TIP3    H229749   4.686   2.550  17.286 -0.6001 -0.1040 -0.2509
 1852TIP3   OH229750   3.578   0.215  18.759 -0.3807 -0.1695 -0.0371
 1852TIP3    H129751   3.591   0.298  18.713 -2.3891  0.1437 -0.1582
 1852TIP3    H229752   3.666   0.183  18.778  0.4628  2.1406  0.2931
 1853TIP3   OH229753   3.470   0.615  17.791  0.4416 -0.9295 -0.3065
 1853TIP3    H129754   3.439   0.648  17.875  0.9630 -0.0795 -0.4366
 1853TIP3    H229755   3.485   0.693  17.738  1.4551 -1.3804 -0.7155
 1854TIP3   OH229756   0.535   2.461  16.082 -0.1953 -0.5777  0.1455
 1854TIP3    H129757   0.629   2.450  16.097 -0.1749 -0.4870  0.0857
 1854TIP3    H229758   0.494   2.396  16.139 -0.0972 -0.6016  0.1901
 1855TIP3   OH229759   1.587   4.314  18.077  0.2373 -0.3508 -0.8666
 1855TIP3    H129760   1.584   4.403  18.041 -0.3131 -1.2550 -3.2333
 1855TIP3    H229761   1.509   4.309  18.133  1.3892  1.2544  1.0398
 1856TIP3   OH229762   5.034   1.605  15.476 -0.1227  0.5318 -0.0999
 1856TIP3    H129763   4.964   1.550  15.512  1.4201 -0.3892  1.6505
 1856TIP3    H229764   5.001   1.695  15.484 -0.2879  0.3063  2.8371
 1857TIP3   OH229765   0.598   4.934  17.732 -0.4078 -0.1178 -0.3701
 1857TIP3    H129766   0.596   4.838  17.736  2.8229 -0.3027 -0.6204
 1857TIP3    H229767   0.605   4.954  17.639 -1.9423  0.4792 -0.3951
 1858TIP3   OH229768   2.713   5.865  15.708  0.1108  0.6846 -0.0711
 1858TIP3    H129769   2.758   5.949  15.697 -0.6216  0.9566 -1.1376
 1858TIP3    H229770   2.627   5.878  15.666  0.5294 -1.0404 -1.5947
 1859TIP3   OH229771   2.489   4.401  18.580  0.4296  0.0233 -0.5663
 1859TIP3    H129772   2.553   4.389  18.510  0.0598  0.6055 -1.0170
 1859TIP3    H229773   2.541   4.424  18.657  0.8221 -0.3952 -0.7029
 1860TIP3   OH229774   0.648   5.582  17.768 -0.8502  0.1683 -0.7823
 1860TIP3    H129775   0.711   5.622  17.708 -2.5216  3.3301 -0.6452
 1860TIP3    H229776   0.671   5.616  17.854 -1.3170 -0.5377 -0.3738
 1861TIP3   OH229777   6.573   2.431  18.742 -0.0933 -1.0837  0.5994
 1861TIP3    H129778   6.515   2.354  18.741  0.6357 -1.6372  0.7190
 1861TIP3    H229779   6.548   2.479  18.821 -2.5688  0.3756 -0.9359
 1862TIP3   OH229780   3.806   5.631  17.492 -0.0503  0.0800  0.1969
 1862TIP3    H129781   3.879   5.584  17.532  0.1194 -0.2008 -0.4361
 1862TIP3    H229782   3.811   5.719  17.529  2.3452  0.9514 -1.9488
 1863TIP3   OH229783   4.142   6.305  16.451  0.2379 -0.2098  0.0284
 1863TIP3    H129784   4.129   6.258  16.533  3.4762 -1.9080 -0.2795
 1863TIP3    H229785   4.195   6.381  16.475 -1.2828  0.9768 -0.1560
 1864TIP3   OH229786   6.327   1.564  16.911  0.0923 -0.0046  0.7405
 1864TIP3    H129787   6.307   1.480  16.954 -1.3387 -0.3942 -0.5738
 1864TIP3    H229788   6.278   1.629  16.962 -0.8607 -0.3407  0.2846
 1865TIP3   OH229789   6.504   6.038  18.265  0.5734 -0.2299 -0.2665
 1865TIP3    H129790   6.490   6.116  18.319  1.4007  0.5365 -1.1075
 1865TIP3    H229791   6.579   5.995  18.305  1.0618  0.2321 -0.6595
 1866TIP3   OH229792   0.002   4.303  16.555 -0.3372  0.2720  0.0100
 1866TIP3    H129793   0.000   4.237  16.485  2.0040 -0.0703  0.1956
 1866TIP3    H229794  -0.071   4.280  16.612 -0.5213 -1.1901 -0.7778
 1867TIP3   OH229795   4.829   5.442  17.914 -0.4240  0.4620 -0.4140
 1867TIP3    H129796   4.856   5.431  17.823  0.6468 -1.9336  0.1164
 1867TIP3    H229797   4.744   5.400  17.920  0.9097 -2.4459  0.2644
 1868TIP3   OH229798   0.553   4.640  18.848  0.3471  0.3693 -0.1873
 1868TIP3    H129799   0.611   4.564  18.836  0.0504  0.3494 -1.8028
 1868TIP3    H229800   0.555   4.684  18.763 -1.3727  0.8219 -0.0289
 1869TIP3   OH229801   3.621   5.502  18.300 -0.4602 -0.5511 -0.0897
 1869TIP3    H129802   3.713   5.523  18.285 -0.7914  1.9613  0.8568
 1869TIP3    H229803   3.618   5.472  18.391 -0.8470  2.2647  0.9553
 1870TIP3   OH229804   5.770   1.330  17.403  0.2663  0.2420  0.3070
 1870TIP3    H129805   5.783   1.422  17.382  1.8902 -0.1658 -0.6884
 1870TIP3    H229806   5.743   1.329  17.494  0.8683  1.6719  0.5241
 1871TIP3   OH229807   0.948   2.933  18.884  0.1975 -0.6247 -0.1239
 1871TIP3    H129808   0.931   3.019  18.923  1.6633 -0.9273  1.3298
 1871TIP3    H229809   0.897   2.872  18.937  1.1994 -0.8980  0.5704
 1872TIP3   OH229810   3.277   4.895  17.030 -0.5637 -0.0709 -0.5276
 1872TIP3    H129811   3.264   4.802  17.053 -1.9017  0.2857  0.2944
 1872TIP3    H229812   3.368   4.900  17.004 -0.7116 -1.8158 -1.5464
 1873TIP3   OH229813   2.087   0.792  16.916  0.4553  0.3340 -0.0671
 1873TIP3    H129814   2.164   0.836  16.953  1.6838 -1.5138 -0.2686
 1873TIP3    H229815   2.101   0.795  16.822  0.2378  0.0820 -0.1060
 1874TIP3   OH229816   4.131   6.112  19.009 -0.1837 -0.1872  0.5489
 1874TIP3    H129817   4.199   6.090  18.945  0.2967 -0.4477  1.1355
 1874TIP3    H229818   4.135   6.041  19.073 -1.0710 -0.2477  0.5490
 1875TIP3   OH229819   4.242   6.597  17.733 -0.0937 -0.4935 -0.2600
 1875TIP3    H129820   4.219   6.601  17.825  0.1981  2.1070 -0.2208
 1875TIP3    H229821   4.337   6.586  17.732 -0.1754 -1.2876 -0.2960
 1876TIP3   OH229822   1.428   6.267  17.386 -0.1167 -0.1130 -0.3807
 1876TIP3    H129823   1.412   6.210  17.462  0.3037  0.4668  0.1449
 1876TIP3    H229824   1.519   6.251  17.363 -0.2577 -0.3217 -0.7980
 1877TIP3   OH229825   0.868   4.040  18.731  0.3846 -0.3805  0.0825
 1877TIP3    H129826   0.810   4.092  18.674  1.7791  0.2171 -0.8488
 1877TIP3    H229827   0.907   3.975  18.673  1.7056  0.1258  0.3603
 1878TIP3   OH229828   2.936   4.457  16.237 -0.0097  0.0582 -0.5521
 1878TIP3    H129829   2.907   4.532  16.184 -0.1794 -0.0120 -0.5625
 1878TIP3    H229830   2.860   4.399  16.238  0.3657 -0.4450 -1.1433
 1879TIP3   OH229831   4.165   4.664  18.633  0.6302 -0.3960  0.2723
 1879TIP3    H129832   4.214   4.585  18.654  2.4560  1.1821  2.4385
 1879TIP3    H229833   4.209   4.698  18.555 -1.1873 -2.2303 -1.6794
 1880TIP3   OH229834   6.339   0.990  16.633  0.0651  0.3440  0.1472
 1880TIP3    H129835   6.352   1.040  16.713 -0.8286 -0.7085  0.9899
 1880TIP3    H229836   6.407   1.021  16.573  1.3793  0.4664  1.6487
 1881TIP3   OH229837   1.200   3.356  19.181  0.0054  0.1089  0.1506
 1881TIP3    H129838   1.271   3.296  19.203  1.9494  1.5254 -1.9273
 1881TIP3    H229839   1.230   3.441  19.213 -0.6446  0.7772 -0.9765
 1882TIP3   OH229840   5.313   2.784  17.576  0.0841 -0.0463 -0.1223
 1882TIP3    H129841   5.387   2.736  17.538 -0.2260 -0.9018  0.3175
 1882TIP3    H229842   5.352   2.839  17.644  0.4740  0.5096 -0.7848
 1883TIP3   OH229843   4.910   5.534  17.011  0.3974 -0.3020  0.4171
 1883TIP3    H129844   4.935   5.523  16.919 -1.0484  1.0135 -0.1781
 1883TIP3    H229845   4.926   5.448  17.050  0.1109 -1.1874 -1.3013
 1884TIP3   OH229846   6.319   3.918  18.636 -0.3786 -0.5047 -0.2479
 1884TIP3    H129847   6.351   3.958  18.555 -1.3098 -1.4818 -1.1312
 1884TIP3    H229848   6.269   3.841  18.607 -1.1292 -0.6151  1.2236
 1885TIP3   OH229849   5.446   3.538  16.562 -0.5298 -0.4731 -0.7233
 1885TIP3    H129850   5.536   3.532  16.592 -1.2445  1.7387  2.3716
 1885TIP3    H229851   5.450   3.597  16.486  0.4600  1.8589  1.0136
 1886TIP3   OH229852   3.894   0.820  17.331  0.0116 -0.4855  0.2054
 1886TIP3    H129853   3.866   0.810  17.240 -1.0810 -0.2355  0.4940
 1886TIP3    H229854   3.950   0.897  17.331 -1.3563  0.5477  0.0083
 1887TIP3   OH229855   0.569   6.698  17.934  0.0265 -0.1141 -0.1109
 1887TIP3    H129856   0.503   6.720  18.000 -1.5449 -0.9482 -1.3477
 1887TIP3    H229857   0.554   6.760  17.863 -0.4659 -1.2737 -1.0505
 1888TIP3   OH229858   4.804   6.500  17.449  0.2282 -0.0148  0.3476
 1888TIP3    H129859   4.866   6.498  17.376  0.4154  1.6585  0.4103
 1888TIP3    H229860   4.728   6.452  17.418  0.1361  1.0333 -1.1398
 1889TIP3   OH229861   0.912   2.958  16.842  0.0542  0.1068 -0.2981
 1889TIP3    H129862   0.906   2.965  16.747 -0.8493 -0.1922 -0.2797
 1889TIP3    H229863   0.897   3.047  16.874  0.9383  0.3126 -0.4521
 1890TIP3   OH229864   2.118   2.280  16.654 -0.0101  0.3643  0.4582
 1890TIP3    H129865   2.166   2.327  16.587 -0.8702 -2.3034 -2.2563
 1890TIP3    H229866   2.061   2.221  16.605  0.3997 -2.8826  3.5336
 1891TIP3   OH229867   6.394   0.730  16.770 -0.1657  0.4055  0.5290
 1891TIP3    H129868   6.347   0.810  16.747 -2.2236 -1.1959 -1.3145
 1891TIP3    H229869   6.356   0.703  16.854 -1.0278  0.2682  0.1067
 1892TIP3   OH229870   5.298   6.737  18.276  0.4646 -0.4403  0.0763
 1892TIP3    H129871   5.365   6.699  18.333  0.4426 -1.5138 -0.5984
 1892TIP3    H229872   5.347   6.782  18.208  0.4880  0.1842  0.4958
 1893TIP3   OH229873   6.518   0.960  15.855  0.6428  0.4193 -0.5861
 1893TIP3    H129874   6.571   0.948  15.777  1.6677 -1.2504  0.2887
 1893TIP3    H229875   6.456   0.886  15.854 -0.2860  1.1758 -0.5310
 1894TIP3   OH229876   4.069   5.332  17.654  0.2758 -0.3968 -0.2585
 1894TIP3    H129877   4.006   5.375  17.712 -0.4307 -2.4426  0.6060
 1894TIP3    H229878   4.120   5.276  17.712  0.8689 -1.0313 -1.3596
 1895TIP3   OH229879   1.305   1.330  18.004  0.8316  0.5783  0.1807
 1895TIP3    H129880   1.357   1.368  18.075  0.0883  1.2566  0.3879
 1895TIP3    H229881   1.360   1.261  17.968  1.2368  0.2277  1.4085
 1896TIP3   OH229882   4.899   5.901  17.544 -0.0069 -0.0851 -0.4179
 1896TIP3    H129883   4.987   5.867  17.561  1.4351  2.1248 -2.5644
 1896TIP3    H229884   4.852   5.892  17.627  1.7552 -2.6028  0.4197
 1897TIP3   OH229885   1.144   2.019  18.899  0.5689  0.2081  0.8046
 1897TIP3    H129886   1.053   2.048  18.894  0.4836 -0.1064  0.4811
 1897TIP3    H229887   1.146   1.938  18.847  1.2803  0.8309 -0.1620
 1898TIP3   OH229888   6.172   3.621  18.076 -0.1345 -0.0321  0.3014
 1898TIP3    H129889   6.182   3.542  18.023  0.0670  1.2458 -1.6648
 1898TIP3    H229890   6.079   3.622  18.100 -0.3075 -0.4479 -0.3396
 1899TIP3   OH229891   2.692   2.846  18.175  0.5817  0.7394  0.3666
 1899TIP3    H129892   2.782   2.814  18.189  1.0003  1.1177 -1.1626
 1899TIP3    H229893   2.636   2.774  18.204  1.3806  0.4159  1.1599
 1900TIP3   OH229894   4.098   1.356  18.779  0.1568 -0.2095 -0.1150
 1900TIP3    H129895   4.143   1.441  18.779 -0.6612  0.2763  2.0211
 1900TIP3    H229896   4.031   1.365  18.711  0.4672  0.6459 -0.3204
 1901TIP3   OH229897   5.244   5.431  17.048 -0.0072  0.1307  0.0161
 1901TIP3    H129898   5.184   5.361  17.022  0.1437  0.3305 -0.8827
 1901TIP3    H229899   5.284   5.460  16.967 -0.5614  1.7301  0.2828
 1902TIP3   OH229900   4.144   4.275  17.091 -0.1950 -0.4355  0.3292
 1902TIP3    H129901   4.109   4.187  17.105 -0.4305 -0.1819  1.4458
 1902TIP3    H229902   4.077   4.320  17.040  0.2602 -1.1179 -0.9001
 1903TIP3   OH229903   1.233   1.727  18.336  0.2829  0.5185  0.4721
 1903TIP3    H129904   1.284   1.807  18.338  1.1828 -0.0582  1.7297
 1903TIP3    H229905   1.298   1.656  18.339 -0.4605 -0.2866 -1.2310
 1904TIP3   OH229906   5.799   0.462  18.438  0.6273  0.4360  0.4762
 1904TIP3    H129907   5.859   0.421  18.375  0.3714  1.2469 -0.3232
 1904TIP3    H229908   5.846   0.459  18.522  2.2241  1.8682 -0.2978
 1905TIP3   OH229909   4.967   3.062  18.526 -0.0404 -0.1536  0.4841
 1905TIP3    H129910   4.936   3.048  18.436 -0.8599 -1.1737  0.9011
 1905TIP3    H229911   4.926   3.144  18.552 -0.7968 -0.4743  0.3335
 1906TIP3   OH229912   0.037   3.371  16.850  0.0494  0.2521  0.1696
 1906TIP3    H129913  -0.042   3.318  16.854 -0.1823  0.5590 -0.2270
 1906TIP3    H229914   0.052   3.385  16.756  0.4153  0.4272  0.2515
 1907TIP3   OH229915   0.281   4.105  18.579 -0.5403  0.0750 -0.0530
 1907TIP3    H129916   0.337   4.030  18.600 -1.5033 -0.2078  1.6692
 1907TIP3    H229917   0.299   4.123  18.486  1.9984 -0.3184  0.2776
 1908TIP3   OH229918   5.410   2.842  18.011  0.3663 -0.2858  0.2819
 1908TIP3    H129919   5.406   2.914  18.073  2.5472 -0.2634  0.4750
 1908TIP3    H229920   5.425   2.764  18.065 -0.2728 -0.6497 -0.0494
 1909TIP3   OH229921   3.974   3.573  18.132  0.3136  0.3357  0.1135
 1909TIP3    H129922   3.929   3.614  18.058  0.1515 -0.1987 -0.0872
 1909TIP3    H229923   3.995   3.485  18.101  0.0669  0.0384  0.7735
 1910TIP3   OH229924   0.384   4.494  16.069  0.0454  0.1967 -0.0913
 1910TIP3    H129925   0.401   4.450  15.986  0.9557 -1.3079  0.8663
 1910TIP3    H229926   0.378   4.587  16.045 -0.9432 -0.3031 -2.0007
 1911TIP3   OH229927   4.769   2.389  18.283  0.4916 -0.2061 -0.2508
 1911TIP3    H129928   4.709   2.455  18.317  1.7166  0.1020  1.4784
 1911TIP3    H229929   4.813   2.432  18.210  1.2632  0.9294  0.8395
 1912TIP3   OH229930   4.850   0.061  18.580  0.0568  0.2188  0.2313
 1912TIP3    H129931   4.882   0.120  18.512 -0.0839 -0.2875 -0.2802
 1912TIP3    H229932   4.758   0.045  18.557 -0.7075  1.9124  1.8578
 1913TIP3   OH229933   0.828   5.258  16.734 -0.1945  0.0286 -0.3554
 1913TIP3    H129934   0.833   5.255  16.638  2.0444 -2.1404 -0.2889
 1913TIP3    H229935   0.778   5.179  16.757  1.8065 -1.1551  0.2425
 1914TIP3   OH229936   3.561   0.349  17.792  0.2062  0.4675 -0.1000
 1914TIP3    H129937   3.530   0.440  17.790  1.4799  0.9942  1.2480
 1914TIP3    H229938   3.615   0.341  17.713  1.1693  1.3432  0.4352
 1915TIP3   OH229939   1.490   2.173  16.852 -0.0788  0.1954  0.0172
 1915TIP3    H129940   1.429   2.179  16.779 -0.1144 -1.4430 -0.1161
 1915TIP3    H229941   1.447   2.220  16.923 -0.2703  1.3704 -0.8310
 1916TIP3   OH229942   6.472   5.495  19.023  0.2419 -0.0883 -0.5792
 1916TIP3    H129943   6.474   5.421  18.961 -1.3769 -0.5866 -0.0755
 1916TIP3    H229944   6.420   5.463  19.097  1.8332  0.6312  0.9116
 1917TIP3   OH229945   3.891   5.394  18.456  0.1496  0.5052  0.5016
 1917TIP3    H129946   3.904   5.401  18.550 -1.1787  0.3797  0.7085
 1917TIP3    H229947   3.943   5.318  18.430  1.9624  1.5810  0.8085
 1918TIP3   OH229948   6.135   1.843  17.699 -0.3310  0.0247  0.0805
 1918TIP3    H129949   6.219   1.868  17.661  0.1423 -0.2311  0.9283
 1918TIP3    H229950   6.149   1.754  17.732 -1.1526 -0.2963 -0.4012
 1919TIP3   OH229951   4.870   1.206  18.011 -0.3502  0.2472 -0.0641
 1919TIP3    H129952   4.871   1.294  17.971 -1.4735 -0.5850 -2.1067
 1919TIP3    H229953   4.790   1.205  18.064  0.2440  0.7902  0.8747
 1920TIP3   OH229954   0.503   3.376  16.400  0.0307 -0.0696  0.0419
 1920TIP3    H129955   0.545   3.418  16.475 -0.4608  0.1894  0.1698
 1920TIP3    H229956   0.574   3.326  16.359 -0.1027 -1.8820  1.8386
 1921TIP3   OH229957   0.395   6.143  15.509  0.2335  0.1271  0.6256
 1921TIP3    H129958   0.395   6.054  15.474 -0.6595  0.1880  0.4465
 1921TIP3    H229959   0.341   6.193  15.448  0.1748  0.6419  1.0887
 1922TIP3   OH229960   1.502   0.490  17.850  0.3054  0.1744 -0.5449
 1922TIP3    H129961   1.507   0.512  17.757 -0.4040 -1.2834 -0.9599
 1922TIP3    H229962   1.436   0.420  17.855  1.4879 -0.9148  0.8322
 1923TIP3   OH229963   3.762   6.342  16.086  0.1073 -0.0170  0.5104
 1923TIP3    H129964   3.814   6.283  16.140 -1.7629 -0.8210  1.5266
 1923TIP3    H229965   3.827   6.391  16.035  1.8542 -0.5866  2.0660
 1924TIP3   OH229966   4.552   5.990  17.100 -0.1426 -0.1606 -0.2205
 1924TIP3    H129967   4.521   6.023  17.185  0.1305 -0.2916 -0.0701
 1924TIP3    H229968   4.633   5.945  17.120  0.7289  1.0958 -0.7627
 1925TIP3   OH229969   2.572   3.085  18.196  0.1757  0.3097  0.1009
 1925TIP3    H129970   2.596   3.100  18.288 -0.6412 -0.2091  0.4097
 1925TIP3    H229971   2.606   2.997  18.178  1.6696  0.9871 -0.5737
 1926TIP3   OH229972   4.931   2.847  17.687 -0.2621  0.3013  0.3511
 1926TIP3    H129973   4.856   2.789  17.702  0.4432 -0.8105 -0.3003
 1926TIP3    H229974   4.986   2.836  17.764 -0.3768  0.4981  0.4603
 1927TIP3   OH229975   5.090   3.431  19.327 -0.3176  0.8169 -0.1785
 1927TIP3    H129976   5.161   3.377  19.293  2.0397  2.3101  1.9829
 1927TIP3    H229977   5.074   3.496  19.259  2.2827  2.0276  0.2582
 1928TIP3   OH229978   3.907   1.875  16.544  0.7305  0.3384  0.0146
 1928TIP3    H129979   3.871   1.939  16.605 -0.1557  0.7685 -0.9402
 1928TIP3    H229980   3.968   1.926  16.490  0.8085  0.1491 -0.0775
 1929TIP3   OH229981   6.410   2.693  19.371 -0.4200  0.1438  0.0253
 1929TIP3    H129982   6.433   2.736  19.289 -0.7374 -0.0491 -0.1661
 1929TIP3    H229983   6.344   2.750  19.411  0.7648  0.9899  0.8467
 1930TIP3   OH229984   0.398   5.957  16.012 -0.8446 -0.8707 -0.2870
 1930TIP3    H129985   0.379   6.050  16.001 -0.5903 -0.5888  1.5011
 1930TIP3    H229986   0.351   5.915  15.939  0.0878  0.7311 -1.9095
 1931TIP3   OH229987   3.700   2.568  17.813 -0.0822  0.7568  0.1752
 1931TIP3    H129988   3.720   2.503  17.881  0.1622 -1.5836 -2.0047
 1931TIP3    H229989   3.630   2.621  17.852  0.9658  0.4176  2.7481
 1932TIP3   OH229990   0.239   5.804  17.867  0.0876 -0.0926 -0.0408
 1932TIP3    H129991   0.268   5.716  17.843 -0.1839 -0.0248 -0.6522
 1932TIP3    H229992   0.306   5.836  17.928 -0.2983 -1.0574  0.9155
 1933TIP3   OH229993   6.277   3.857  19.077 -0.2386  0.1474 -0.1572
 1933TIP3    H129994   6.294   3.928  19.015 -0.2356  0.5545  0.3009
 1933TIP3    H229995   6.360   3.812  19.085 -0.0391  0.5524  0.1125
 1934TIP3   OH229996   4.917   3.185  16.089 -0.6172  0.0088  0.1580
 1934TIP3    H129997   4.886   3.262  16.042 -0.9798 -0.9073 -1.1579
 1934TIP3    H229998   4.842   3.126  16.091 -0.1715 -0.5594  0.6415
 1935TIP3   OH229999   2.888   2.060  18.839 -0.4510  0.0880  0.1833
 1935TIP3    H130000   2.823   2.032  18.904  0.2866 -1.3977  0.3370
 1935TIP3    H230001   2.903   1.982  18.786 -0.0972  0.9221 -0.9747
 1936TIP3   OH230002   2.213   2.304  19.421  0.5725 -0.2841 -0.2789
 1936TIP3    H130003   2.210   2.305  19.516  1.2399 -1.4492 -0.2235
 1936TIP3    H230004   2.160   2.229  19.395  2.4011 -1.5082 -0.6758
 1937TIP3   OH230005   5.139   0.804  18.987 -0.6042  0.5382 -0.4370
 1937TIP3    H130006   5.177   0.891  18.998 -1.3183  0.7702  0.3013
 1937TIP3    H230007   5.045   0.820  18.979 -0.5897 -0.0364 -2.0788
 1938TIP3   OH230008   1.944   1.952  17.716 -0.5134  0.6244 -0.5311
 1938TIP3    H130009   2.023   1.897  17.714  0.6312  2.1763 -0.1907
 1938TIP3    H230010   1.885   1.907  17.776  1.0519  0.5914  1.0713
 1939TIP3   OH230011   5.465   3.662  17.749  0.0687  0.1489  0.3136
 1939TIP3    H130012   5.500   3.630  17.833  0.7562 -0.6280 -0.2557
 1939TIP3    H230013   5.448   3.755  17.764  2.5524  0.6167  0.5752
 1940TIP3   OH230014   4.500   4.997  19.026 -0.0819 -0.2004 -0.0494
 1940TIP3    H130015   4.584   5.024  18.990 -0.0685 -0.2134 -0.0271
 1940TIP3    H230016   4.435   5.035  18.967 -0.0356 -1.7132 -1.1501
 1941TIP3   OH230017   4.627   6.081  17.812  0.1203  0.0264  0.5803
 1941TIP3    H130018   4.539   6.049  17.829 -0.0403  1.3330  2.4862
 1941TIP3    H230019   4.680   6.049  17.885  1.1230 -0.2892 -0.2522
 1942TIP3   OH230020   2.990   0.657  17.633  0.2196  0.1072  0.1746
 1942TIP3    H130021   3.084   0.673  17.636  0.0926  0.9117  0.1182
 1942TIP3    H230022   2.952   0.740  17.603 -0.5281 -0.1267  0.4412
 1943TIP3   OH230023   1.390   1.052  16.749  0.2049  0.5123  0.5948
 1943TIP3    H130024   1.420   0.970  16.711  0.7968  0.8716  0.2701
 1943TIP3    H230025   1.319   1.027  16.808  0.4230 -0.2361  0.5458
 1944TIP3   OH230026   3.510   1.764  19.034 -0.6918 -0.2240  0.2448
 1944TIP3    H130027   3.488   1.749  18.942  1.8160 -0.0436 -0.4636
 1944TIP3    H230028   3.602   1.791  19.032 -0.7858  0.4657  2.7656
 1945TIP3   OH230029   4.743   5.333  17.209  0.2393  0.1747 -0.2481
 1945TIP3    H130030   4.718   5.329  17.117  0.2557 -2.8115 -0.2147
 1945TIP3    H230031   4.690   5.266  17.251  2.9562 -1.2414  1.1638
 1946TIP3   OH230032   2.752   5.256  18.482 -0.0096 -0.7131  0.2399
 1946TIP3    H130033   2.840   5.292  18.497 -0.2342  0.5071 -1.0988
 1946TIP3    H230034   2.767   5.170  18.444  0.6354 -0.3617 -0.3265
 1947TIP3   OH230035   3.626   5.880  17.527 -0.2431 -0.1727  0.4373
 1947TIP3    H130036   3.633   5.881  17.622 -0.2634 -2.8675  0.5466
 1947TIP3    H230037   3.547   5.829  17.510  0.5078 -0.8934 -1.0298
 1948TIP3   OH230038   5.935   4.636  18.798  0.2151  0.3319 -0.1063
 1948TIP3    H130039   5.915   4.648  18.705  1.8504  2.2894 -0.2882
 1948TIP3    H230040   5.850   4.641  18.842 -0.3704  1.9269 -1.3110
 1949TIP3   OH230041   0.010   3.878  18.971 -0.2630  0.9003 -0.1465
 1949TIP3    H130042  -0.067   3.883  18.914  0.0503  1.6341 -0.5110
 1949TIP3    H230043  -0.018   3.921  19.052 -0.7830 -0.3417  0.3625
 1950TIP3   OH230044   0.755   5.824  18.526  0.0787  0.4357  0.1354
 1950TIP3    H130045   0.781   5.746  18.575  1.2262  0.8175  0.1736
 1950TIP3    H230046   0.812   5.823  18.449  1.1182  1.9597  0.8325
 1951TIP3   OH230047   3.127   4.419  16.802  0.5804 -0.2865  0.1989
 1951TIP3    H130048   3.174   4.493  16.840  1.1304  0.6735 -2.1578
 1951TIP3    H230049   3.059   4.459  16.747  1.1887 -1.4603 -1.5119
 1952TIP3   OH230050   4.651   3.433  18.882  0.2180 -0.1678 -0.5288
 1952TIP3    H130051   4.707   3.464  18.953  1.2343 -0.1750 -1.3059
 1952TIP3    H230052   4.652   3.337  18.891 -1.4208 -0.1078  0.7402
 1953TIP3   OH230053   5.480   5.507  16.446 -0.3652 -0.4680 -0.0210
 1953TIP3    H130054   5.524   5.561  16.512  1.0313  0.7576 -1.8408
 1953TIP3    H230055   5.466   5.566  16.372  0.1352 -2.2741 -1.6513
 1954TIP3   OH230056   6.444   3.359  19.257 -0.5037  0.1717 -0.4080
 1954TIP3    H130057   6.486   3.324  19.178 -0.0099 -0.3956  0.0894
 1954TIP3    H230058   6.499   3.327  19.329 -0.9970  0.6062  0.1698
 1955TIP3   OH230059   2.510   1.600  17.426 -0.1319  0.7778 -0.2747
 1955TIP3    H130060   2.595   1.586  17.469  1.3690  0.0967 -3.2395
 1955TIP3    H230061   2.499   1.695  17.425  0.6851  0.8825 -0.0519
 1956TIP3   OH230062   2.175   2.549  18.364 -0.4945 -0.3527  1.0785
 1956TIP3    H130063   2.254   2.517  18.408 -0.1367 -0.3750  0.4306
 1956TIP3    H230064   2.168   2.497  18.284  0.9701  2.0973 -0.8035
 1957TIP3   OH230065   4.474   3.105  18.464 -0.0728 -0.1272 -0.3037
 1957TIP3    H130066   4.494   3.087  18.556  1.2157 -0.4946 -0.6401
 1957TIP3    H230067   4.408   3.174  18.467 -0.5854 -0.6383  0.9039
 1958TIP3   OH230068   5.194   4.290  16.666 -0.1516  0.2553 -0.1284
 1958TIP3    H130069   5.158   4.348  16.599 -0.4459  0.0737 -0.1298
 1958TIP3    H230070   5.117   4.253  16.710  0.0322 -0.1322 -0.1306
 1959TIP3   OH230071   0.371   4.515  16.910 -0.2837 -0.4424 -0.1241
 1959TIP3    H130072   0.413   4.507  16.825  0.3933 -0.7538  0.2347
 1959TIP3    H230073   0.429   4.570  16.962  0.6380 -2.3143  0.9473
 1960TIP3   OH230074   0.689   3.346  17.423 -0.7102  0.1148 -0.4727
 1960TIP3    H130075   0.611   3.320  17.374 -0.8164 -0.9354  0.2154
 1960TIP3    H230076   0.718   3.266  17.466 -0.1932  0.8436  0.5798
 1961TIP3   OH230077   4.068   2.158  16.854 -0.4049 -0.3182  0.0873
 1961TIP3    H130078   4.052   2.184  16.945 -0.0993  0.4084 -0.0571
 1961TIP3    H230079   4.010   2.083  16.840 -1.1697  0.1642  0.5897
 1962TIP3   OH230080   3.651   0.340  19.069  0.0592  0.0632 -0.1190
 1962TIP3    H130081   3.567   0.384  19.059  0.8168  1.8453  0.8638
 1962TIP3    H230082   3.629   0.251  19.097 -1.4680  0.5224  0.2197
 1963TIP3   OH230083   2.229   1.591  16.738  0.1415  0.2174 -0.0826
 1963TIP3    H130084   2.185   1.634  16.665  0.0807 -2.9837 -2.1063
 1963TIP3    H230085   2.322   1.611  16.726 -0.0717  1.6930  0.4703
 1964TIP3   OH230086   3.326   5.293  18.827 -0.1224 -0.4490  0.0352
 1964TIP3    H130087   3.298   5.214  18.872 -1.2960 -1.6468 -2.5366
 1964TIP3    H230088   3.258   5.358  18.848  0.8766 -0.0158  2.2007
 1965TIP3   OH230089   5.048   3.197  19.555  0.2325  0.1215  0.1088
 1965TIP3    H130090   5.091   3.118  19.589 -0.6636 -0.3851  0.0838
 1965TIP3    H230091   5.090   3.211  19.470 -0.5958 -1.2108 -0.5730
 1966TIP3   OH230092   6.041   2.879  17.899  0.3380  0.3655 -0.4418
 1966TIP3    H130093   5.948   2.899  17.893  0.4589  2.1281  2.1525
 1966TIP3    H230094   6.084   2.953  17.857  0.5856  1.3179  1.3921
 1967TIP3   OH230095   4.311   4.201  18.276  0.5146 -0.1886 -0.1954
 1967TIP3    H130096   4.288   4.293  18.288  3.9932  0.5716  2.2997
 1967TIP3    H230097   4.374   4.201  18.203  1.0121 -0.4433  0.2220
 1968TIP3   OH230098   2.139   2.769  19.518  0.4135  0.0276 -0.6231
 1968TIP3    H130099   2.133   2.811  19.432  1.0031  1.0231 -0.1987
 1968TIP3    H230100   2.222   2.800  19.553  0.7133 -1.2628 -0.1466
 1969TIP3   OH230101   5.597   1.435  18.796 -0.0938 -0.0455 -0.4976
 1969TIP3    H130102   5.615   1.528  18.787 -1.2951  0.7850  3.6091
 1969TIP3    H230103   5.541   1.414  18.721  0.1909  2.5025 -1.5331
 1970TIP3   OH230104   0.053   4.490  16.126 -0.1163 -0.7293 -0.2261
 1970TIP3    H130105   0.076   4.402  16.095  1.4485 -0.0220 -1.1352
 1970TIP3    H230106   0.012   4.532  16.051 -2.4655 -1.2044  0.7103
 1971TIP3   OH230107   4.274   6.436  17.202 -0.6224  0.5295  0.3383
 1971TIP3    H130108   4.206   6.495  17.168  2.3869  2.8497 -2.2819
 1971TIP3    H230109   4.289   6.467  17.292 -0.9245  2.0458 -0.1007
 1972TIP3   OH230110   5.196   2.222  17.340 -0.1026  0.0954 -0.0041
 1972TIP3    H130111   5.193   2.214  17.435 -0.3592 -0.4248 -0.0490
 1972TIP3    H230112   5.208   2.132  17.309  0.6600  0.3365 -0.4412
 1973TIP3   OH230113   4.528   1.581  17.731 -0.1029 -0.3407 -0.3224
 1973TIP3    H130114   4.614   1.540  17.727  1.1529  2.0327  0.6009
 1973TIP3    H230115   4.511   1.611  17.642  2.0908  2.9459  0.2080
 1974TIP3   OH230116   1.991   0.564  18.225 -0.3526 -0.3225 -0.0649
 1974TIP3    H130117   2.043   0.486  18.246  0.9762  0.8974  1.4337
 1974TIP3    H230118   1.905   0.546  18.263  0.4682 -0.3689  1.9195
 1975TIP3   OH230119   6.457   6.605  18.573 -0.8320 -0.0109 -0.4358
 1975TIP3    H130120   6.369   6.601  18.612 -0.8484 -0.0911 -0.4806
 1975TIP3    H230121   6.482   6.697  18.579 -0.9757  0.0357 -0.5480
 1976TIP3   OH230122   2.039   4.345  18.332  0.2156  0.1774 -0.0579
 1976TIP3    H130123   2.130   4.354  18.361  0.1612 -2.0784  0.9896
 1976TIP3    H230124   1.992   4.415  18.377  1.2703  0.8521  0.0269
 1977TIP3   OH230125   2.898   4.233  17.322 -0.9306 -0.1964 -0.3980
 1977TIP3    H130126   2.803   4.228  17.325 -0.8561 -1.4085  1.0857
 1977TIP3    H230127   2.924   4.269  17.407 -0.1215  2.6611 -1.7348
 1978TIP3   OH230128   2.694   4.333  19.126 -0.2860  0.1373  0.1219
 1978TIP3    H130129   2.757   4.324  19.054 -0.5097 -1.1980  0.0585
 1978TIP3    H230130   2.614   4.364  19.085 -0.3165 -0.3149 -0.1675
 1979TIP3   OH230131   4.243   0.244  17.962  0.8053  0.0912  0.2973
 1979TIP3    H130132   4.185   0.221  18.035  0.5180 -0.5011 -0.1093
 1979TIP3    H230133   4.234   0.338  17.953 -0.2451 -0.0181  0.1148
 1980TIP3   OH230134   0.550   3.189  18.047  0.4780 -0.6097  0.1340
 1980TIP3    H130135   0.489   3.260  18.064 -1.1292 -1.2195 -2.5772
 1980TIP3    H230136   0.610   3.190  18.122 -0.6566  2.3128  1.1135
 1981TIP3   OH230137   3.359   0.075  16.955 -0.1994  0.5062 -0.6169
 1981TIP3    H130138   3.319   0.156  16.986 -2.4051 -0.1422 -1.6166
 1981TIP3    H230139   3.308   0.050  16.878  1.5499 -0.9135 -1.4038
 1982TIP3   OH230140   3.988   3.166  19.498 -0.5582 -0.1225  0.1722
 1982TIP3    H130141   3.945   3.194  19.417  1.7248  2.7198 -0.2302
 1982TIP3    H230142   3.940   3.211  19.568  0.0598  0.9005 -0.0381
 1983TIP3   OH230143   0.414   4.927  18.317  0.3287 -0.3307 -0.1675
 1983TIP3    H130144   0.324   4.901  18.337  0.0529  0.7783  0.1088
 1983TIP3    H230145   0.458   4.845  18.294 -0.2176 -1.2160  1.7178
 1984TIP3   OH230146   4.430   1.739  18.138 -0.0196 -0.6205  0.2253
 1984TIP3    H130147   4.409   1.662  18.085 -1.7510  0.2805 -0.4972
 1984TIP3    H230148   4.488   1.707  18.207 -0.9168 -2.6023  0.1078
 1985TIP3   OH230149   1.299   5.543  16.899 -0.1897  0.3825 -0.0519
 1985TIP3    H130150   1.241   5.588  16.837  1.2156  0.8138 -1.1095
 1985TIP3    H230151   1.358   5.612  16.930  0.8788 -0.3770 -0.3531
 1986TIP3   OH230152   2.688   5.018  16.968  0.1851 -0.0277 -0.3235
 1986TIP3    H130153   2.781   4.995  16.973  0.0007 -0.5953  1.3965
 1986TIP3    H230154   2.685   5.110  16.993  0.1344 -0.5816  1.9715
 1987TIP3   OH230155   0.555   0.062  18.395  0.1828 -0.2388  0.6081
 1987TIP3    H130156   0.536   0.153  18.418 -0.0213 -0.7434  2.5301
 1987TIP3    H230157   0.471   0.017  18.400  0.3247 -0.5999 -0.0879
 1988TIP3   OH230158   3.400   2.804  17.255 -0.2999 -0.3596 -0.1301
 1988TIP3    H130159   3.414   2.829  17.346 -0.6679 -2.4391  0.5718
 1988TIP3    H230160   3.459   2.859  17.205  0.3445  0.4260  1.4324
 1989TIP3   OH230161   4.642   4.235  18.144  0.1457 -0.3833  0.1529
 1989TIP3    H130162   4.651   4.291  18.221  0.5584 -0.7726  0.3914
 1989TIP3    H230163   4.658   4.146  18.177 -0.5690 -0.6562 -0.2042
 1990TIP3   OH230164   1.476   5.898  18.273 -0.0306  0.0772 -0.2785
 1990TIP3    H130165   1.494   5.921  18.182 -0.4235  2.2488  0.1402
 1990TIP3    H230166   1.394   5.942  18.293  1.1349  1.5064  1.7378
 1991TIP3   OH230167   4.272   2.205  16.297 -0.3261 -0.0986 -0.6913
 1991TIP3    H130168   4.224   2.155  16.363 -2.1323  1.8065 -0.4556
 1991TIP3    H230169   4.260   2.155  16.216 -2.0991 -0.1108 -0.4657
 1992TIP3   OH230170   0.334   2.072  19.245 -0.0812  0.2770  0.7190
 1992TIP3    H130171   0.368   1.998  19.296  2.1438  1.3406  0.8858
 1992TIP3    H230172   0.302   2.032  19.164 -0.6128 -1.0539  1.5466
 1993TIP3   OH230173   5.571   3.710  18.992 -0.0809 -0.7786  0.4145
 1993TIP3    H130174   5.530   3.785  18.949  0.1160  0.3654  2.1258
 1993TIP3    H230175   5.624   3.748  19.062  2.0432 -2.3678 -0.2094
 1994TIP3   OH230176   5.325   2.495  17.882  0.3749  0.3117  0.2087
 1994TIP3    H130177   5.265   2.567  17.904 -0.6486 -0.3061 -0.4502
 1994TIP3    H230178   5.274   2.439  17.824 -0.1803 -2.9185  3.4630
 1995TIP3   OH230179   4.460   6.378  17.004  0.1954  0.2016 -0.0386
 1995TIP3    H130180   4.548   6.404  17.029  0.5553  1.2028 -2.1768
 1995TIP3    H230181   4.404   6.413  17.074  1.3641  0.5311  0.7618
 1996TIP3   OH230182   3.400   1.146  16.073 -0.3137  0.4432  0.1322
 1996TIP3    H130183   3.483   1.118  16.112 -1.3337 -1.9143  0.8475
 1996TIP3    H230184   3.377   1.226  16.120  1.4120  1.0182  0.0636
 1997TIP3   OH230185   5.762   5.277  15.693  0.5819  0.2439  0.8803
 1997TIP3    H130186   5.846   5.324  15.696  0.5313  0.3223  1.0817
 1997TIP3    H230187   5.696   5.346  15.690  0.3798  0.2872  3.6489
 1998TIP3   OH230188   4.634   3.410  19.455 -0.0195  0.1699 -0.3886
 1998TIP3    H130189   4.686   3.386  19.378 -0.7686 -0.4672 -0.7133
 1998TIP3    H230190   4.679   3.366  19.527  0.5564  0.5803 -0.4877
 1999TIP3   OH230191   3.294   0.049  16.061 -0.5757  0.2499  0.1561
 1999TIP3    H130192   3.373   0.044  16.007  0.2021  1.1377  1.1880
 1999TIP3    H230193   3.235  -0.017  16.023  0.8574 -0.8203 -0.2823
 2000TIP3   OH230194   5.679   1.953  18.041  0.3037 -0.9735  0.3061
 2000TIP3    H130195   5.632   1.942  18.123 -0.7032  1.4405  0.1266
 2000TIP3    H230196   5.727   2.035  18.051  0.5243 -0.8578 -1.3562
 2001TIP3   OH230197   2.836   3.288  19.167  0.4294  0.4362  0.0964
 2001TIP3    H130198   2.813   3.369  19.123 -1.1968 -0.2519 -0.3907
 2001TIP3    H230199   2.807   3.219  19.107  2.4236 -0.5404  0.1593
 2002TIP3   OH230200   1.671   5.604  17.449 -0.0518  0.0684 -0.5935
 2002TIP3    H130201   1.711   5.538  17.505 -0.8952  0.9188  1.0925
 2002TIP3    H230202   1.602   5.556  17.402  1.5394 -0.9469 -1.9840
 2003TIP3   OH230203   1.395   0.427  18.185 -0.3909  0.3503 -0.3643
 2003TIP3    H130204   1.459   0.357  18.192 -0.0918  0.6197 -0.3515
 2003TIP3    H230205   1.317   0.394  18.229  0.3242  0.6968  1.2468
 2004TIP3   OH230206   1.044   6.591  17.076 -0.0080  0.6886  0.1282
 2004TIP3    H130207   1.006   6.533  17.142 -0.1869  0.9309  0.2359
 2004TIP3    H230208   1.034   6.679  17.112  0.8993  0.7354  0.2850
 2005TIP3   OH230209   4.915   4.324  18.407  0.4878 -0.1187  0.6732
 2005TIP3    H130210   4.894   4.404  18.360 -1.7480 -0.8936  0.2099
 2005TIP3    H230211   4.899   4.345  18.499 -0.1000 -0.0311  0.5532
 2006TIP3   OH230212   2.411   4.927  18.992 -0.0262 -0.6205  0.0687
 2006TIP3    H130213   2.369   5.008  18.962  1.9545  1.0187  1.4359
 2006TIP3    H230214   2.426   4.877  18.912 -0.6261  0.7170 -0.9237
 2007TIP3   OH230215   1.301   5.963  19.043 -0.3124 -0.3443 -0.3469
 2007TIP3    H130216   1.342   6.006  19.118  0.7869 -0.6255 -0.7638
 2007TIP3    H230217   1.211   5.946  19.071 -0.3504  0.8948  0.3538
 2008TIP3   OH230218   6.651   5.929  16.787  0.0115 -0.3219 -0.3130
 2008TIP3    H130219   6.659   5.839  16.818 -0.8261 -1.7441 -3.7477
 2008TIP3    H230220   6.736   5.948  16.746 -0.3539 -0.1844 -1.0213
 2009TIP3   OH230221   3.207   4.629  17.104 -0.2096 -1.4260 -0.0119
 2009TIP3    H130222   3.277   4.564  17.103 -0.2575 -1.4824  0.1768
 2009TIP3    H230223   3.127   4.578  17.116 -0.3673 -1.4275 -1.0115
 2010TIP3   OH230224   5.966   3.641  19.258  0.0875 -0.0609  0.1838
 2010TIP3    H130225   6.013   3.566  19.293 -0.7139 -1.1733 -0.9924
 2010TIP3    H230226   5.877   3.631  19.291  0.1862  0.9237  0.7909
 2011TIP3   OH230227   6.720   0.039  16.587  0.0227 -0.2933 -0.3876
 2011TIP3    H130228   6.784   0.099  16.550 -0.6816 -0.8403 -2.6460
 2011TIP3    H230229   6.702   0.074  16.674  1.8016  1.0486 -0.4957
 2012TIP3   OH230230   1.047   6.599  18.294 -0.1549  0.2798 -0.8404
 2012TIP3    H130231   0.961   6.562  18.273  0.0070 -0.1331 -0.7883
 2012TIP3    H230232   1.110   6.533  18.264  0.1159  0.1803 -0.0757
 2013TIP3   OH230233   2.064   3.252  16.787 -0.0797  0.0284 -0.0542
 2013TIP3    H130234   2.141   3.222  16.835 -0.0509  0.9766  0.5090
 2013TIP3    H230235   2.087   3.340  16.757  0.0965 -0.6931 -2.2317
 2014TIP3   OH230236   1.594   1.818  17.669 -0.0401  0.0508  0.0174
 2014TIP3    H130237   1.554   1.770  17.741 -1.9340  0.6923 -0.5567
 2014TIP3    H230238   1.660   1.758  17.633 -1.7751 -1.8284 -0.1781
 2015TIP3   OH230239   2.838   6.146  17.765  0.3075  0.1761 -0.8011
 2015TIP3    H130240   2.865   6.219  17.820 -1.2783 -0.0974  0.3926
 2015TIP3    H230241   2.759   6.178  17.721  0.5656 -0.2416 -1.5862
 2016TIP3   OH230242   4.547   0.761  19.064  0.1583 -0.3586 -0.0790
 2016TIP3    H130243   4.517   0.678  19.101 -0.2950 -0.1950 -0.0675
 2016TIP3    H230244   4.599   0.736  18.988 -0.3696 -0.6396 -0.3530
 2017TIP3   OH230245   3.374   5.759  17.496  0.1289  0.4647  0.3108
 2017TIP3    H130246   3.398   5.672  17.527  1.2192  0.8379  0.5949
 2017TIP3    H230247   3.310   5.790  17.559  0.6381  0.3271  0.9095
 2018TIP3   OH230248   6.169   4.757  16.255  0.3373  0.0823  0.2660
 2018TIP3    H130249   6.174   4.689  16.187 -1.4691  0.7201 -0.5784
 2018TIP3    H230250   6.244   4.814  16.237  1.2404 -1.0515  0.2981
 2019TIP3   OH230251   2.854   5.632  15.644 -0.1066 -0.3332  0.0651
 2019TIP3    H130252   2.793   5.702  15.665  0.9001  0.0292  1.9761
 2019TIP3    H230253   2.800   5.553  15.641 -0.8711  0.1738  0.2778
 2020TIP3   OH230254   5.682   6.176  16.609  0.1266 -0.7207 -0.6958
 2020TIP3    H130255   5.745   6.113  16.643 -0.2356 -0.0357  1.3535
 2020TIP3    H230256   5.602   6.160  16.659 -1.0340 -0.8307 -2.4802
 2021TIP3   OH230257   2.262   0.604  19.174 -0.7379 -0.1653  0.2131
 2021TIP3    H130258   2.302   0.547  19.240  0.3126  0.6577  0.3227
 2021TIP3    H230259   2.235   0.545  19.104 -1.2298 -0.9752  1.0763
 2022TIP3   OH230260   0.707   2.255  16.303  0.5206  0.1374  0.3088
 2022TIP3    H130261   0.751   2.262  16.218  0.7640 -2.3273  0.1386
 2022TIP3    H230262   0.614   2.261  16.283  0.5683 -0.6615 -0.1813
 2023TIP3   OH230263   2.766   4.619  17.275 -0.1592 -0.2593  0.3678
 2023TIP3    H130264   2.810   4.704  17.274  1.3925 -0.9986 -1.9108
 2023TIP3    H230265   2.694   4.628  17.213  0.3628 -0.7110 -0.3351
 2024TIP3   OH230266   2.052   1.199  17.481 -0.2387 -0.1807 -0.4540
 2024TIP3    H130267   2.039   1.139  17.408 -0.6536 -0.5306 -0.1040
 2024TIP3    H230268   1.967   1.198  17.527 -1.1513  2.6342 -1.8803
 2025TIP3   OH230269   6.569   6.455  18.043 -0.3296 -0.2935  0.0763
 2025TIP3    H130270   6.657   6.419  18.044  0.3067  1.1889  1.4657
 2025TIP3    H230271   6.540   6.452  18.134  0.0779  3.2852  0.4521
 2026TIP3   OH230272   5.843   2.461  15.838 -0.8595  0.3502  0.1151
 2026TIP3    H130273   5.754   2.496  15.841 -1.0850 -0.2516  1.0423
 2026TIP3    H230274   5.836   2.375  15.880 -0.1397 -0.3915 -1.2026
 2027TIP3   OH230275   5.743   3.085  18.325  0.1902  0.4729  0.2312
 2027TIP3    H130276   5.835   3.091  18.352  0.6133  0.7486 -1.1504
 2027TIP3    H230277   5.740   3.132  18.241 -0.8192 -1.1542 -0.6972
 2028TIP3   OH230278   0.701   1.930  17.295 -0.3963 -0.1218 -0.3083
 2028TIP3    H130279   0.738   2.009  17.335  0.1806 -0.3311 -0.4107
 2028TIP3    H230280   0.729   1.859  17.352 -0.5513 -0.2992 -0.4507
 2029TIP3   OH230281   5.187   6.381  17.641  0.2410 -0.1323  0.4477
 2029TIP3    H130282   5.256   6.364  17.577 -0.3898 -2.3138  0.2392
 2029TIP3    H230283   5.107   6.383  17.590 -0.0932 -0.1283  0.9630
 2030TIP3   OH230284   3.460   1.327  18.438  0.0913  0.2628  0.3186
 2030TIP3    H130285   3.455   1.262  18.508 -1.3528 -0.8742 -0.7815
 2030TIP3    H230286   3.552   1.327  18.411 -0.2647 -3.3282 -1.4213
 2031TIP3   OH230287   6.653   2.945  16.814  0.5116  0.1411  1.2982
 2031TIP3    H130288   6.634   3.037  16.797  0.3458  0.1925  1.7522
 2031TIP3    H230289   6.632   2.900  16.732  0.5513  0.4984  1.0933
 2032TIP3   OH230290   0.113   2.716  18.707  0.3514  0.3641  0.1281
 2032TIP3    H130291   0.121   2.663  18.786  1.4637 -1.1262 -0.9250
 2032TIP3    H230292   0.056   2.788  18.732  0.1566 -0.4175  2.0997
 2033TIP3   OH230293   0.436   4.030  19.268  0.4286  0.3359  0.4737
 2033TIP3    H130294   0.444   3.974  19.191  0.8908  0.8442  0.1402
 2033TIP3    H230295   0.451   4.119  19.234 -1.4102  0.8158  0.7646
 2034TIP3   OH230296   2.162   5.459  16.631  0.3928  0.0935  0.3956
 2034TIP3    H130297   2.137   5.536  16.579 -0.6332 -0.0133  0.7061
 2034TIP3    H230298   2.147   5.385  16.573 -1.8644 -0.1242  1.1504
 2035TIP3   OH230299   4.405   6.189  17.325  0.5296 -0.2681  0.0387
 2035TIP3    H130300   4.317   6.213  17.353 -0.1140 -1.8907 -0.4571
 2035TIP3    H230301   4.437   6.131  17.394  0.9515 -0.1825 -0.0843
 2036TIP3   OH230302   2.479   0.998  19.172  0.5274 -0.2651 -0.1671
 2036TIP3    H130303   2.542   0.990  19.101  1.0468 -0.4570  0.3146
 2036TIP3    H230304   2.481   0.914  19.217  0.4990 -0.0126  0.3184
 2037TIP3   OH230305   4.684   0.507  16.681  0.6450 -0.6729  0.2542
 2037TIP3    H130306   4.682   0.568  16.755 -1.2688  1.8535 -1.6931
 2037TIP3    H230307   4.756   0.538  16.627 -1.5052  1.3558 -1.7131
 2038TIP3   OH230308   3.318   3.961  18.753  0.1646 -0.2088 -0.3403
 2038TIP3    H130309   3.326   3.867  18.734  1.3706 -0.3661  0.8389
 2038TIP3    H230310   3.379   4.003  18.692 -0.8779 -0.1085 -1.3407
 2039TIP3   OH230311   2.458   2.694  18.233  0.1438 -0.4068  0.8849
 2039TIP3    H130312   2.467   2.617  18.288 -1.2771 -0.1030  1.5913
 2039TIP3    H230313   2.380   2.676  18.180 -0.3185  0.6085  1.1948
 2040TIP3   OH230314   4.633   0.543  16.365  0.0544  0.2940  0.1072
 2040TIP3    H130315   4.695   0.502  16.426  0.3611  0.9207  0.2286
 2040TIP3    H230316   4.629   0.634  16.394 -0.4043  0.4145 -0.3309
 2041TIP3   OH230317   1.208   5.798  18.860  0.1382  0.4094  0.0502
 2041TIP3    H130318   1.120   5.831  18.882 -0.4125 -0.1402 -1.2479
 2041TIP3    H230319   1.265   5.840  18.925 -1.1946 -0.0038  1.5825
 2042TIP3   OH230320   4.772   1.197  18.464  0.1435 -0.4387  0.8056
 2042TIP3    H130321   4.696   1.159  18.507 -0.9094  0.7793  0.0947
 2042TIP3    H230322   4.781   1.284  18.502 -0.8613  0.6958 -1.3893
 2043TIP3   OH230323   2.755   0.778  17.920 -0.1036 -0.0781 -0.0783
 2043TIP3    H130324   2.845   0.755  17.942  0.0300  0.8078  0.3837
 2043TIP3    H230325   2.704   0.699  17.939  0.1623  0.2741  2.5176
 2044TIP3   OH230326   0.542   3.441  19.707 -0.2928  0.0795 -0.3388
 2044TIP3    H130327   0.615   3.468  19.763  0.5322 -0.3670 -1.1739
 2044TIP3    H230328   0.528   3.516  19.649  0.4202 -0.3560 -1.0843
 2045TIP3   OH230329   6.375   2.249  18.725 -0.1220  0.1141 -0.2085
 2045TIP3    H130330   6.376   2.182  18.656  0.8745  1.7066 -1.8425
 2045TIP3    H230331   6.288   2.287  18.720 -0.5360 -0.7202  0.4162
 2046TIP3   OH230332   2.467   0.000  17.392 -0.5807  0.5884  0.4993
 2046TIP3    H130333   2.471  -0.024  17.300  0.7689  0.7856  0.4885
 2046TIP3    H230334   2.466   0.096  17.392  0.3632  0.6089  0.6970
 2047TIP3   OH230335   3.985   4.312  17.548  0.1789  0.1127 -0.0545
 2047TIP3    H130336   3.923   4.247  17.582 -1.0781  0.7265 -1.0606
 2047TIP3    H230337   4.054   4.260  17.507  2.0791 -0.6774  3.7139
 2048TIP3   OH230338   6.265   1.549  17.279 -0.0580  0.1355  0.1747
 2048TIP3    H130339   6.305   1.630  17.311 -0.9722  0.1998  1.2095
 2048TIP3    H230340   6.224   1.511  17.357  0.1798 -1.2207 -0.3417
 2049TIP3   OH230341   2.957   5.632  19.170  0.0538 -0.0785  0.4466
 2049TIP3    H130342   2.967   5.718  19.130 -1.1488 -0.7472 -1.4012
 2049TIP3    H230343   3.037   5.620  19.222  0.6354  1.7743  0.0372
 2050TIP3   OH230344   2.338   4.982  19.361  0.0165  0.5254 -0.4275
 2050TIP3    H130345   2.290   4.903  19.384  1.7014 -0.3127  0.4204
 2050TIP3    H230346   2.430   4.957  19.369  0.6007  2.6778  0.2131
 2051TIP3   OH230347   0.306   0.243  18.470  0.4921  0.0877 -0.1147
 2051TIP3    H130348   0.392   0.283  18.456 -0.0049  0.8078 -1.2910
 2051TIP3    H230349   0.251   0.281  18.401 -0.6779 -0.6314  0.4009
 2052TIP3   OH230350   3.860   2.961  16.457 -0.0548  0.0188 -0.0851
 2052TIP3    H130351   3.791   2.909  16.416  0.0946  0.5486 -1.0470
 2052TIP3    H230352   3.887   2.909  16.533 -0.0830 -1.1817 -0.8635
 2053TIP3   OH230353   2.482   1.262  19.496 -0.1200  0.0570 -0.4519
 2053TIP3    H130354   2.571   1.292  19.476  0.1941 -0.1786  0.5344
 2053TIP3    H230355   2.447   1.329  19.555  0.0346 -0.7060  0.5349
 2054TIP3   OH230356   4.920   0.258  16.005 -0.1686  0.6548  0.3362
 2054TIP3    H130357   4.827   0.275  15.986  0.1186 -0.0166 -1.9261
 2054TIP3    H230358   4.967   0.315  15.945  0.9040  0.2778  0.7960
 2055TIP3   OH230359   3.481   1.524  16.396  0.0704 -0.3437  0.4020
 2055TIP3    H130360   3.515   1.455  16.339  0.1154 -0.6631  0.8088
 2055TIP3    H230361   3.401   1.486  16.434 -0.8856  0.4782 -0.7266
 2056TIP3   OH230362   5.543   4.544  16.856  0.3982 -0.4262  0.4004
 2056TIP3    H130363   5.486   4.620  16.864  0.5308  0.0540 -2.3254
 2056TIP3    H230364   5.632   4.580  16.864  0.4231 -0.6390  1.1622
 2057TIP3   OH230365   2.674   5.416  17.994 -0.1539 -0.7203 -0.3213
 2057TIP3    H130366   2.706   5.448  18.079 -2.0904 -3.7176  1.7727
 2057TIP3    H230367   2.753   5.392  17.946  0.9884 -0.6713  1.4381
 2058TIP3   OH230368   5.027   0.745  17.746  0.0714 -0.0831  0.0783
 2058TIP3    H130369   4.992   0.827  17.781 -0.5328 -0.6744  0.8900
 2058TIP3    H230370   4.962   0.717  17.681  0.3981  0.1891 -0.3769
 2059TIP3   OH230371   0.582   5.704  16.387 -0.0414 -0.0296  0.6242
 2059TIP3    H130372   0.657   5.740  16.339  0.3940  0.2797  1.5093
 2059TIP3    H230373   0.541   5.781  16.427  0.7097 -0.4511  2.2759
 2060TIP3   OH230374   4.323   2.815  18.920  0.0062  0.2989  0.5523
 2060TIP3    H130375   4.351   2.752  18.854  0.6399  0.6640  0.4583
 2060TIP3    H230376   4.326   2.766  19.002  3.5348  0.9302  0.9797
 2061TIP3   OH230377   2.111   2.294  19.667 -0.1447 -0.0294 -0.3231
 2061TIP3    H130378   2.030   2.342  19.650  0.0298  0.9688  1.3937
 2061TIP3    H230379   2.086   2.230  19.734  0.6615  0.9758  0.9841
 2062TIP3   OH230380   5.313   2.581  18.725 -0.0878  0.3150  0.8334
 2062TIP3    H130381   5.325   2.632  18.805  1.8865  1.6885 -0.2557
 2062TIP3    H230382   5.385   2.608  18.668 -1.2151 -0.8902 -1.2925
 2063TIP3   OH230383   4.730   3.905  17.735 -0.1197  0.2444 -0.0460
 2063TIP3    H130384   4.796   3.972  17.718  0.4084 -0.5537 -1.3226
 2063TIP3    H230385   4.660   3.924  17.672 -0.3172  0.0601  0.1175
 2064TIP3   OH230386   5.516   5.400  19.188 -0.0415 -0.0686 -0.0901
 2064TIP3    H130387   5.492   5.394  19.280  0.0377  1.7327  0.0943
 2064TIP3    H230388   5.434   5.384  19.141 -0.5567  1.0485  0.3817
 2065TIP3   OH230389   3.262   2.723  17.025  0.0760  0.6315  0.4544
 2065TIP3    H130390   3.328   2.761  17.083  0.0288  0.6729  0.4801
 2065TIP3    H230391   3.256   2.786  16.953  1.6897 -0.4425 -0.6930
 2066TIP3   OH230392   4.991   4.601  19.507 -0.3671 -0.6466 -0.8632
 2066TIP3    H130393   4.935   4.544  19.561  0.8560 -0.8474  0.2415
 2066TIP3    H230394   4.980   4.568  19.418 -0.0941 -2.2865 -0.3182
 2067TIP3   OH230395   3.059   0.904  16.797 -0.1992  0.2621  0.3375
 2067TIP3    H130396   3.053   0.810  16.815  0.4993 -0.2668 -1.8588
 2067TIP3    H230397   2.968   0.935  16.803 -0.6740 -0.8930 -0.4936
 2068TIP3   OH230398   4.289   5.977  18.798  0.3863  0.5545 -0.1496
 2068TIP3    H130399   4.319   5.886  18.803  2.8575  1.2922  0.1000
 2068TIP3    H230400   4.327   6.010  18.717 -1.7889  0.9860 -1.0559
 2069TIP3   OH230401   1.007   0.729  19.188 -0.0764 -0.1765  0.4170
 2069TIP3    H130402   0.939   0.671  19.222 -1.3633 -0.2832 -2.1224
 2069TIP3    H230403   1.082   0.671  19.170  0.1634 -0.3138  1.7601
 2070TIP3   OH230404   5.884   5.843  15.809  0.3951 -0.4797 -0.0034
 2070TIP3    H130405   5.962   5.895  15.792  0.8324 -0.8746  0.7683
 2070TIP3    H230406   5.811   5.903  15.794  0.8104 -0.2567 -1.2620
 2071TIP3   OH230407   4.669   3.393  16.145  0.1723  0.3963  0.3329
 2071TIP3    H130408   4.672   3.366  16.053  0.7929  1.3222  0.0657
 2071TIP3    H230409   4.719   3.475  16.147  0.2985  0.2975  1.5271
 2072TIP3   OH230410   3.182   2.089  17.005  0.1487 -0.4837  0.1787
 2072TIP3    H130411   3.244   2.021  17.031  1.4241  0.4699 -0.2587
 2072TIP3    H230412   3.166   2.073  16.911  0.6947 -0.0116 -0.0016
 2073TIP3   OH230413   5.405   0.707  17.292  0.5453  0.1085 -0.4383
 2073TIP3    H130414   5.478   0.714  17.353 -0.5495 -1.4413  1.1864
 2073TIP3    H230415   5.425   0.630  17.238 -0.3180 -1.0463  0.7889
 2074TIP3   OH230416   1.999   1.456  18.421 -0.0769  0.1088 -0.1440
 2074TIP3    H130417   2.031   1.489  18.505  0.3121 -0.5752 -0.0119
 2074TIP3    H230418   1.920   1.407  18.442  0.2826 -0.4685 -0.0992
 2075TIP3   OH230419   6.540   3.420  17.483 -0.1680  0.1842 -0.3057
 2075TIP3    H130420   6.454   3.449  17.454 -0.2974  0.1640  0.0505
 2075TIP3    H230421   6.591   3.500  17.492 -0.7593  0.4181  1.4451
 2076TIP3   OH230422   0.700   2.199  17.205  0.3439 -0.0724 -0.5101
 2076TIP3    H130423   0.738   2.281  17.237 -0.6547 -0.1448  0.9068
 2076TIP3    H230424   0.617   2.225  17.165 -1.0148 -0.5651  1.8135
 2077TIP3   OH230425   4.004   6.521  15.977  0.3534 -0.3313 -0.0527
 2077TIP3    H130426   4.036   6.434  15.957 -0.9207 -0.4915 -1.5279
 2077TIP3    H230427   4.003   6.567  15.893 -0.2294  0.6881  0.4885
 2078TIP3   OH230428   6.628   1.025  19.210 -0.2153 -0.6355  0.1079
 2078TIP3    H130429   6.548   0.998  19.254  0.5749 -0.9140  1.4529
 2078TIP3    H230430   6.600   1.089  19.144 -1.6451 -1.5978 -0.2449
 2079TIP3   OH230431   0.043   5.683  15.478 -0.5349 -0.1283 -0.5154
 2079TIP3    H130432   0.029   5.777  15.484  0.3938 -0.0518  1.4459
 2079TIP3    H230433   0.133   5.670  15.508 -0.9974 -1.7163  0.3165
 2080TIP3   OH230434   4.191   4.199  19.060  0.0785 -0.1744  0.2411
 2080TIP3    H130435   4.242   4.135  19.011 -0.1235 -0.2498  0.1288
 2080TIP3    H230436   4.122   4.148  19.103 -0.4686  0.0495 -0.3622
 2081TIP3   OH230437   1.384   4.583  17.980  0.7306 -0.4631  0.0630
 2081TIP3    H130438   1.367   4.494  17.949  0.8694 -0.9529  1.3516
 2081TIP3    H230439   1.479   4.590  17.984  0.7226 -0.2222 -0.1237
 2082TIP3   OH230440   3.035   4.352  17.532 -0.0095 -0.0021  0.4857
 2082TIP3    H130441   3.089   4.288  17.579  0.3572 -0.8835 -1.0609
 2082TIP3    H230442   3.097   4.401  17.478 -0.6759 -0.8952 -1.1655
 2083TIP3   OH230443   3.745   3.091  18.663  0.7203  0.4418  0.2301
 2083TIP3    H130444   3.736   3.056  18.752  1.2120  4.0560  1.9236
 2083TIP3    H230445   3.662   3.135  18.646  0.6538 -0.1606 -1.1293
 2084TIP3   OH230446   0.376   4.707  16.484 -0.0096  0.2725  0.2433
 2084TIP3    H130447   0.358   4.667  16.569 -0.2739 -1.0083 -0.3887
 2084TIP3    H230448   0.298   4.690  16.432  0.9175 -0.7360 -0.8855
 2085TIP3   OH230449   2.973   1.622  17.761 -0.9240 -0.7384  0.1210
 2085TIP3    H130450   3.017   1.540  17.787 -0.7796 -1.1563 -1.3880
 2085TIP3    H230451   3.044   1.679  17.733 -0.9149  0.3220  2.1225
 2086TIP3   OH230452   3.361   3.470  16.663  0.6932  0.2457  0.6530
 2086TIP3    H130453   3.404   3.438  16.584  1.7309 -0.5729  1.5133
 2086TIP3    H230454   3.420   3.536  16.698  0.2117  0.6488  0.7121
 2087TIP3   OH230455   3.627   1.981  17.540 -0.2637 -0.9061  0.2025
 2087TIP3    H130456   3.674   2.058  17.509 -0.3749  0.1893  2.5856
 2087TIP3    H230457   3.547   2.016  17.580 -0.3880 -2.2566  1.2012
 2088TIP3   OH230458   2.709   2.303  17.224 -0.6587  0.4277 -0.2257
 2088TIP3    H130459   2.683   2.380  17.275 -0.2557  1.1780 -1.1271
 2088TIP3    H230460   2.803   2.315  17.209 -0.2170 -1.1021  1.0518
 2089TIP3   OH230461   4.748   6.554  16.078  0.2358 -0.6086  0.4629
 2089TIP3    H130462   4.710   6.604  16.005 -0.0913 -1.4806  0.0290
 2089TIP3    H230463   4.772   6.621  16.142 -1.4114  0.0319  0.4639
 2090TIP3   OH230464   4.769   6.726  16.893 -0.2569 -0.0845  0.1222
 2090TIP3    H130465   4.841   6.674  16.927  0.3626  1.3304  1.0801
 2090TIP3    H230466   4.758   6.697  16.802  2.1498  0.3338 -0.3470
 2091TIP3   OH230467   4.325   5.360  17.466 -0.0072 -0.0012  0.5177
 2091TIP3    H130468   4.247   5.392  17.420 -0.1980 -1.2770 -0.1088
 2091TIP3    H230469   4.398   5.383  17.409  0.1523  1.5928  1.3161
 2092TIP3   OH230470   2.293   1.633  17.982 -0.3946 -0.2567  0.3112
 2092TIP3    H130471   2.279   1.557  17.924 -0.8158  1.5272 -2.0615
 2092TIP3    H230472   2.222   1.627  18.046 -0.8843 -1.4350 -0.3027
 2093TIP3   OH230473   6.376   5.171  17.544 -0.0225  0.9718 -0.6023
 2093TIP3    H130474   6.317   5.115  17.493 -0.3754  0.7901 -0.0081
 2093TIP3    H230475   6.423   5.223  17.479 -0.1387  0.4229 -1.1326
 2094TIP3   OH230476   3.268   4.684  18.331  0.3404 -0.0531 -0.5541
 2094TIP3    H130477   3.349   4.733  18.348  0.4529 -0.6573  0.8212
 2094TIP3    H230478   3.277   4.605  18.384 -0.9870 -0.3084 -0.6794
 2095TIP3   OH230479   4.090   5.491  18.956 -0.3793 -0.1518 -0.2824
 2095TIP3    H130480   4.067   5.562  19.015 -2.1183 -1.1499  0.3022
 2095TIP3    H230481   4.047   5.414  18.993  1.1051 -1.4330 -1.1327
 2096TIP3   OH230482   3.631   4.175  18.200 -0.0747  0.0476 -0.4192
 2096TIP3    H130483   3.617   4.190  18.107 -0.9512 -0.5809 -0.3982
 2096TIP3    H230484   3.584   4.246  18.243  1.6752  1.3151 -0.4532
 2097TIP3   OH230485   0.419   0.341  17.306 -0.1595 -0.1405 -0.9085
 2097TIP3    H130486   0.473   0.321  17.229  0.0509  0.5940 -0.9614
 2097TIP3    H230487   0.341   0.287  17.295  0.4210 -0.9870 -0.9891
 2098TIP3   OH230488   4.578   3.213  17.026 -0.3098  0.1137  0.5750
 2098TIP3    H130489   4.513   3.251  16.967 -1.0236  0.8125  1.7438
 2098TIP3    H230490   4.610   3.135  16.981 -0.0991  1.1408 -1.1371
 2099TIP3   OH230491   0.173   3.561  18.008 -0.0996 -0.0176  0.0329
 2099TIP3    H130492   0.118   3.552  17.930 -0.6178 -0.0206  0.3908
 2099TIP3    H230493   0.112   3.549  18.081  0.3606  0.0938  0.4379
 2100TIP3   OH230494   2.850   0.035  18.768  0.0048 -0.0973  0.0207
 2100TIP3    H130495   2.838   0.094  18.693 -0.1101 -1.8550 -1.3905
 2100TIP3    H230496   2.928  -0.016  18.746 -0.5689 -1.2781  0.6747
 2101TIP3   OH230497   3.755   0.625  18.759  0.1144 -0.5531  0.3909
 2101TIP3    H130498   3.828   0.622  18.697 -0.8203  0.4662 -0.8333
 2101TIP3    H230499   3.789   0.671  18.835  1.1637 -1.4190  0.4716
 2102TIP3   OH230500   0.179   0.509  17.923 -0.1513 -0.1929  0.3933
 2102TIP3    H130501   0.126   0.429  17.922 -0.1629 -0.1991  1.2176
 2102TIP3    H230502   0.146   0.561  17.850  0.5413 -1.3850 -0.8216
 2103TIP3   OH230503   0.250   4.966  17.736  0.6631  0.3390  0.2508
 2103TIP3    H130504   0.174   4.933  17.784  2.4173 -2.1790  1.5413
 2103TIP3    H230505   0.302   4.888  17.718  1.6082  1.5824 -3.1589
 2104TIP3   OH230506   0.304   2.917  17.890 -0.1749 -0.3215 -0.7220
 2104TIP3    H130507   0.265   3.004  17.892 -2.1381 -1.1285 -1.1945
 2104TIP3    H230508   0.310   2.892  17.982  0.5417  0.3505 -0.5743
 2105TIP3   OH230509   6.178   4.597  17.669  0.5143 -0.3030 -0.2643
 2105TIP3    H130510   6.177   4.689  17.642 -0.2743  0.0971  1.0259
 2105TIP3    H230511   6.200   4.601  17.762  1.2051 -1.4863 -0.3609
 2106TIP3   OH230512   2.274   0.475  18.490  0.5420  0.3196  0.4025
 2106TIP3    H130513   2.333   0.487  18.565  0.8355  1.0992  0.0559
 2106TIP3    H230514   2.186   0.479  18.528  0.6977 -0.2369  0.8379
 2107TIP3   OH230515   4.825   5.637  18.497  0.6885  0.2333 -0.4506
 2107TIP3    H130516   4.899   5.642  18.437 -0.2737  2.5536 -1.5972
 2107TIP3    H230517   4.750   5.615  18.441  0.4034 -1.7733  0.6370
 2108TIP3   OH230518   4.021   4.412  18.269  0.8175 -0.1324 -0.3848
 2108TIP3    H130519   3.932   4.446  18.267  0.9729  0.4915  1.2564
 2108TIP3    H230520   4.031   4.365  18.187 -1.4230 -1.2205 -0.1015
 2109TIP3   OH230521   3.592   6.383  17.518  0.0547 -0.0773 -0.2141
 2109TIP3    H130522   3.665   6.366  17.578 -0.9376 -0.9912  0.7829
 2109TIP3    H230523   3.531   6.437  17.569 -0.5422 -0.3767 -0.6028
 2110TIP3   OH230524   2.854   1.109  17.898 -0.1819  0.0056  0.2195
 2110TIP3    H130525   2.900   1.193  17.907 -0.0054 -0.3202  3.3392
 2110TIP3    H230526   2.916   1.051  17.855  1.7911  0.0754  2.7467
 2111TIP3   OH230527   5.162   4.537  16.575  0.2982 -0.5698  0.5783
 2111TIP3    H130528   5.241   4.590  16.585  0.1231 -0.2971  0.5366
 2111TIP3    H230529   5.159   4.516  16.481 -0.6102  0.9049  0.2437
 2112TIP3   OH230530   5.186   3.756  17.544 -0.0806 -0.7479  0.3426
 2112TIP3    H130531   5.137   3.833  17.574  0.0239 -0.5565  0.0157
 2112TIP3    H230532   5.124   3.708  17.489  0.0316 -0.6154  0.1011
 2113TIP3   OH230533   2.241   3.933  19.310  0.0941  0.2286  0.0775
 2113TIP3    H130534   2.296   4.001  19.273 -0.5316  1.1488  0.7708
 2113TIP3    H230535   2.164   3.931  19.253  0.1974 -0.0394 -0.0524
 2114TIP3   OH230536   5.384   5.766  18.120  0.3280 -0.5103  0.0710
 2114TIP3    H130537   5.387   5.858  18.093  1.2453 -1.2268 -2.6582
 2114TIP3    H230538   5.440   5.761  18.197  0.3679  1.1914  0.1896
 2115TIP3   OH230539   6.503   1.629  19.272 -0.2396 -0.4369 -0.1090
 2115TIP3    H130540   6.409   1.641  19.260 -0.4378 -1.6864  0.0666
 2115TIP3    H230541   6.511   1.577  19.352  0.5665 -0.9316 -0.4991
 2116TIP3   OH230542   4.537   2.601  17.668  0.1521 -0.2880  0.0183
 2116TIP3    H130543   4.516   2.652  17.746  0.0242 -0.2941 -0.0103
 2116TIP3    H230544   4.632   2.603  17.662  0.1333  0.1706 -0.1300
 2117TIP3   OH230545   6.703   1.907  16.238 -0.5072  0.4661  0.4818
 2117TIP3    H130546   6.738   1.991  16.268  0.0831  0.7065 -0.8108
 2117TIP3    H230547   6.629   1.889  16.297 -0.3643  1.6662  1.0550
 2118TIP3   OH230548   0.180   5.059  16.843  0.0284 -0.6962  0.2997
 2118TIP3    H130549   0.118   5.118  16.802  1.6356  0.8233 -0.0378
 2118TIP3    H230550   0.217   5.109  16.916 -0.9560 -2.4737  2.1317
 2119TIP3   OH230551   1.047   3.434  19.594 -0.3160  0.1537 -0.0075
 2119TIP3    H130552   1.138   3.455  19.613 -0.5622  1.0807  0.1930
 2119TIP3    H230553   1.000   3.517  19.604 -1.0544 -0.1287 -0.9376
 2120TIP3   OH230554   2.978   5.139  15.869  0.0993  0.0896  0.1007
 2120TIP3    H130555   2.952   5.231  15.859 -1.4275 -0.3231  0.0980
 2120TIP3    H230556   3.042   5.125  15.799 -0.6326  0.8060 -0.7394
 2121TIP3   OH230557   3.949   3.617  18.386 -0.1486  0.2339  0.1595
 2121TIP3    H130558   3.982   3.538  18.427 -0.6427  0.2187  0.5485
 2121TIP3    H230559   3.945   3.597  18.293 -2.6406 -1.1107  0.4813
 2122TIP3   OH230560   4.175   3.236  18.317  0.1825  0.1412  0.3598
 2122TIP3    H130561   4.182   3.234  18.412 -0.3541 -0.9028  0.3931
 2122TIP3    H230562   4.084   3.263  18.300  0.3521  0.5870  0.1300
 2123TIP3   OH230563   6.272   4.476  17.023  0.1778  0.6763  0.2137
 2123TIP3    H130564   6.334   4.546  17.004  1.2149 -0.8381 -2.4939
 2123TIP3    H230565   6.219   4.468  16.944 -0.6731 -0.8401  0.8948
 2124TIP3   OH230566   1.836   4.609  17.140  0.0031  0.1607 -0.3016
 2124TIP3    H130567   1.826   4.678  17.205  1.7270  1.1705 -1.0358
 2124TIP3    H230568   1.747   4.585  17.116 -0.6924  3.0269 -0.9450
 2125TIP3   OH230569   2.485   4.468  18.970  0.3324 -0.0854  0.0175
 2125TIP3    H130570   2.398   4.449  19.005  0.7236 -0.2706  0.9100
 2125TIP3    H230571   2.468   4.510  18.886 -0.6094 -1.0664 -0.3128
 2126TIP3   OH230572   1.024   4.278  17.716 -0.6314 -0.2690 -0.5982
 2126TIP3    H130573   0.955   4.212  17.715  0.7439 -1.8125  0.7905
 2126TIP3    H230574   1.097   4.236  17.670 -0.5211  1.2708 -1.9115
 2127TIP3   OH230575   2.895   6.166  17.018  0.0394  0.4416 -0.3877
 2127TIP3    H130576   2.969   6.215  17.054 -0.0177  0.0458  0.2836
 2127TIP3    H230577   2.930   6.079  16.999 -1.1094 -1.1557  3.7788
 2128TIP3   OH230578   0.583   5.371  18.395  0.0435  0.0291 -0.0353
 2128TIP3    H130579   0.633   5.327  18.464 -1.6693 -1.1800  0.4815
 2128TIP3    H230580   0.570   5.303  18.329  0.9368  0.9508 -1.2062
 2129TIP3   OH230581   0.402   6.309  17.578 -0.7794  0.1871 -0.0289
 2129TIP3    H130582   0.328   6.329  17.521  0.1709 -0.8936 -1.7293
 2129TIP3    H230583   0.420   6.392  17.623 -2.5052  0.6759 -0.1436
 2130TIP3   OH230584   1.140   4.632  17.832  0.5781 -0.0298  0.2953
 2130TIP3    H130585   1.059   4.653  17.879 -0.2873 -1.8500 -0.2996
 2130TIP3    H230586   1.197   4.592  17.898  0.2992 -0.3503  0.3461
 2131TIP3   OH230587   2.274   3.017  17.339 -0.0635 -0.0068  0.8655
 2131TIP3    H130588   2.278   2.968  17.421  1.5535 -2.0528 -0.3526
 2131TIP3    H230589   2.357   3.000  17.296 -1.1127  0.4363 -1.5117
 2132TIP3   OH230590   5.004   2.913  18.103 -0.8045  0.0012  0.5676
 2132TIP3    H130591   4.939   2.846  18.123 -1.1167  0.1838  0.1726
 2132TIP3    H230592   4.962   2.995  18.129 -0.2032  0.0052  1.5938
 2133TIP3   OH230593   5.428   6.747  15.897 -0.1907  0.0788  0.6630
 2133TIP3    H130594   5.511   6.763  15.941  0.3522 -0.6274 -0.0515
 2133TIP3    H230595   5.391   6.834  15.882  1.0712  0.5105 -0.1955
 2134TIP3   OH230596   3.116   2.674  19.280 -0.0462  0.0953 -0.2123
 2134TIP3    H130597   3.113   2.612  19.353 -1.6649  0.1271 -0.2163
 2134TIP3    H230598   3.134   2.620  19.203  1.6003  0.0520  0.1674
 2135TIP3   OH230599   0.396   2.021  16.288  0.5725 -0.0089  0.5546
 2135TIP3    H130600   0.463   1.960  16.318 -1.1211 -1.4621  1.6226
 2135TIP3    H230601   0.341   1.969  16.229 -1.5582  0.0081  2.3393
 2136TIP3   OH230602   4.014   4.874  18.404  0.4582 -0.1046  0.5416
 2136TIP3    H130603   4.068   4.877  18.483  0.6934  1.1655  0.3454
 2136TIP3    H230604   4.008   4.965  18.375 -1.7836 -0.2046  0.5453
 2137TIP3   OH230605   4.664   5.405  19.252 -0.4229 -0.2322  0.9927
 2137TIP3    H130606   4.693   5.377  19.165 -2.3358  2.6676 -0.7468
 2137TIP3    H230607   4.610   5.332  19.284 -0.1132 -1.1400 -0.4589
 2138TIP3   OH230608   1.739   0.150  18.033 -0.1929 -0.4353  0.4221
 2138TIP3    H130609   1.813   0.197  17.995  0.1984 -2.6125 -1.8122
 2138TIP3    H230610   1.682   0.218  18.069  0.7489  1.6465 -1.7849
 2139TIP3   OH230611   2.122   5.484  17.861  0.0005  0.3561  0.1575
 2139TIP3    H130612   2.107   5.555  17.924  1.2242  1.7796 -1.0596
 2139TIP3    H230613   2.199   5.438  17.896  1.3712  1.8303 -0.7884
 2140TIP3   OH230614   0.215   1.768  17.151  0.1674 -0.3034 -0.3105
 2140TIP3    H130615   0.292   1.725  17.115 -0.1193 -0.6627 -0.5071
 2140TIP3    H230616   0.147   1.754  17.084 -0.5453 -1.5084  0.6228
 2141TIP3   OH230617   2.618   5.721  19.042 -0.0203 -0.6225 -0.4995
 2141TIP3    H130618   2.530   5.706  19.007 -1.5384 -2.0150  3.4124
 2141TIP3    H230619   2.654   5.634  19.056  0.8812 -0.1106  0.4929
 2142TIP3   OH230620   4.001   0.662  18.637  0.1511  0.5785  0.0748
 2142TIP3    H130621   4.059   0.598  18.676 -0.7080 -1.3874 -1.6801
 2142TIP3    H230622   4.056   0.712  18.578  0.3303 -0.4584 -0.6624
 2143TIP3   OH230623   5.754   0.073  16.525  0.6077  0.1027 -0.2904
 2143TIP3    H130624   5.736   0.066  16.431  0.9629  0.4659 -0.3880
 2143TIP3    H230625   5.792   0.160  16.536 -0.1021  0.3464  0.2992
 2144TIP3   OH230626   2.867   0.872  19.101 -0.3411  0.6090  0.3122
 2144TIP3    H130627   2.945   0.919  19.131  1.0260 -0.3457 -1.5283
 2144TIP3    H230628   2.822   0.936  19.045 -0.3166  0.8255  0.5359
 2145TIP3   OH230629   1.467   3.651  19.606 -0.2778 -0.1326  0.0649
 2145TIP3    H130630   1.496   3.563  19.582 -0.7407 -0.6460  1.3089
 2145TIP3    H230631   1.541   3.707  19.582  0.8706 -1.1255  1.1221
 2146TIP3   OH230632   0.535   2.093  18.274  0.4730  0.0980  0.3264
 2146TIP3    H130633   0.478   2.137  18.337 -0.9853  1.1652 -1.6366
 2146TIP3    H230634   0.482   2.021  18.240  0.2652  1.0081 -1.4060
 2147TIP3   OH230635   4.718   2.810  17.338 -0.0109 -0.0019  0.1461
 2147TIP3    H130636   4.628   2.819  17.305 -0.1155 -0.8167  0.1902
 2147TIP3    H230637   4.723   2.872  17.410 -1.0550 -1.0636  1.1818
 2148TIP3   OH230638   4.516   4.232  18.738  0.2607  0.2633 -0.1946
 2148TIP3    H130639   4.555   4.168  18.797  1.4742  0.1365 -1.1005
 2148TIP3    H230640   4.476   4.180  18.668 -0.0714  0.4540 -0.1506
 2149TIP3   OH230641   4.295   6.540  16.570 -0.2585 -0.5480  0.2501
 2149TIP3    H130642   4.219   6.577  16.526  0.7332  0.5449 -0.5760
 2149TIP3    H230643   4.367   6.549  16.508  0.6552 -1.1758  1.1710
 2150TIP3   OH230644   3.721   6.685  19.063  0.1349  0.4745  0.7614
 2150TIP3    H130645   3.626   6.698  19.067 -0.0306 -0.7187  1.1882
 2150TIP3    H230646   3.742   6.635  19.141  0.8511 -0.7052 -0.1406
 2151TIP3   OH230647   0.632   1.829  19.444  0.0835 -0.2399 -0.0306
 2151TIP3    H130648   0.648   1.916  19.408 -0.0616 -0.5731 -0.9366
 2151TIP3    H230649   0.563   1.793  19.388  0.6156 -1.1871 -0.0942
 2152TIP3   OH230650   3.296   5.554  19.218 -0.5942  0.0428 -0.3558
 2152TIP3    H130651   3.337   5.543  19.132  1.8341  0.2724  0.6941
 2152TIP3    H230652   3.311   5.470  19.262 -0.3853  0.4636  0.3910
 2153TIP3   OH230653   2.260   0.857  19.028 -0.7070  0.0846  0.4150
 2153TIP3    H130654   2.238   0.791  19.093 -1.2188  2.5105  2.8911
 2153TIP3    H230655   2.356   0.863  19.031 -0.6464 -0.5641  0.0786
 2154TIP3   OH230656   2.971   2.817  18.015  0.0782  0.2553 -0.0859
 2154TIP3    H130657   3.030   2.794  18.087 -0.3231  0.8649  0.4418
 2154TIP3    H230658   2.907   2.746  18.013 -0.5200  0.7454  0.8377
 2155TIP3   OH230659   2.951   4.011  18.555 -0.4445 -0.5309 -0.3875
 2155TIP3    H130660   2.930   3.927  18.594 -0.2498 -0.4231 -0.0491
 2155TIP3    H230661   2.895   4.016  18.477  0.5047 -1.5506 -1.1708
 2156TIP3   OH230662   0.723   0.167  16.942 -0.2669 -0.3471  0.2929
 2156TIP3    H130663   0.717   0.082  16.900  0.4885 -1.0293  1.5225
 2156TIP3    H230664   0.731   0.229  16.869  0.9043 -1.4711 -0.5705
 2157TIP3   OH230665   2.503   1.502  19.030  0.2279 -0.1947 -0.8072
 2157TIP3    H130666   2.550   1.443  19.089 -0.0163  1.0775  0.7207
 2157TIP3    H230667   2.450   1.444  18.975 -2.2419 -1.3815  2.5461
 2158TIP3   OH230668   3.562   4.177  18.762 -0.3578  0.1669  0.1766
 2158TIP3    H130669   3.579   4.091  18.724 -0.0972 -0.8011  2.3011
 2158TIP3    H230670   3.582   4.239  18.692  1.9296 -1.3883 -0.6663
 2159TIP3   OH230671   4.593   6.261  18.393 -0.2381 -0.3795  0.1498
 2159TIP3    H130672   4.547   6.323  18.450 -1.2392 -0.2092 -0.8006
 2159TIP3    H230673   4.605   6.184  18.448 -0.2050  0.1621  0.9286
 2160TIP3   OH230674   3.106   3.463  16.308  0.0437 -0.4898 -0.1970
 2160TIP3    H130675   3.051   3.507  16.243  1.9802  0.1713 -1.4473
 2160TIP3    H230676   3.070   3.492  16.392  0.6587  2.8590 -0.9519
 2161TIP3   OH230677   6.198   4.162  16.826 -0.4308  0.4123 -0.3303
 2161TIP3    H130678   6.123   4.103  16.830  0.9697 -1.3965  0.4020
 2161TIP3    H230679   6.211   4.191  16.916  1.6423 -1.8744  0.2150
 2162TIP3   OH230680   5.951   0.377  17.318 -0.1770 -0.4540 -0.2705
 2162TIP3    H130681   5.867   0.376  17.363 -0.3737 -1.3748 -0.6218
 2162TIP3    H230682   5.992   0.294  17.342  0.7751  0.1283  0.1524
 2163TIP3   OH230683   2.460   0.274  17.452 -0.0591 -0.3048  0.6961
 2163TIP3    H130684   2.400   0.325  17.506 -0.6922  0.8353 -0.9865
 2163TIP3    H230685   2.506   0.339  17.399  0.9252 -1.3331  0.2388
 2164TIP3   OH230686   4.171   2.451  19.398 -0.1886  0.0692  0.3791
 2164TIP3    H130687   4.129   2.394  19.463  1.3851  0.6640  1.9970
 2164TIP3    H230688   4.104   2.515  19.375 -0.8563 -0.3129  1.2148
 2165TIP3   OH230689   1.499   1.407  18.192  0.3778  0.0439 -0.3158
 2165TIP3    H130690   1.538   1.442  18.113 -1.0994  0.3601 -0.9443
 2165TIP3    H230691   1.546   1.450  18.264  1.6105 -0.1178 -1.0120
 2166TIP3   OH230692   5.971   3.599  17.066 -0.1978 -0.2360 -0.0212
 2166TIP3    H130693   5.975   3.620  17.160 -1.4500 -1.3298  0.3084
 2166TIP3    H230694   5.917   3.668  17.028 -0.5356 -0.3452  0.2523
 2167TIP3   OH230695   0.337   3.826  17.519 -0.3418  0.0872 -0.1242
 2167TIP3    H130696   0.253   3.855  17.483 -0.2628  0.1107 -0.2886
 2167TIP3    H230697   0.378   3.778  17.448  0.4554  1.3751 -0.5606
 2168TIP3   OH230698   0.357   5.550  18.078 -0.2525 -0.5316 -0.0163
 2168TIP3    H130699   0.400   5.469  18.104  2.4461  1.1260  1.1504
 2168TIP3    H230700   0.379   5.612  18.147  0.9751  2.1642 -2.6239
 2169TIP3   OH230701   5.547   1.680  17.329  0.8344  0.2322 -0.1410
 2169TIP3    H130702   5.492   1.676  17.407  0.1762  0.2044 -0.5973
 2169TIP3    H230703   5.496   1.634  17.262  1.1888  0.6556 -0.7025
 2170TIP3   OH230704   4.527   4.791  17.025  0.3758  0.6915  0.0663
 2170TIP3    H130705   4.615   4.754  17.024 -0.5763 -2.0752  2.4973
 2170TIP3    H230706   4.491   4.765  17.110 -2.9544  1.2718 -1.0147
 2171TIP3   OH230707   6.263   5.663  16.603 -0.1708  0.5732  0.1314
 2171TIP3    H130708   6.288   5.664  16.696  0.7309 -1.4257 -0.0243
 2171TIP3    H230709   6.296   5.579  16.571  0.5711  1.7145 -2.3084
 2172TIP3   OH230710   0.018   5.306  17.175  0.0329  0.5340 -0.2256
 2172TIP3    H130711   0.023   5.389  17.128 -0.7775  1.7874  1.7645
 2172TIP3    H230712   0.094   5.256  17.145 -1.5755  0.2794 -4.4281
 2173TIP3   OH230713   6.356   6.738  17.812 -0.1371  0.7981 -0.2549
 2173TIP3    H130714   6.279   6.732  17.869 -0.2270  2.1094 -0.1957
 2173TIP3    H230715   6.320   6.756  17.725  0.0213 -0.7946 -0.6832
 2174TIP3   OH230716   0.540   5.663  17.094 -0.1630 -0.5195 -0.3505
 2174TIP3    H130717   0.603   5.595  17.119 -0.2536 -0.0838  1.1847
 2174TIP3    H230718   0.592   5.730  17.050  0.2423 -0.7290 -0.1901
 2175TIP3   OH230719   3.198   4.612  19.199 -0.2254 -0.0530 -0.4895
 2175TIP3    H130720   3.117   4.590  19.245 -0.6962  1.6928 -0.3983
 2175TIP3    H230721   3.198   4.555  19.122 -0.6299 -1.3216  0.4187
 2176TIP3   OH230722   1.121   5.765  16.267 -0.4304 -0.0118 -0.3026
 2176TIP3    H130723   1.043   5.810  16.298  0.0653  1.0515 -0.5731
 2176TIP3    H230724   1.162   5.731  16.347 -1.4871 -1.1392 -0.2124
 2177TIP3   OH230725   1.601   6.712  15.875  0.9740 -0.2116 -0.0185
 2177TIP3    H130726   1.547   6.727  15.797  0.2197 -0.7970  0.3814
 2177TIP3    H230727   1.682   6.759  15.856  0.7442 -0.2058 -1.0931
 2178TIP3   OH230728   2.676   0.781  18.550  0.0458  0.5985 -0.0359
 2178TIP3    H130729   2.653   0.789  18.457  0.4602  1.6432 -0.0629
 2178TIP3    H230730   2.748   0.842  18.562 -1.5170  2.2867  1.4701
 2179TIP3   OH230731   3.865   3.835  17.789 -0.1718 -0.4498 -0.3972
 2179TIP3    H130732   3.841   3.825  17.881 -1.9911  1.9326 -0.5160
 2179TIP3    H230733   3.940   3.895  17.791  0.7156 -1.5322 -0.4312
 2180TIP3   OH230734   1.593   0.141  17.659  0.1140 -0.3150 -0.8836
 2180TIP3    H130735   1.555   0.165  17.574  0.2242 -1.7212 -1.3544
 2180TIP3    H230736   1.687   0.145  17.646  0.1416 -1.2939 -1.0815
 2181TIP3   OH230737   2.302   3.660  18.833 -0.6996 -0.0754 -0.4604
 2181TIP3    H130738   2.304   3.722  18.906 -0.7914 -1.4646  0.7936
 2181TIP3    H230739   2.217   3.674  18.792 -1.3885 -0.4195  0.7932
 2182TIP3   OH230740   0.158   1.980  17.304 -0.3473 -0.3189  0.1506
 2182TIP3    H130741   0.246   2.013  17.322 -0.8800  0.7945  0.8561
 2182TIP3    H230742   0.172   1.898  17.257  1.0652 -0.5579  0.9334
 2183TIP3   OH230743   4.695   6.471  18.610  0.0574  0.1029 -0.1014
 2183TIP3    H130744   4.676   6.397  18.667 -1.2968  0.6194  0.1567
 2183TIP3    H230745   4.790   6.469  18.598 -0.0726 -2.6283 -1.4270
 2184TIP3   OH230746   5.401   0.486  18.615  0.0058 -0.5182  0.0765
 2184TIP3    H130747   5.313   0.492  18.654 -0.0678 -1.8226  0.1345
 2184TIP3    H230748   5.444   0.567  18.642 -1.0132 -0.0836  0.4619
 2185TIP3   OH230749   3.102   4.184  16.956  0.3145  0.3886 -0.1744
 2185TIP3    H130750   3.128   4.253  16.895 -0.5857 -0.6306 -1.7739
 2185TIP3    H230751   3.151   4.204  17.036  0.9359  2.2203 -0.9419
 2186TIP3   OH230752   3.422   5.705  19.403 -0.2452 -0.1273  0.3689
 2186TIP3    H130753   3.348   5.746  19.448 -1.0244  0.9265 -1.7285
 2186TIP3    H230754   3.381   5.653  19.333  0.9718  0.6363 -0.9543
 2187TIP3   OH230755   0.133   1.107  19.278  0.5553 -0.3120 -0.2025
 2187TIP3    H130756   0.182   1.025  19.286  1.5821  0.4323  1.8912
 2187TIP3    H230757   0.042   1.080  19.272  0.9654 -1.6341 -0.9241
 2188TIP3   OH230758   1.901   6.221  18.949  0.1755  0.2945  0.2298
 2188TIP3    H130759   1.925   6.219  18.856 -1.5525  0.1594 -0.2451
 2188TIP3    H230760   1.938   6.303  18.981  1.8403 -0.2208 -0.2471
 2189TIP3   OH230761   0.021   5.239  16.705  0.0186 -0.3205 -0.5972
 2189TIP3    H130762   0.073   5.319  16.705  1.4709 -1.1578 -3.2146
 2189TIP3    H230763  -0.019   5.236  16.619 -2.2315 -1.1214  0.3945
 2190TIP3   OH230764   6.525   1.076  16.437 -0.3455  0.6369  0.1129
 2190TIP3    H130765   6.555   1.160  16.402  0.6027 -0.5117 -2.0668
 2190TIP3    H230766   6.593   1.051  16.500  1.0525  0.1476 -1.4995
 2191TIP3   OH230767   6.258   1.086  17.226 -0.1460 -0.4351  0.5182
 2191TIP3    H130768   6.164   1.081  17.207 -0.0053  0.5547 -0.5292
 2191TIP3    H230769   6.263   1.095  17.321 -1.1031 -0.7123  0.6054
 2192TIP3   OH230770   3.902   1.161  19.014 -0.2156  0.2512  0.3476
 2192TIP3    H130771   3.862   1.161  19.101 -0.3861 -0.4943  0.2718
 2192TIP3    H230772   3.994   1.183  19.031  0.3588 -2.3269  1.0239
 2193TIP3   OH230773   6.351   4.148  19.302  0.3221  0.1849  0.6383
 2193TIP3    H130774   6.308   4.224  19.263  0.6701  0.6584  1.1641
 2193TIP3    H230775   6.418   4.123  19.239  0.3508  0.4494  0.5647
 2194TIP3   OH230776   4.516   0.338  16.969  0.0903 -0.5421 -0.7047
 2194TIP3    H130777   4.484   0.248  16.973 -0.9761 -0.1583 -0.1879
 2194TIP3    H230778   4.515   0.359  16.876  1.2669 -1.3673 -0.9213
 2195TIP3   OH230779   1.523   4.907  19.257 -0.0886  0.6938  0.0115
 2195TIP3    H130780   1.464   4.929  19.185 -0.8008 -0.0233  0.3722
 2195TIP3    H230781   1.471   4.854  19.317  0.8940  0.1002  0.3747
 2196TIP3   OH230782   3.128   4.035  19.343  0.5941 -0.1032  0.6344
 2196TIP3    H130783   3.070   4.033  19.267  0.8748  0.0743  0.4136
 2196TIP3    H230784   3.108   4.117  19.387 -0.8217 -0.9937  1.7525
 2197TIP3   OH230785   3.152   3.552  18.267 -0.3849  0.4874  0.2377
 2197TIP3    H130786   3.191   3.541  18.353  0.9504  0.8943 -0.2884
 2197TIP3    H230787   3.174   3.641  18.241 -1.7052  0.7508 -0.0894
 2198TIP3   OH230788   3.651   5.492  16.490  0.1336  0.1582  0.1099
 2198TIP3    H130789   3.581   5.466  16.430  0.7663 -1.7368  0.1301
 2198TIP3    H230790   3.696   5.563  16.444 -0.2866 -0.2717 -1.0105
 2199TIP3   OH230791   1.038   4.697  18.644 -0.2506  0.2674  0.0201
 2199TIP3    H130792   1.111   4.682  18.705 -1.5090 -0.3696  1.4285
 2199TIP3    H230793   0.995   4.775  18.677 -2.1651 -1.2132  1.2779
 2200TIP3   OH230794   6.204   3.501  18.372 -0.3849 -0.1739  0.0273
 2200TIP3    H130795   6.144   3.544  18.311  0.3309  1.0670  0.1732
 2200TIP3    H230796   6.270   3.461  18.315  0.7016  1.6098 -0.0449
 2201TIP3   OH230797   5.761   5.858  16.140 -0.0550 -0.5303 -0.2074
 2201TIP3    H130798   5.730   5.904  16.063  0.9044  1.1461  0.3631
 2201TIP3    H230799   5.735   5.912  16.214  1.2608 -0.7751  0.4761
 2202TIP3   OH230800   5.595   0.006  17.966  0.0533  0.7940  0.1398
 2202TIP3    H130801   5.601   0.075  18.032  0.8674  0.6113  0.2744
 2202TIP3    H230802   5.506  -0.029  17.975 -1.0232  3.0007 -1.1644
 2203TIP3   OH230803   4.338   0.582  16.809 -0.4641 -0.6928  0.0460
 2203TIP3    H130804   4.267   0.590  16.873 -1.2904 -0.9493 -0.8037
 2203TIP3    H230805   4.417   0.575  16.862 -1.0676 -0.3949  1.0261
 2204TIP3   OH230806   1.459   5.691  18.457 -0.3821 -0.3269  1.0905
 2204TIP3    H130807   1.376   5.705  18.503 -1.1927  0.1457 -0.4644
 2204TIP3    H230808   1.461   5.759  18.390  0.7961 -0.9512  0.4623
 2205TIP3   OH230809   5.730   6.337  17.321  0.1431  0.5759  0.7615
 2205TIP3    H130810   5.685   6.309  17.241  0.5360 -0.9620  1.0449
 2205TIP3    H230811   5.679   6.411  17.353 -0.2885  0.9151 -0.6613
 2206TIP3   OH230812   4.116   5.871  16.839 -0.3244  0.3898  0.2896
 2206TIP3    H130813   4.071   5.788  16.822 -0.0329  0.2742  0.0715
 2206TIP3    H230814   4.199   5.845  16.879  0.0553  0.5451 -0.3871
 2207TIP3   OH230815   2.568   2.247  18.081  0.3081 -0.1749 -0.1783
 2207TIP3    H130816   2.514   2.221  18.155  1.7568 -0.4789  0.8322
 2207TIP3    H230817   2.529   2.328  18.050 -1.1969 -0.8152 -0.0272
 2208TIP3   OH230818   6.019   2.372  17.888  0.5383 -0.2621 -0.0608
 2208TIP3    H130819   6.057   2.453  17.920 -0.2919 -0.3148  1.0973
 2208TIP3    H230820   5.944   2.399  17.834  0.9023 -0.2360 -0.5629
 2209TIP3   OH230821   3.679   3.731  18.428 -0.1817  0.9435  0.3297
 2209TIP3    H130822   3.774   3.747  18.421 -0.1189  0.6263  0.4468
 2209TIP3    H230823   3.672   3.642  18.462 -0.4789  2.0062  3.3564
 2210TIP3   OH230824   2.933   0.294  19.303  0.2342 -0.5812  0.3291
 2210TIP3    H130825   3.005   0.337  19.257  0.8124 -1.3376  0.5026
 2210TIP3    H230826   2.860   0.296  19.241 -0.2669  2.0373  0.8948
 2211TIP3   OH230827   4.525   0.109  19.100  0.5972 -0.0332  0.0885
 2211TIP3    H130828   4.527   0.023  19.057  0.1221  0.3420 -0.7099
 2211TIP3    H230829   4.516   0.089  19.193  0.3493 -0.8500 -0.1050
 2212TIP3   OH230830   0.415   6.455  16.785 -0.0225 -0.2072  0.6202
 2212TIP3    H130831   0.366   6.518  16.837  1.1325 -0.5513  2.1840
 2212TIP3    H230832   0.498   6.498  16.765 -0.8000  0.3152 -1.8845
 2213TIP3   OH230833   0.997   1.450  18.516  0.1681 -0.0732 -0.1064
 2213TIP3    H130834   0.995   1.409  18.603  1.2066  0.9744  0.4448
 2213TIP3    H230835   1.078   1.418  18.477 -0.5877 -0.9999 -0.9396
 2214TIP3   OH230836   3.751   3.790  18.043 -0.3705  0.6886 -0.1225
 2214TIP3    H130837   3.788   3.836  18.119 -1.8770 -0.9837  1.7066
 2214TIP3    H230838   3.705   3.859  17.994  2.7908  2.3230 -1.0872
 2215TIP3   OH230839   2.114   2.082  19.882 -0.4189 -0.1842  0.1016
 2215TIP3    H130840   2.081   2.058  19.968  0.1820 -0.5600  0.2336
 2215TIP3    H230841   2.091   2.008  19.825 -1.3879  0.3489 -0.2095
 2216TIP3   OH230842   2.740   6.372  16.106  0.3738 -0.4968  0.1469
 2216TIP3    H130843   2.654   6.365  16.065 -0.1203 -0.8226  1.2010
 2216TIP3    H230844   2.792   6.423  16.044 -0.0696 -1.7300 -1.2958
 2217TIP3   OH230845   5.294   4.427  19.224 -0.7431 -0.4485  0.4276
 2217TIP3    H130846   5.210   4.457  19.260 -0.8069 -0.8833  0.6534
 2217TIP3    H230847   5.290   4.332  19.230 -0.4593 -0.4994 -0.0834
 2218TIP3   OH230848   0.965   5.957  17.333  0.3326  0.0315 -0.4262
 2218TIP3    H130849   1.031   6.025  17.345  0.5442 -0.4527  1.3951
 2218TIP3    H230850   0.990   5.913  17.252  0.5145  1.7267 -1.3407
 2219TIP3   OH230851   0.577   0.885  19.131 -0.2457 -0.5410  0.5654
 2219TIP3    H130852   0.598   0.879  19.037 -0.9078 -1.7682  0.4662
 2219TIP3    H230853   0.575   0.794  19.160 -0.8220 -0.2058  1.6006
 2220TIP3   OH230854   5.503   0.397  17.175 -0.0105  0.2408 -0.5575
 2220TIP3    H130855   5.407   0.395  17.182 -0.0445  0.1441 -0.9883
 2220TIP3    H230856   5.530   0.308  17.198 -0.1446 -0.1713 -1.8949
 2221TIP3   OH230857   2.023   4.880  16.972  0.7354 -0.1102 -0.1926
 2221TIP3    H130858   2.090   4.845  17.030  0.8676 -0.7316 -0.7073
 2221TIP3    H230859   1.973   4.803  16.944 -0.9733  0.4530  1.1191
 2222TIP3   OH230860   4.440   1.688  17.471  0.9015 -0.2764 -0.1820
 2222TIP3    H130861   4.356   1.646  17.456  0.0696  1.2469  0.0184
 2222TIP3    H230862   4.434   1.772  17.426  1.7895  0.4442  0.9594
 2223TIP3   OH230863   5.435   1.881  17.981  0.1675 -0.0796  0.1704
 2223TIP3    H130864   5.517   1.930  17.985  0.1597 -0.1151  1.3134
 2223TIP3    H230865   5.370   1.939  18.021 -0.2469 -0.2699 -0.2159
 2224TIP3   OH230866   5.077   0.374  18.719  0.3761  0.5728 -0.1198
 2224TIP3    H130867   5.083   0.466  18.744  0.5180  0.0925  1.8507
 2224TIP3    H230868   4.991   0.346  18.749  0.7300 -0.1654  0.2426
 2225TIP3   OH230869   2.705   3.739  19.261 -0.2562 -0.2410 -0.3514
 2225TIP3    H130870   2.643   3.769  19.194  1.6978  0.6311 -1.8561
 2225TIP3    H230871   2.743   3.659  19.225  0.7634  0.1928 -0.2524
 2226TIP3   OH230872   6.568   6.629  19.099 -0.0091 -0.0537  0.0671
 2226TIP3    H130873   6.581   6.698  19.033  1.5991  0.4392  0.8336
 2226TIP3    H230874   6.545   6.677  19.178  0.1432 -0.4691  0.3614
 2227TIP3   OH230875   3.909   2.789  16.922  0.7012 -0.0480 -0.1921
 2227TIP3    H130876   3.840   2.804  16.858  0.0933  1.5852  0.8027
 2227TIP3    H230877   3.871   2.727  16.985  0.4875  0.1031 -0.1719
 2228TIP3   OH230878   1.557   0.772  17.411  0.0626 -0.0619 -0.2452
 2228TIP3    H130879   1.545   0.804  17.501 -0.5933 -0.4466 -0.1844
 2228TIP3    H230880   1.633   0.819  17.379  1.0958 -0.8499  0.9465
 2229TIP3   OH230881   0.962   2.205  19.409  0.3522  0.1037 -0.6338
 2229TIP3    H130882   1.019   2.248  19.344 -0.6832  0.7515 -1.1380
 2229TIP3    H230883   0.947   2.273  19.475  0.4577 -0.1846 -0.3145
 2230TIP3   OH230884   2.380   0.309  18.106  0.2983 -0.1871 -0.7433
 2230TIP3    H130885   2.397   0.316  18.012 -1.8405  1.2026 -1.1123
 2230TIP3    H230886   2.425   0.229  18.133  0.1008 -1.2134 -3.1740
 2231TIP3   OH230887   5.980   2.729  16.343 -0.1937 -0.1270 -0.0272
 2231TIP3    H130888   6.013   2.818  16.347 -0.9004  0.1311  0.1783
 2231TIP3    H230889   6.058   2.674  16.355  0.3472  0.4440 -0.8290
 2232TIP3   OH230890   2.019   2.101  18.290 -0.1605  0.0034 -0.2901
 2232TIP3    H130891   1.985   2.184  18.323 -0.5410 -0.4859  0.5599
 2232TIP3    H230892   1.995   2.036  18.356 -0.1020 -0.8373 -1.0734
 2233TIP3   OH230893   6.175   4.071  19.489 -0.0398  0.0937  0.2576
 2233TIP3    H130894   6.162   3.984  19.451  0.4825 -0.3980  1.1744
 2233TIP3    H230895   6.261   4.098  19.457 -0.4081  0.4933 -0.4200
 2234TIP3   OH230896   3.059   2.971  17.161  0.4172  0.3479  0.1841
 2234TIP3    H130897   2.991   3.014  17.109  0.0312 -0.3805  0.0788
 2234TIP3    H230898   3.138   3.022  17.143 -0.2700  1.7506  1.0080
 2235TIP3   OH230899   2.522   3.787  16.956 -0.3053 -0.1883 -0.5584
 2235TIP3    H130900   2.571   3.858  17.000  1.9482 -0.8570 -1.8022
 2235TIP3    H230901   2.524   3.811  16.863  1.1127 -2.1506 -1.0993
 2236TIP3   OH230902   2.373   6.284  16.519  0.0800 -0.1846 -0.4697
 2236TIP3    H130903   2.328   6.233  16.451 -0.6003 -1.0064  0.5795
 2236TIP3    H230904   2.358   6.236  16.600  2.4407 -0.2205  0.0236
 2237TIP3   OH230905   1.656   0.244  18.469  0.5896  0.2323  0.2271
 2237TIP3    H130906   1.609   0.319  18.504 -0.9578 -0.6827  0.1784
 2237TIP3    H230907   1.699   0.205  18.545  1.4778  1.1830  0.2385
 2238TIP3   OH230908   6.614   1.403  16.575  0.4530 -0.2701 -0.0935
 2238TIP3    H130909   6.642   1.351  16.651  0.1227 -0.0138  0.2089
 2238TIP3    H230910   6.570   1.478  16.614 -0.4874 -0.5749 -0.5587
 2239TIP3   OH230911   4.079   2.849  17.882 -0.0102  0.0781 -0.5103
 2239TIP3    H130912   3.991   2.838  17.919  0.3392  0.1020  0.3527
 2239TIP3    H230913   4.071   2.819  17.791 -0.4957 -1.7001  0.0723
 2240TIP3   OH230914   5.552   0.698  16.746  0.0736 -0.0515  0.0624
 2240TIP3    H130915   5.614   0.666  16.681  0.3565 -0.0783  0.3412
 2240TIP3    H230916   5.583   0.786  16.767  1.1570 -0.7492  1.5994
 2241TIP3   OH230917   0.359   2.632  15.975 -0.0618 -0.0340 -0.9491
 2241TIP3    H130918   0.299   2.613  16.048 -0.0426 -0.3782 -1.0222
 2241TIP3    H230919   0.427   2.566  15.983  1.2759  1.3851  0.1863
 2242TIP3   OH230920   2.395   3.975  17.618  0.0917  0.6010  0.0943
 2242TIP3    H130921   2.354   4.062  17.620  1.6973  1.3760  0.3471
 2242TIP3    H230922   2.475   3.984  17.669  1.9151 -0.1658 -2.3937
 2243TIP3   OH230923   6.572   5.060  16.370  0.5630 -0.1400 -0.0903
 2243TIP3    H130924   6.610   5.147  16.385  0.6082 -0.1010 -0.4183
 2243TIP3    H230925   6.588   5.012  16.451  2.5508 -0.5755 -0.6905
 2244TIP3   OH230926   0.969   5.421  17.648  0.0632 -0.5866  0.2636
 2244TIP3    H130927   1.064   5.431  17.648  0.3102 -2.4854 -1.0259
 2244TIP3    H230928   0.942   5.452  17.562 -0.3471 -1.1540  0.1880
 2245TIP3   OH230929   1.390   6.714  18.474 -0.1341  0.4196 -0.2334
 2245TIP3    H130930   1.448   6.651  18.433  0.5046  0.0304  1.1853
 2245TIP3    H230931   1.385   6.686  18.566 -1.8204  0.9934 -0.1073
 2246TIP3   OH230932   5.390   1.021  17.904  0.6070  0.4487  0.0995
 2246TIP3    H130933   5.367   0.976  17.823 -1.0345  1.0906  0.1703
 2246TIP3    H230934   5.479   0.990  17.925  0.4986 -0.7958 -1.1695
 2247TIP3   OH230935   1.002   2.952  17.600 -0.2354 -0.2555  0.6180
 2247TIP3    H130936   1.017   2.942  17.506 -1.0032 -4.1038  0.7379
 2247TIP3    H230937   1.090   2.952  17.638  0.1491  2.4433 -0.0283
 2248TIP3   OH230938   3.066   6.415  18.830 -0.1116  0.1287  0.2134
 2248TIP3    H130939   3.115   6.495  18.812 -2.5043  1.7269  0.3286
 2248TIP3    H230940   3.026   6.392  18.746 -1.1968  0.3508  0.6496
 2249TIP3   OH230941   1.075   4.612  17.549  0.0372  0.3370 -0.1828
 2249TIP3    H130942   1.108   4.632  17.636  1.5112 -1.0199 -0.3967
 2249TIP3    H230943   1.130   4.663  17.490  2.6510 -2.6782 -0.6102
 2250TIP3   OH230944   0.618   5.829  17.367 -0.4456  0.0250  0.1383
 2250TIP3    H130945   0.551   5.830  17.436  2.2681  2.6208  2.9948
 2250TIP3    H230946   0.642   5.921  17.355  1.5246 -0.6668 -1.9228
 2251TIP3   OH230947   1.932   4.511  18.791  0.5312  0.5758 -0.0665
 2251TIP3    H130948   1.865   4.578  18.805  0.0499  0.0182  0.3301
 2251TIP3    H230949   1.939   4.503  18.695 -0.6588 -0.0355 -0.1137
 2252TIP3   OH230950   6.614   1.990  17.885  0.1747  0.0699  0.2692
 2252TIP3    H130951   6.531   1.948  17.907  0.9472 -2.3542 -1.1398
 2252TIP3    H230952   6.634   1.961  17.797  2.3370  0.9439  0.3893
 2253TIP3   OH230953   0.870   3.668  18.206 -0.5375  0.0239 -0.3098
 2253TIP3    H130954   0.826   3.753  18.210 -0.0044  0.3044 -0.2033
 2253TIP3    H230955   0.802   3.604  18.224 -1.1395  0.3627 -1.3116
 2254TIP3   OH230956   3.779   2.038  18.478  0.2560  0.3242 -0.0626
 2254TIP3    H130957   3.711   2.075  18.534 -0.2649 -0.3682 -0.2136
 2254TIP3    H230958   3.773   1.943  18.493 -0.5681  0.0238 -2.0080
 2255TIP3   OH230959   6.482   3.368  17.142 -0.3403  0.7067  0.0944
 2255TIP3    H130960   6.467   3.295  17.202  1.8351  0.2192  0.1157
 2255TIP3    H230961   6.556   3.341  17.089  0.8498  3.0687  0.4257
 2256TIP3   OH230962   4.936   6.272  19.171  0.0483  0.9170 -0.3394
 2256TIP3    H130963   4.988   6.275  19.251  0.6907 -2.0818 -0.5155
 2256TIP3    H230964   4.982   6.328  19.110  0.7225  1.5927  0.7544
 2257TIP3   OH230965   6.567   4.159  17.786 -0.0584 -0.1129 -0.4115
 2257TIP3    H130966   6.580   4.106  17.864  0.4422  0.1532 -0.3124
 2257TIP3    H230967   6.647   4.147  17.735 -0.5733 -0.6621 -1.1127
 2258TIP3   OH230968   2.754   4.624  18.406 -1.1330 -0.0656  0.2795
 2258TIP3    H130969   2.792   4.639  18.320 -2.2152  2.8083  0.1970
 2258TIP3    H230970   2.828   4.628  18.466 -0.6258 -0.1856 -0.3316
 2259TIP3   OH230971   3.076   6.005  16.297 -0.2147 -0.4573 -0.5374
 2259TIP3    H130972   3.050   6.053  16.218 -1.6982  0.1239  0.2681
 2259TIP3    H230973   3.051   6.062  16.369  0.0380 -1.4901  0.3869
 2260TIP3   OH230974   4.737   3.660  19.094  0.2823 -0.7314 -0.2436
 2260TIP3    H130975   4.783   3.735  19.132 -0.5333 -0.6871  0.7070
 2260TIP3    H230976   4.719   3.685  19.004 -0.0128  0.2419  0.0732
 2261TIP3   OH230977   1.980   3.358  19.672  0.4167 -0.4197 -0.0246
 2261TIP3    H130978   1.942   3.441  19.643  1.1145 -0.6565 -1.7395
 2261TIP3    H230979   1.954   3.350  19.764 -1.9709  0.3688 -0.5625
 2262TIP3   OH230980   1.555   5.739  16.050 -0.4497  0.2374  0.3446
 2262TIP3    H130981   1.499   5.811  16.080  0.0700 -0.1627  2.4494
 2262TIP3    H230982   1.625   5.782  16.001 -1.4379  0.9130 -0.5361
 2263TIP3   OH230983   3.366   6.547  16.518 -0.2293  0.1172 -0.2360
 2263TIP3    H130984   3.333   6.457  16.512 -0.4458  0.1955 -0.2255
 2263TIP3    H230985   3.359   6.581  16.429 -0.5351  0.2584 -0.1591
 2264TIP3   OH230986   1.087   2.496  17.836 -0.2151  1.0142 -0.3662
 2264TIP3    H130987   1.174   2.524  17.865  0.4212  1.1931 -2.3082
 2264TIP3    H230988   1.101   2.408  17.802 -0.9989  0.6799  0.1565
 2265TIP3   OH230989   6.716   5.905  18.338 -0.2219 -0.1376 -0.6640
 2265TIP3    H130990   6.784   5.963  18.372  0.4855 -1.2272 -0.1903
 2265TIP3    H230991   6.737   5.896  18.245  1.5353 -2.0944 -0.1392
 2266TIP3   OH230992   5.363   3.889  17.900 -0.2851  0.2220 -0.3484
 2266TIP3    H130993   5.299   3.851  17.960 -1.1418  1.7617 -0.2385
 2266TIP3    H230994   5.313   3.950  17.846  0.6239 -0.4822 -2.0793
 2267TIP3   OH230995   4.820   2.567  16.702 -0.7851 -0.1296 -0.0802
 2267TIP3    H130996   4.844   2.484  16.662 -0.3010 -0.6619  1.2893
 2267TIP3    H230997   4.772   2.543  16.781 -0.1970  0.8897  0.6041
 2268TIP3   OH230998   5.113   5.997  16.735  0.0179  0.2893  0.3128
 2268TIP3    H130999   5.203   6.022  16.760  0.4801 -2.5560  1.8834
 2268TIP3    H231000   5.121   5.964  16.646  0.2954  1.1407  0.0166
 2269TIP3   OH231001   6.007   2.546  18.805 -0.1542 -1.0744  0.4498
 2269TIP3    H131002   5.972   2.578  18.888  1.8539  0.5769  0.7419
 2269TIP3    H231003   5.946   2.579  18.739  0.0198  0.4770  1.0330
 2270TIP3   OH231004   3.956   0.217  17.705  0.8642 -0.7461 -0.2999
 2270TIP3    H131005   3.942   0.124  17.684  1.8886 -0.8035 -0.8127
 2270TIP3    H231006   3.880   0.261  17.668  1.0000 -1.2442 -1.2145
 2271TIP3   OH231007   1.869   4.496  17.714  0.1477  0.2688 -0.4114
 2271TIP3    H131008   1.918   4.425  17.755  1.6690  1.6261  0.2553
 2271TIP3    H231009   1.783   4.494  17.755  0.0111 -1.4133 -0.7086
 2272TIP3   OH231010   6.190   6.071  17.881  0.7463  0.1317  0.1318
 2272TIP3    H131011   6.152   6.019  17.951  0.1688  0.1654 -0.1544
 2272TIP3    H231012   6.169   6.162  17.904 -0.3008  0.0824 -0.5840
 2273TIP3   OH231013   0.754   0.571  15.683 -0.3100 -0.2103  0.2617
 2273TIP3    H131014   0.664   0.601  15.671  0.1879  0.2892 -3.1546
 2273TIP3    H231015   0.757   0.484  15.643  0.6611 -0.4250  0.7434
 2274TIP3   OH231016   5.863   0.247  19.459 -0.4145  0.5089  0.1437
 2274TIP3    H131017   5.784   0.207  19.423 -0.5812 -1.4062  2.3822
 2274TIP3    H231018   5.830   0.313  19.520 -0.4066 -0.9484  1.8058
 2275TIP3   OH231019   5.342   2.687  18.972  0.0640 -0.5662 -0.0218
 2275TIP3    H131020   5.308   2.773  18.996 -0.5618 -0.5368 -0.9688
 2275TIP3    H231021   5.436   2.693  18.989  0.0138  0.2817 -0.0168
 2276TIP3   OH231022   1.944   0.354  16.442  0.6634 -0.6800  0.3469
 2276TIP3    H131023   1.984   0.379  16.525  0.6732 -0.7306  0.3577
 2276TIP3    H231024   1.892   0.429  16.416  0.1979 -0.8838  0.6860
 2277TIP3   OH231025   3.125   1.593  18.029  0.2354  0.4786 -0.7094
 2277TIP3    H131026   3.098   1.515  18.076  1.0944  1.2160  1.1123
 2277TIP3    H231027   3.043   1.638  18.007 -0.1819  0.5099  0.8235
 2278TIP3   OH231028   4.336   1.526  18.438 -1.1018 -0.0502 -0.2172
 2278TIP3    H131029   4.419   1.571  18.421 -0.6625 -0.2662  1.2184
 2278TIP3    H231030   4.332   1.456  18.373  0.3445 -0.6664  0.3159
 2279TIP3   OH231031   2.019   3.062  17.264  0.1614 -0.3790 -0.2021
 2279TIP3    H131032   2.001   3.126  17.333 -0.5196  0.9697 -1.5689
 2279TIP3    H231033   2.111   3.037  17.278 -0.0318 -0.3517  1.3206
 2280TIP3   OH231034   1.011   1.919  19.732  0.0307 -0.2445  0.2176
 2280TIP3    H131035   1.080   1.948  19.673 -0.5662 -0.2294 -0.4756
 2280TIP3    H231036   1.020   1.976  19.809 -0.5453  1.1839 -0.7409
 2281TIP3   OH231037   4.609   5.269  17.893  0.1663 -1.0253  0.0004
 2281TIP3    H131038   4.581   5.225  17.973 -1.0830  0.9341  0.7076
 2281TIP3    H231039   4.528   5.298  17.852  0.9086  0.7087 -0.3251
 2282TIP3   OH231040   0.553   0.638  17.648 -0.2343  0.3642  0.2682
 2282TIP3    H131041   0.634   0.672  17.611 -0.2169 -0.8683 -0.8871
 2282TIP3    H231042   0.546   0.680  17.734  1.4114  0.7812  0.2223
 2283TIP3   OH231043   2.540   0.553  17.605  0.1952  0.2369  0.1872
 2283TIP3    H131044   2.620   0.565  17.656 -0.2685  0.1176  0.9612
 2283TIP3    H231045   2.469   0.567  17.668 -0.3886 -1.3292 -0.0853
 2284TIP3   OH231046   2.300   3.890  18.980 -0.0847 -0.0186 -0.2327
 2284TIP3    H131047   2.282   3.937  19.061 -1.3742 -0.2986 -0.3463
 2284TIP3    H231048   2.215   3.878  18.939  0.3139 -1.6416 -0.6701
 2285TIP3   OH231049   5.314   5.520  18.048 -0.0384 -0.0330 -0.0261
 2285TIP3    H131050   5.358   5.603  18.066  0.4665 -0.5354  1.1390
 2285TIP3    H231051   5.221   5.539  18.057  0.1283 -0.1746  3.1012
 2286TIP3   OH231052   5.931   4.139  19.399  0.2603  0.0849 -0.6006
 2286TIP3    H131053   5.975   4.058  19.376  2.1982  0.7750  0.4610
 2286TIP3    H231054   5.994   4.186  19.453 -1.5928  1.3813  0.5524
 2287TIP3   OH231055   3.144   0.095  16.760  0.0418 -0.5015 -0.6070
 2287TIP3    H131056   3.169   0.156  16.691  2.0374  0.2042  0.6454
 2287TIP3    H231057   3.109   0.150  16.831  0.5116 -0.9279 -0.0288
 2288TIP3   OH231058   2.752   0.165  16.583  0.2784 -0.3952 -0.5110
 2288TIP3    H131059   2.761   0.083  16.534  0.6284 -0.2610 -0.6725
 2288TIP3    H231060   2.715   0.138  16.667  0.2290 -0.6991 -0.6261
 2289TIP3   OH231061   0.840   5.169  17.463  0.4897 -0.0970  0.4706
 2289TIP3    H131062   0.868   5.249  17.508  1.9928 -0.2625 -0.1385
 2289TIP3    H231063   0.790   5.201  17.388 -1.0710  0.1958  1.5838
 2290TIP3   OH231064   1.179   2.884  16.575 -0.0274  0.2127 -0.1905
 2290TIP3    H131065   1.086   2.899  16.558 -0.0702  3.0068  1.7836
 2290TIP3    H231066   1.181   2.808  16.633 -1.1981  0.7121  0.5367
 2291TIP3   OH231067   5.679   2.786  18.370 -0.3281  0.3134 -0.1184
 2291TIP3    H131068   5.728   2.868  18.367  1.6500 -0.8171  0.0985
 2291TIP3    H231069   5.712   2.735  18.296 -2.1846  0.0121 -0.8059
 2292TIP3   OH231070   5.066   3.735  18.339  0.1392  0.1861  0.0492
 2292TIP3    H131071   5.106   3.777  18.263 -0.0507  2.3374  1.0620
 2292TIP3    H231072   5.106   3.778  18.415 -1.7386  0.1628  1.1339
 2293TIP3   OH231073   3.300   4.149  18.977 -0.3342 -0.2740  0.2293
 2293TIP3    H131074   3.324   4.114  19.062  0.6768 -0.6198 -0.1886
 2293TIP3    H231075   3.330   4.083  18.914 -1.5705 -0.2924 -0.3712
 2294TIP3   OH231076   1.282   4.197  17.600  0.2169  0.6429  0.4151
 2294TIP3    H131077   1.339   4.129  17.636  0.5411 -0.3714 -1.8209
 2294TIP3    H231078   1.307   4.203  17.508 -1.1826  2.4035  0.0905
 2295TIP3   OH231079   3.105   2.777  17.378  0.5272 -0.2849  0.1286
 2295TIP3    H131080   3.102   2.871  17.394  1.0372 -0.3427  0.6242
 2295TIP3    H231081   3.144   2.768  17.291  3.3352 -0.0830  1.2465
 2296TIP3   OH231082   0.529   1.315  16.269  0.0981 -0.4423 -0.1181
 2296TIP3    H131083   0.578   1.390  16.235  1.0682 -1.3489 -0.7783
 2296TIP3    H231084   0.438   1.335  16.247  0.4261  0.2003 -0.9794
 2297TIP3   OH231085   1.261   3.532  17.633  0.1014  0.0597 -0.0857
 2297TIP3    H131086   1.177   3.564  17.600 -0.2462  0.2184  0.9169
 2297TIP3    H231087   1.238   3.452  17.682  0.2933  0.9249  1.4924
 2298TIP3   OH231088   2.366   5.819  18.003 -1.0247 -0.4336 -1.1427
 2298TIP3    H131089   2.350   5.730  18.035  0.8938 -0.0867  1.0921
 2298TIP3    H231090   2.455   5.816  17.967 -0.7868  0.6504 -0.6762
 2299TIP3   OH231091   1.958   2.421  18.076 -0.5533  0.9435 -0.3898
 2299TIP3    H131092   1.910   2.368  18.012 -1.6273  2.0547 -0.5442
 2299TIP3    H231093   1.999   2.490  18.025 -0.8642  1.4509  0.0333
 2300TIP3   OH231094   2.700   0.494  19.439 -0.1383 -0.1190  0.5000
 2300TIP3    H131095   2.764   0.427  19.465 -0.3206  0.2463  1.9535
 2300TIP3    H231096   2.753   0.568  19.409  0.0758 -0.5818 -0.2951
 2301TIP3   OH231097   6.493   3.913  17.094  0.2859  0.0752 -0.2173
 2301TIP3    H131098   6.401   3.900  17.071  0.3388  1.8722 -1.6351
 2301TIP3    H231099   6.525   3.826  17.116 -2.0139 -0.4465  1.3991
 2302TIP3   OH231100   0.829   5.286  18.565 -0.1488 -0.6144 -0.2805
 2302TIP3    H131101   0.895   5.235  18.519  0.1849  0.2336 -0.7609
 2302TIP3    H231102   0.850   5.275  18.658  1.1630  0.2909 -0.4502
 2303TIP3   OH231103   2.639   5.191  17.679  0.3155 -0.0129 -0.4586
 2303TIP3    H131104   2.654   5.209  17.586 -0.8812 -1.1781 -0.8985
 2303TIP3    H231105   2.544   5.185  17.688  0.3445  1.0688  1.0572
 2304TIP3   OH231106   2.356   0.062  17.796  0.6886 -0.2823 -0.2759
 2304TIP3    H131107   2.413   0.024  17.863  0.3946  1.1795  0.8426
 2304TIP3    H231108   2.385   0.152  17.788  0.6887 -0.4063 -2.1217
 2305TIP3   OH231109   5.877   6.024  16.730 -0.8316  0.9428 -0.4629
 2305TIP3    H131110   5.960   5.984  16.704 -0.7676  0.4994  0.3707
 2305TIP3    H231111   5.842   5.965  16.797 -1.9739  0.9711 -1.0229
 2306TIP3   OH231112   1.103   3.384  18.316  0.2151  0.3958  0.1780
 2306TIP3    H131113   1.115   3.479  18.313 -1.3321  0.5711 -2.1747
 2306TIP3    H231114   1.184   3.349  18.279  0.9473  0.7251  1.3853
 2307TIP3   OH231115   6.035   1.212  17.893 -0.0405  0.3613  0.8795
 2307TIP3    H131116   6.057   1.152  17.821  0.3842  0.5362  0.8651
 2307TIP3    H231117   5.945   1.240  17.873 -0.2865 -0.3519  0.9478
 2308TIP3   OH231118   5.429   1.952  17.559 -0.4759 -0.2797 -0.0108
 2308TIP3    H131119   5.441   1.859  17.540  0.1468  0.0788 -1.5237
 2308TIP3    H231120   5.517   1.987  17.565 -0.6977  0.3624 -0.3454
 2309TIP3   OH231121   2.313   0.064  18.459  0.1546  0.3565  0.5773
 2309TIP3    H131122   2.328   0.034  18.369 -1.8649 -4.6144  1.5557
 2309TIP3    H231123   2.238   0.123  18.452 -0.4698 -0.5310 -0.9978
 2310TIP3   OH231124   1.595   2.588  18.076  0.4776  0.0695 -0.2595
 2310TIP3    H131125   1.658   2.658  18.091  1.9437 -1.1420 -0.5929
 2310TIP3    H231126   1.548   2.581  18.160  2.3482 -0.4983  0.8085
 2311TIP3   OH231127   3.367   4.390  17.112 -0.3215  0.2377  0.1415
 2311TIP3    H131128   3.438   4.388  17.048  0.6785 -0.4673  1.2285
 2311TIP3    H231129   3.366   4.302  17.150 -2.0413  0.1194 -0.1109
 2312TIP3   OH231130   1.660   1.573  19.981  0.5671  0.4330 -0.3762
 2312TIP3    H131131   1.626   1.520  20.053  1.6424 -1.0797 -0.9201
 2312TIP3    H231132   1.585   1.587  19.923 -0.1379  1.0473  0.6748
 2313TIP3   OH231133   2.106   0.491  17.485 -0.6658  0.1873  0.1108
 2313TIP3    H131134   2.066   0.529  17.563 -1.2759 -0.8137  0.3078
 2313TIP3    H231135   2.131   0.566  17.432  1.2622  0.9572  1.9797
 2314TIP3   OH231136   5.545   1.276  17.819 -0.2146 -0.2523 -0.4939
 2314TIP3    H131137   5.544   1.259  17.725  1.0824 -1.1757 -0.3642
 2314TIP3    H231138   5.488   1.208  17.856  1.3772 -1.5835 -0.3949
 2315TIP3   OH231139   6.510   5.728  18.112  0.0720 -0.1014  0.0582
 2315TIP3    H131140   6.441   5.794  18.103  0.3307  0.0608 -0.9225
 2315TIP3    H231141   6.592   5.777  18.107  0.3951 -0.6598 -3.9743
 2316TIP3   OH231142   0.826   3.554  17.544  0.4128  0.3509 -0.0215
 2316TIP3    H131143   0.784   3.479  17.502  1.7147 -0.5570  0.2101
 2316TIP3    H231144   0.755   3.603  17.586 -0.3840 -1.2476  0.5629
 2317TIP3   OH231145   1.156   4.599  18.947  0.2002 -0.3298  0.1475
 2317TIP3    H131146   1.118   4.665  19.004 -1.0301 -0.9896  0.1345
 2317TIP3    H231147   1.227   4.644  18.900 -0.0616  0.7279  0.7531
 2318TIP3   OH231148   4.199   3.246  17.473 -0.1244  0.2773 -0.2942
 2318TIP3    H131149   4.273   3.275  17.526  0.3640 -1.4471  0.0348
 2318TIP3    H231150   4.161   3.173  17.522 -1.4611  0.5092 -0.9327
 2319TIP3   OH231151   5.995   5.631  19.291 -0.3281 -0.1109  0.7289
 2319TIP3    H131152   5.957   5.675  19.215 -1.6998 -1.7385  0.4075
 2319TIP3    H231153   5.967   5.684  19.366  0.3530  1.0514  0.1885
 2320TIP3   OH231154   4.392   5.713  18.843 -0.1233  0.1371 -0.4661
 2320TIP3    H131155   4.399   5.676  18.755 -0.6231 -0.5662 -0.2182
 2320TIP3    H231156   4.481   5.712  18.877 -0.0437 -0.2994 -0.6855
 2321TIP3   OH231157   4.694   6.715  17.570  0.8920 -0.2428  0.0147
 2321TIP3    H131158   4.646   6.668  17.638 -0.1084 -0.7345 -0.9891
 2321TIP3    H231159   4.726   6.645  17.512  1.8148  0.1592  0.0260
 2322TIP3   OH231160   5.396   5.060  17.433 -0.4313  0.4526  0.0110
 2322TIP3    H131161   5.361   5.138  17.390  0.2532  0.9642  0.3751
 2322TIP3    H231162   5.456   5.093  17.499 -0.4423 -0.3742  0.4454
 2323TIP3   OH231163   3.073   3.516  19.234 -0.1857  0.2098 -0.0685
 2323TIP3    H131164   3.053   3.593  19.287  1.6988  0.8857 -0.2969
 2323TIP3    H231165   3.008   3.519  19.164 -1.3345  0.5085  0.9709
 2324TIP3   OH231166   5.893   0.102  17.644  0.6803  0.1289  0.0393
 2324TIP3    H131167   5.850   0.041  17.584 -2.3741  1.2908  0.8330
 2324TIP3    H231168   5.928   0.171  17.587  1.4933 -0.8365 -0.6482
 2325TIP3   OH231169   2.648   3.197  17.536  0.0602 -0.2292 -0.1867
 2325TIP3    H131170   2.557   3.191  17.562  0.2901  1.6035  1.2694
 2325TIP3    H231171   2.651   3.155  17.450 -2.3018  0.3385 -0.6203
 2326TIP3   OH231172   4.976   1.491  18.357  0.0635  0.3483 -0.3617
 2326TIP3    H131173   4.969   1.512  18.264  0.1952  2.9322  0.1346
 2326TIP3    H231174   4.890   1.459  18.382  0.4851 -1.9828 -1.6760
 2327TIP3   OH231175   1.509   1.120  17.948  0.4623 -0.0606  0.3057
 2327TIP3    H131176   1.465   1.036  17.940  0.0019  0.0576  1.3433
 2327TIP3    H231177   1.601   1.098  17.963  0.3430 -0.3844  0.5731
 2328TIP3   OH231178   6.317   4.926  15.609 -0.1229 -0.2535 -0.1744
 2328TIP3    H131179   6.319   4.838  15.572 -0.0167  0.1911 -1.2697
 2328TIP3    H231180   6.248   4.971  15.560  1.3668  0.9406 -1.2378
 2329TIP3   OH231181   1.098   0.231  19.404 -0.3618  0.0701  0.0407
 2329TIP3    H131182   1.039   0.196  19.337 -0.4664 -2.5231  1.3350
 2329TIP3    H231183   1.183   0.189  19.386  0.3129  1.4170 -0.0219
 2330TIP3   OH231184   1.757   3.105  17.134 -0.3385 -1.1304  0.3225
 2330TIP3    H131185   1.798   3.164  17.071 -1.8018  0.8615  1.1141
 2330TIP3    H231186   1.827   3.081  17.194  0.6279 -1.5007 -0.9026
 2331TIP3   OH231187   0.893   5.463  15.568  0.0441 -0.2304  0.0279
 2331TIP3    H131188   0.870   5.380  15.527 -0.1431 -0.1288 -0.0724
 2331TIP3    H231189   0.877   5.449  15.661  1.4950 -0.8175  0.2279
 2332TIP3   OH231190   1.769   5.114  18.823  0.2873  0.2746  0.5404
 2332TIP3    H131191   1.695   5.058  18.846  0.0857  0.6145  0.7184
 2332TIP3    H231192   1.834   5.097  18.890  0.3975 -0.0739  0.3469
 2333TIP3   OH231193   5.672   5.828  18.897  0.1599 -0.3305  0.0753
 2333TIP3    H131194   5.668   5.750  18.954  1.6336 -0.3309  0.2231
 2333TIP3    H231195   5.765   5.847  18.890 -0.1850  1.5149  0.1310
 2334TIP3   OH231196   5.395   4.181  18.178 -0.3588  0.4178  0.4070
 2334TIP3    H131197   5.419   4.245  18.111 -2.4968  0.0580 -0.7830
 2334TIP3    H231198   5.364   4.233  18.252 -0.8228  0.7969 -0.0465
 2335TIP3   OH231199   4.487   3.710  17.315  0.4320 -0.3058  0.2561
 2335TIP3    H131200   4.415   3.764  17.282 -0.7918 -1.4956  0.8798
 2335TIP3    H231201   4.476   3.627  17.269  3.3384  0.4159 -2.0501
 2336TIP3   OH231202   3.372   1.410  16.813  0.4047 -0.0905  0.1315
 2336TIP3    H131203   3.322   1.331  16.792  0.0696 -0.0398  0.6991
 2336TIP3    H231204   3.432   1.421  16.739 -2.2628  1.3848 -2.0232
 2337TIP3   OH231205   4.256   4.767  17.059 -0.0065 -0.6167  0.2235
 2337TIP3    H131206   4.340   4.756  17.015 -0.1294  0.3847 -0.2952
 2337TIP3    H231207   4.263   4.852  17.104 -1.2677  0.2506 -1.1179
 2338TIP3   OH231208   5.225   2.810  18.266 -0.2990 -0.1715 -0.4387
 2338TIP3    H131209   5.131   2.798  18.255 -0.8665  1.4366  1.9206
 2338TIP3    H231210   5.244   2.894  18.223 -0.6842  1.2465  1.9965
 2339TIP3   OH231211   0.913   0.888  18.963  0.1634 -0.0460 -0.0713
 2339TIP3    H131212   0.822   0.875  18.939  0.1741 -1.0011  0.3525
 2339TIP3    H231213   0.923   0.840  19.045  0.9622  0.3281  0.0589
 2340TIP3   OH231214   0.953   5.913  16.477  0.0565 -0.2235 -0.0034
 2340TIP3    H131215   0.905   5.848  16.529  1.3964  0.2097  1.8860
 2340TIP3    H231216   0.904   5.994  16.488  0.6301 -0.0025  1.1265
 2341TIP3   OH231217   1.933   0.222  17.401 -0.2971 -0.6255 -0.0500
 2341TIP3    H131218   1.970   0.136  17.423  0.4001 -0.8199 -1.8432
 2341TIP3    H231219   1.843   0.203  17.376 -1.3888 -0.3030  3.1114
 2342TIP3   OH231220   2.255   0.841  19.532  0.1046  0.1074  0.5695
 2342TIP3    H131221   2.171   0.795  19.519  0.6562 -0.7833  0.0562
 2342TIP3    H231222   2.315   0.772  19.559  0.5981  0.8094  1.2998
 2343TIP3   OH231223   6.373   6.327  18.654 -0.3270 -0.1793 -0.2116
 2343TIP3    H131224   6.460   6.366  18.662 -0.8661  0.9915  0.0173
 2343TIP3    H231225   6.374   6.284  18.568  0.5488 -0.3863 -0.1079
 2344TIP3   OH231226   5.731   1.700  17.900  0.1235  0.4337 -0.0081
 2344TIP3    H131227   5.659   1.638  17.912  1.6140 -0.9152  3.4679
 2344TIP3    H231228   5.694   1.785  17.924 -1.3347  0.6148 -2.5586
 2345TIP3   OH231229   6.726   3.549  18.224  0.5257 -0.2479  0.2258
 2345TIP3    H131230   6.641   3.513  18.249  0.8616 -1.4252 -0.2790
 2345TIP3    H231231   6.773   3.560  18.307 -0.1786  0.6240  0.5308
 2346TIP3   OH231232   2.562   4.953  16.580 -0.1659 -0.3686  1.3460
 2346TIP3    H131233   2.513   5.032  16.602  0.1439 -0.1368  1.2187
 2346TIP3    H231234   2.653   4.974  16.603 -0.1060 -0.7448  1.4562
 2347TIP3   OH231235   5.983   1.551  19.138  0.1432  0.1625  0.6951
 2347TIP3    H131236   5.914   1.499  19.179  0.3217  0.4589  1.3730
 2347TIP3    H231237   5.936   1.615  19.084 -0.1900  1.4994  2.4952
 2348TIP3   OH231238   6.594   3.779  16.100  0.3615  0.2576 -0.4732
 2348TIP3    H131239   6.514   3.727  16.106 -1.2106  2.6716  3.0035
 2348TIP3    H231240   6.584   3.829  16.019 -0.2266 -1.4964 -1.5320
 2349TIP3   OH231241   1.647   4.365  19.061 -0.2866  0.4564 -0.0513
 2349TIP3    H131242   1.632   4.417  18.982 -0.7664  1.2520  0.5441
 2349TIP3    H231243   1.590   4.289  19.052 -1.4201  1.2635  0.1748
 2350TIP3   OH231244   3.787   2.657  16.616 -0.4387 -0.3419  0.1841
 2350TIP3    H131245   3.760   2.629  16.528 -0.8154 -0.0277  0.1986
 2350TIP3    H231246   3.849   2.589  16.644 -0.0967 -0.3001 -0.4363
 2351TIP3   OH231247   2.839   6.590  15.926 -0.3594  0.1253 -0.0934
 2351TIP3    H131248   2.769   6.575  15.863  0.9115  0.1882 -1.5656
 2351TIP3    H231249   2.903   6.522  15.908  0.3569  0.5743  0.6656
 2352TIP3   OH231250   0.758   2.414  18.265 -0.4660 -0.2603  0.4486
 2352TIP3    H131251   0.734   2.505  18.279 -1.1917 -0.4762  0.6419
 2352TIP3    H231252   0.727   2.369  18.344 -1.4983 -0.9258 -0.3091
 2353TIP3   OH231253   2.036   2.495  19.059  0.1806 -0.1846  0.2963
 2353TIP3    H131254   2.044   2.533  19.147 -1.8470  0.4147  0.2694
 2353TIP3    H231255   1.980   2.557  19.012 -0.9995 -1.8642 -0.5820
 2354TIP3   OH231256   0.508   1.989  17.015 -0.1430 -0.1589  0.0321
 2354TIP3    H131257   0.438   1.987  17.081  0.8548 -0.7608  1.1130
 2354TIP3    H231258   0.533   2.082  17.010  2.0849 -0.4279  3.1217
 2355TIP3   OH231259   5.806   2.190  18.052 -0.0180 -0.1311 -0.6943
 2355TIP3    H131260   5.869   2.233  17.993  0.2155  2.2721  1.1267
 2355TIP3    H231261   5.722   2.227  18.027 -0.1090 -0.1663 -0.4394
 2356TIP3   OH231262   1.883   0.461  17.970 -0.4616  0.7269  0.5063
 2356TIP3    H131263   1.956   0.501  18.017  0.8543 -0.5169 -0.3735
 2356TIP3    H231264   1.925   0.401  17.907 -2.2439 -0.1678  0.0956
 2357TIP3   OH231265   4.427   2.345  19.353  0.0270 -0.3208 -0.7901
 2357TIP3    H131266   4.352   2.404  19.346  1.3568  1.2854 -2.6741
 2357TIP3    H231267   4.389   2.258  19.361 -2.0633  0.3344 -2.6155
 2358TIP3   OH231268   2.001   0.393  19.174 -0.3110  0.6507  0.6029
 2358TIP3    H131269   2.024   0.429  19.089  1.6776  1.7596  1.5384
 2358TIP3    H231270   1.910   0.421  19.188 -0.6537  0.4731 -1.0977
 2359TIP3   OH231271   0.997   2.208  18.396  0.0040 -0.1491 -0.3678
 2359TIP3    H131272   0.926   2.156  18.356 -0.4855  1.1859 -1.2992
 2359TIP3    H231273   1.043   2.246  18.321 -0.0972  1.3430  0.3083
 2360TIP3   OH231274   4.330   5.698  18.558 -0.3848  0.8404  0.3312
 2360TIP3    H131275   4.287   5.778  18.527 -0.6250  0.0698 -1.4766
 2360TIP3    H231276   4.257   5.640  18.580 -0.2203  1.4939  2.8270
 2361TIP3   OH231277   4.614   1.039  15.977 -0.3446  0.0309  0.4719
 2361TIP3    H131278   4.605   0.990  15.895  0.1496  0.7253 -0.0112
 2361TIP3    H231279   4.554   1.113  15.968 -1.0508 -0.4520  1.1750
 2362TIP3   OH231280   2.159   3.965  17.471  0.2308 -0.4278 -0.0150
 2362TIP3    H131281   2.160   3.893  17.535  1.7498 -1.1340 -0.7716
 2362TIP3    H231282   2.166   4.044  17.525  3.7640 -1.0799  0.7412
 2363TIP3   OH231283   2.321   0.187  15.906 -0.1558 -0.2912 -0.6020
 2363TIP3    H131284   2.344   0.217  15.819 -0.3833  2.3414  0.1712
 2363TIP3    H231285   2.238   0.141  15.894 -1.0584  1.4966 -1.5861
 2364TIP3   OH231286   3.033   2.129  18.203  0.2636 -0.1322 -0.0250
 2364TIP3    H131287   3.093   2.156  18.273 -1.3164  0.2219  1.2771
 2364TIP3    H231288   3.086   2.130  18.124  2.3965 -1.5540  1.2990
 2365TIP3   OH231289   5.218   0.600  17.893  0.6785  1.0272 -0.2565
 2365TIP3    H131290   5.197   0.513  17.859 -1.0924  0.0166  2.9602
 2365TIP3    H231291   5.171   0.660  17.835 -2.2497 -0.5680  0.2495
 2366TIP3   OH231292   4.122   4.797  17.390 -0.2401 -0.1166  0.1887
 2366TIP3    H131293   4.098   4.887  17.366  0.5830 -0.3163 -1.6403
 2366TIP3    H231294   4.048   4.744  17.363 -0.6242 -0.0272  1.0441
 2367TIP3   OH231295   3.886   2.539  17.635 -0.1375  0.7699 -0.1761
 2367TIP3    H131296   3.801   2.527  17.676  0.2381 -0.2554  0.3279
 2367TIP3    H231297   3.947   2.491  17.691  0.3170 -1.2196 -2.2183
 2368TIP3   OH231298   0.027   2.421  19.255 -0.1483  0.1580 -0.0492
 2368TIP3    H131299   0.061   2.357  19.192 -0.0227  0.1994 -0.0247
 2368TIP3    H231300  -0.064   2.396  19.268 -0.0757 -0.0692  0.0235
 2369TIP3   OH231301   6.209   4.302  15.858 -0.4884  0.2756 -0.4385
 2369TIP3    H131302   6.122   4.323  15.825 -0.4539  0.6451 -0.3048
 2369TIP3    H231303   6.264   4.298  15.780  0.1214  3.6421 -0.3199
 2370TIP3   OH231304   1.917   3.071  18.128 -0.1809  0.6350  0.0958
 2370TIP3    H131305   1.896   2.994  18.181  0.4349  0.1277 -0.3759
 2370TIP3    H231306   1.867   3.142  18.167 -3.0329 -0.5521 -1.1415
 2371TIP3   OH231307   1.353   0.137  17.967 -0.6899  0.3765 -0.3092
 2371TIP3    H131308   1.325   0.133  18.059  0.0106 -2.1774 -0.1218
 2371TIP3    H231309   1.447   0.156  17.972 -0.6535  0.2435 -0.4951
 2372TIP3   OH231310   5.697   1.640  19.244 -0.2136  0.2435 -0.3934
 2372TIP3    H131311   5.603   1.628  19.233 -0.3516 -0.6532  1.3943
 2372TIP3    H231312   5.729   1.554  19.271  0.8832  0.8849  0.4195
 2373TIP3   OH231313   5.004   0.589  17.045 -0.3677 -0.2175  0.0945
 2373TIP3    H131314   5.007   0.524  16.975 -0.5675 -0.7690  0.5889
 2373TIP3    H231315   4.911   0.609  17.055 -0.2346  0.8115 -0.6566
 2374TIP3   OH231316   5.197   1.559  16.946  0.2292 -0.5306 -0.0703
 2374TIP3    H131317   5.131   1.589  17.009 -0.6155 -1.2323 -0.5951
 2374TIP3    H231318   5.252   1.499  16.996 -0.3685 -0.9992  0.0372
 2375TIP3   OH231319   3.936   1.190  16.624 -0.1789  0.1459  0.0510
 2375TIP3    H131320   3.871   1.121  16.607  0.4827 -0.7751  1.0900
 2375TIP3    H231321   3.913   1.223  16.711  0.3233  0.3043  0.1239
 2376TIP3   OH231322   5.422   1.248  18.342  0.3307  0.3030  0.3036
 2376TIP3    H131323   5.514   1.224  18.337  0.7247  1.0797  2.6438
 2376TIP3    H231324   5.403   1.289  18.258  1.8639 -0.6575 -0.5409
 2377TIP3   OH231325   2.478   4.037  19.497 -0.6675  0.0692 -0.0984
 2377TIP3    H131326   2.405   4.009  19.442 -2.1330  1.5258  1.0301
 2377TIP3    H231327   2.541   3.965  19.491 -2.1552 -1.2102 -1.1485
 2378TIP3   OH231328   5.300   4.093  19.321  0.4614  0.8261  0.1897
 2378TIP3    H131329   5.259   4.118  19.238 -0.6907  1.9286  1.0712
 2378TIP3    H231330   5.233   4.043  19.367  1.6261 -1.1640 -0.1546
 2379TIP3   OH231331   5.951   4.087  17.649  0.2142 -0.0574 -0.7184
 2379TIP3    H131332   6.044   4.072  17.634  0.7080  1.0943  0.8126
 2379TIP3    H231333   5.947   4.176  17.686 -1.4358 -0.2644 -0.3059
 2380TIP3   OH231334   0.205   5.352  15.867  0.0604  0.3006 -0.0040
 2380TIP3    H131335   0.165   5.311  15.791  1.6554  0.8779 -1.1985
 2380TIP3    H231336   0.275   5.406  15.832  2.0439 -0.7889  1.9608
 2381TIP3   OH231337   0.340   5.757  17.265 -0.2069 -0.1362  0.0955
 2381TIP3    H131338   0.412   5.713  17.219  2.0123  3.5755 -0.3642
 2381TIP3    H231339   0.368   5.760  17.357  0.6283  1.7917 -0.1692
 2382TIP3   OH231340   2.542   5.685  17.830 -0.5044 -0.0213  0.4684
 2382TIP3    H131341   2.502   5.600  17.848  0.5985 -0.4782  0.8848
 2382TIP3    H231342   2.633   5.665  17.811 -0.1131  1.1042  1.0324
 2383TIP3   OH231343   4.015   0.980  17.146  0.2245  0.6865  0.2209
 2383TIP3    H131344   3.935   0.986  17.094  1.0216  2.6421 -0.8720
 2383TIP3    H231345   4.084   0.958  17.083  0.4716 -2.0729  1.3031
 2384TIP3   OH231346   4.275   3.632  19.419  0.0300 -0.0136  0.2977
 2384TIP3    H131347   4.239   3.640  19.331  1.1429 -1.4869 -0.3330
 2384TIP3    H231348   4.228   3.558  19.457 -0.2476  0.4423  0.8646
 2385TIP3   OH231349   3.682   6.132  19.300 -0.1191 -0.4130 -0.2583
 2385TIP3    H131350   3.656   6.114  19.390 -2.0768 -0.7195 -0.8391
 2385TIP3    H231351   3.602   6.165  19.258  1.3001  1.9064 -1.3217
 2386TIP3   OH231352   4.601   0.652  16.887  0.0010 -0.5466 -0.1206
 2386TIP3    H131353   4.563   0.740  16.884 -2.6920 -1.6314 -0.8470
 2386TIP3    H231354   4.623   0.639  16.980 -0.4795  0.5193  0.1609
 2387TIP3   OH231355   1.692   2.135  16.327  0.0936 -0.0634 -0.5021
 2387TIP3    H131356   1.684   2.221  16.286  1.8546  0.0051 -0.7880
 2387TIP3    H231357   1.639   2.141  16.406  1.2162  1.7607  0.1899
 2388TIP3   OH231358   0.405   1.773  19.257 -0.1416  0.0532  0.0575
 2388TIP3    H131359   0.317   1.737  19.261 -1.3833  2.0972 -3.7553
 2388TIP3    H231360   0.448   1.725  19.186  0.6182  1.2545 -0.3327
 2389TIP3   OH231361   6.207   4.547  16.084 -0.7155  0.1692 -0.1838
 2389TIP3    H131362   6.269   4.509  16.147 -0.7833  1.6110  0.8143
 2389TIP3    H231363   6.254   4.545  16.001  0.1237 -0.0700  0.2821
 2390TIP3   OH231364   5.265   2.478  18.326 -0.6889  0.5061 -0.0511
 2390TIP3    H131365   5.236   2.428  18.402  0.0134 -1.1036 -0.7934
 2390TIP3    H231366   5.346   2.521  18.356  2.3591 -3.8680 -1.0411
 2391TIP3   OH231367   5.192   5.532  16.014  0.0515 -0.5167  1.2647
 2391TIP3    H131368   5.134   5.457  15.999  0.6199 -1.4756  3.3977
 2391TIP3    H231369   5.277   5.504  15.981  0.1373 -0.6002  1.5536
 2392TIP3   OH231370   0.110   4.925  18.360  0.1752 -0.6303  0.2884
 2392TIP3    H131371   0.033   4.925  18.417 -0.2081 -1.4638 -0.2115
 2392TIP3    H231372   0.075   4.910  18.272  0.9635 -1.7606  0.1451
 2393TIP3   OH231373   3.612   5.529  16.213  0.4663 -0.2557 -0.2375
 2393TIP3    H131374   3.689   5.585  16.202 -0.6120  1.0816 -1.2997
 2393TIP3    H231375   3.613   5.471  16.137  1.0847 -1.1179  0.4004
 2394TIP3   OH231376   1.932   4.428  18.109  0.3962  0.0382 -0.1468
 2394TIP3    H131377   1.878   4.359  18.071  2.5120 -1.1622 -1.1355
 2394TIP3    H231378   1.968   4.389  18.189 -0.6833  1.0731  0.8879
 2395TIP3   OH231379   2.037   1.647  19.293 -0.0505  0.5474 -0.2758
 2395TIP3    H131380   1.943   1.637  19.311 -0.1537 -2.3797 -1.8454
 2395TIP3    H231381   2.068   1.708  19.360 -3.0278  1.5085  0.3616
 2396TIP3   OH231382   5.683   3.203  18.808  0.0664 -0.5609 -0.0841
 2396TIP3    H131383   5.777   3.212  18.793  0.5717 -0.5866  2.6524
 2396TIP3    H231384   5.670   3.111  18.829  0.0234 -0.0363  2.5933
 2397TIP3   OH231385   5.877   0.983  19.206  0.1920  0.0623 -0.0926
 2397TIP3    H131386   5.913   1.042  19.140  0.0982 -0.3126 -0.4865
 2397TIP3    H231387   5.954   0.941  19.244  0.1869 -1.3744 -1.5284
 2398TIP3   OH231388   4.237   4.706  17.782 -1.1827  0.4027  0.6801
 2398TIP3    H131389   4.263   4.747  17.865 -2.6973 -1.1489  2.0197
 2398TIP3    H231390   4.142   4.720  17.777 -1.3143 -0.6437 -0.1121
 2399TIP3   OH231391   5.632   2.541  16.789 -0.3828  0.0697 -0.4184
 2399TIP3    H131392   5.603   2.501  16.707  2.1012 -1.2630 -0.7374
 2399TIP3    H231393   5.609   2.477  16.857 -1.2201  0.5738 -0.2036
 2400TIP3   OH231394   2.865   6.693  19.020 -0.5186  0.2288 -0.2464
 2400TIP3    H131395   2.868   6.731  18.932 -1.2795 -0.1904 -0.4620
 2400TIP3    H231396   2.772   6.692  19.042 -0.3535  0.0588  0.4450
 2401TIP3   OH231397   3.190   3.385  18.969  0.0757  0.2070  0.3389
 2401TIP3    H131398   3.137   3.306  18.965  0.2632  0.0962 -0.0095
 2401TIP3    H231399   3.156   3.441  18.899  1.7652 -0.7244 -1.3103
 2402TIP3   OH231400   4.093   6.035  17.601 -0.1629 -0.0465  0.2520
 2402TIP3    H131401   4.140   6.048  17.683  0.2685 -2.1391  0.3999
 2402TIP3    H231402   4.087   6.122  17.562  4.0620  0.3659  0.1060
 2403TIP3   OH231403   4.779   6.031  18.037  0.2460  0.3242  0.7288
 2403TIP3    H131404   4.805   5.975  18.110 -1.1978 -1.3512  0.0109
 2403TIP3    H231405   4.859   6.045  17.987  0.5090 -1.7073  0.5335
 2404TIP3   OH231406   4.878   4.019  18.731  0.6570 -0.5592  0.2389
 2404TIP3    H131407   4.944   3.952  18.747  1.4139  0.2029  0.3916
 2404TIP3    H231408   4.881   4.033  18.636  2.1287  0.8489  0.4511
 2405TIP3   OH231409   4.904   6.530  18.094 -0.0566 -0.3947  0.5224
 2405TIP3    H131410   4.843   6.472  18.050 -1.0963  1.1280 -0.1463
 2405TIP3    H231411   4.853   6.572  18.163 -0.5883  2.6585 -1.5075
 2406TIP3   OH231412   0.527   0.546  18.987 -0.0084 -0.3795  0.0914
 2406TIP3    H131413   0.521   0.563  19.081 -0.1499 -0.4119  0.0879
 2406TIP3    H231414   0.519   0.451  18.980  0.9194 -0.4743  0.1209
 2407TIP3   OH231415   0.659   4.156  18.566  0.2454  0.0150 -0.1432
 2407TIP3    H131416   0.729   4.164  18.500  0.9769 -1.7629  0.3550
 2407TIP3    H231417   0.626   4.067  18.555 -1.6101  0.6510  0.0028
 2408TIP3   OH231418   0.480   4.340  17.980 -1.0626  0.2800 -0.4991
 2408TIP3    H131419   0.504   4.371  17.893  3.6778  1.0138  0.7533
 2408TIP3    H231420   0.512   4.249  17.982 -1.0538  0.2939  0.4727
 2409TIP3   OH231421   0.187   0.240  17.170  0.1904  0.8330  0.4087
 2409TIP3    H131422   0.214   0.155  17.137 -0.4272  0.2902  1.2681
 2409TIP3    H231423   0.106   0.223  17.219  0.9451  1.6133  2.0238
 2410TIP3   OH231424   2.596   2.315  18.904 -0.1386 -0.4351 -0.0877
 2410TIP3    H131425   2.629   2.233  18.939  0.9980 -0.0574 -0.2366
 2410TIP3    H231426   2.559   2.292  18.819  0.7851 -0.6881 -0.4276
 2411TIP3   OH231427   4.185   2.383  19.050  0.3482 -0.3993  0.3117
 2411TIP3    H131428   4.223   2.295  19.051  0.0757 -0.5478  2.5522
 2411TIP3    H231429   4.093   2.369  19.072  0.4868  0.5105  1.5349
 2412TIP3   OH231430   3.218   2.662  18.579 -0.5740 -0.6756  0.2818
 2412TIP3    H131431   3.172   2.581  18.557 -0.9062 -0.9305  1.7899
 2412TIP3    H231432   3.219   2.663  18.675 -0.0961  0.8455  0.2767
 2413TIP3   OH231433   6.531   4.173  18.983  0.4317 -0.4617 -0.4205
 2413TIP3    H131434   6.449   4.221  18.980  0.6527 -0.1315 -2.0982
 2413TIP3    H231435   6.569   4.194  19.069 -1.1911 -0.5883  0.3508
 2414TIP3   OH231436   4.098   5.809  18.170  0.4130  0.0835  0.0344
 2414TIP3    H131437   4.083   5.766  18.086  0.5849 -0.4122  0.2483
 2414TIP3    H231438   4.013   5.844  18.195  0.7438  1.9460 -1.2550
 2415TIP3   OH231439   3.454   6.169  17.409  0.2105  0.5268  0.4379
 2415TIP3    H131440   3.487   6.251  17.446 -0.6477  1.0239  0.1366
 2415TIP3    H231441   3.381   6.196  17.353  0.3888 -0.3750 -0.2511
 2416TIP3   OH231442   5.663   0.977  17.961  0.0796  0.0897  0.2814
 2416TIP3    H131443   5.736   1.028  17.998 -1.1076  2.8114 -0.8100
 2416TIP3    H231444   5.621   0.937  18.037  2.5798 -1.4971  0.9483
 2417TIP3   OH231445   5.773   2.906  17.784 -0.6706 -0.5268  0.0720
 2417TIP3    H131446   5.770   2.857  17.866  2.9884  1.0730  1.3854
 2417TIP3    H231447   5.702   2.969  17.791  0.3543  0.4549  2.7372
 2418TIP3   OH231448   5.086   5.494  16.297 -0.0058  1.0432  0.2220
 2418TIP3    H131449   5.039   5.414  16.324 -2.3071  2.5233  0.8756
 2418TIP3    H231450   5.086   5.491  16.202  0.4557  0.0101  0.2384
 2419TIP3   OH231451   3.404   0.793  18.088 -0.0017  0.0726 -0.3608
 2419TIP3    H131452   3.363   0.733  18.151 -1.1306 -1.5751 -2.5469
 2419TIP3    H231453   3.366   0.879  18.108 -0.8911 -0.5457  0.7105
 2420TIP3   OH231454   0.211   6.417  17.820  0.2908  0.1306  0.2847
 2420TIP3    H131455   0.165   6.347  17.774  2.5239 -0.2111 -1.6168
 2420TIP3    H231456   0.209   6.391  17.912  1.0258 -2.4581 -0.3430
 2421TIP3   OH231457   5.669   6.088  17.096 -0.0012 -0.4124 -0.1454
 2421TIP3    H131458   5.586   6.042  17.084 -0.3715  0.6858 -2.1593
 2421TIP3    H231459   5.731   6.020  17.123 -0.7263 -1.9462 -2.1605
 2422TIP3   OH231460   5.753   5.383  19.065 -0.2967 -0.3014  0.1610
 2422TIP3    H131461   5.673   5.351  19.107  0.1279 -0.9507  0.4877
 2422TIP3    H231462   5.726   5.405  18.976 -1.1552  0.8848  0.6854
 2423TIP3   OH231463   5.810   6.255  17.572 -0.0699  0.3029  0.3877
 2423TIP3    H131464   5.792   6.278  17.481 -0.3072 -1.1535  0.0474
 2423TIP3    H231465   5.741   6.298  17.622 -1.4216 -0.8818 -0.3835
 2424TIP3   OH231466   4.817   0.783  18.050  0.1773  0.6863  0.1553
 2424TIP3    H131467   4.778   0.825  17.973 -0.8338 -0.1304  0.2053
 2424TIP3    H231468   4.811   0.850  18.119 -1.3284  0.5316  0.2098
 2425TIP3   OH231469   5.389   6.110  17.121 -0.0090  0.0781 -0.1722
 2425TIP3    H131470   5.371   6.131  17.030 -2.3109  0.9545  0.4243
 2425TIP3    H231471   5.313   6.059  17.150  0.3696  0.3575  1.4296
 2426TIP3   OH231472   4.803   0.614  18.496 -0.2703 -0.4251 -0.6168
 2426TIP3    H131473   4.882   0.572  18.464  1.2940  2.2819 -0.6224
 2426TIP3    H231474   4.834   0.692  18.542 -2.9593  1.6290 -1.9859
 2427TIP3   OH231475   5.806   4.224  19.031 -0.8724  0.7170 -0.6447
 2427TIP3    H131476   5.828   4.158  18.965  1.4760  1.5227 -0.7517
 2427TIP3    H231477   5.784   4.174  19.109  0.5616 -0.2231 -0.8159
 2428TIP3   OH231478   4.739   2.446  16.955  0.5527  0.1845 -1.0409
 2428TIP3    H131479   4.727   2.479  17.044 -1.0764  0.8716 -1.4628
 2428TIP3    H231480   4.652   2.411  16.931  1.1930 -0.7946 -2.0477
 2429TIP3   OH231481   3.614   2.875  19.246 -0.0215 -0.1326  0.2146
 2429TIP3    H131482   3.582   2.838  19.328 -0.4246  0.8487  0.5166
 2429TIP3    H231483   3.657   2.956  19.271  0.0950  0.0418 -0.5184
 2430TIP3   OH231484   1.690   6.694  15.593 -0.3386 -0.5938 -0.5233
 2430TIP3    H131485   1.682   6.715  15.500  1.6588  1.2009 -0.3837
 2430TIP3    H231486   1.781   6.664  15.603  0.8388  2.9591  1.3488
 2431TIP3   OH231487   0.992   0.412  17.323  0.3331  0.0622  0.2428
 2431TIP3    H131488   0.957   0.439  17.408  1.2791  1.0304  0.3525
 2431TIP3    H231489   1.077   0.371  17.344  1.2367  1.5798 -0.3165
 2432TIP3   OH231490   5.513   1.053  18.899  0.7337  0.1648 -0.0806
 2432TIP3    H131491   5.557   1.136  18.878  0.2402  0.8737  1.5903
 2432TIP3    H231492   5.584   0.996  18.930  1.2475 -0.4432 -2.1978
 2433TIP3   OH231493   5.329   3.747  19.178 -0.5679 -0.0713  0.1498
 2433TIP3    H131494   5.398   3.791  19.228 -1.2932 -0.3631  1.4865
 2433TIP3    H231495   5.372   3.672  19.138 -0.0353 -0.0533  0.6805
 2434TIP3   OH231496   1.282   4.742  18.741 -0.4001 -0.0251 -0.5947
 2434TIP3    H131497   1.319   4.724  18.654  2.1180  1.7912  0.0077
 2434TIP3    H231498   1.315   4.828  18.764  2.0568 -1.7852  3.6402
 2435TIP3   OH231499   1.980   1.596  16.554 -0.0708 -0.1740 -0.3787
 2435TIP3    H131500   1.949   1.641  16.475  0.4239 -1.3161 -1.2520
 2435TIP3    H231501   1.910   1.609  16.618 -0.7952  0.1938 -1.2257
 2436TIP3   OH231502   3.023   2.207  16.599  0.1120  0.0628  0.6346
 2436TIP3    H131503   3.076   2.147  16.650 -2.1346 -1.5000  1.2722
 2436TIP3    H231504   3.037   2.181  16.508  0.5080 -0.2502  0.7847
 2437TIP3   OH231505   2.879   5.112  17.807  0.4939  0.3163  0.2567
 2437TIP3    H131506   2.803   5.131  17.751  1.4246 -1.1690 -1.6263
 2437TIP3    H231507   2.951   5.098  17.745  1.1046 -3.7662  1.6093
 2438TIP3   OH231508   3.636   0.924  15.779 -1.0189  0.5943  0.3795
 2438TIP3    H131509   3.637   0.831  15.756 -1.2962  0.4892  0.7727
 2438TIP3    H231510   3.543   0.944  15.789 -0.9820  1.0175 -0.1089
 2439TIP3   OH231511   5.386   3.894  17.023  0.1015  0.5561 -0.1607
 2439TIP3    H131512   5.449   3.958  16.988  1.1368 -0.6839 -0.6504
 2439TIP3    H231513   5.439   3.834  17.075 -1.2061  1.4971  2.4225
 2440TIP3   OH231514   4.241   6.163  17.834 -0.3826 -0.0573  0.3403
 2440TIP3    H131515   4.282   6.113  17.904  1.7432  1.1269  0.0073
 2440TIP3    H231516   4.199   6.237  17.879 -3.0533 -1.7190  0.7732
 2441TIP3   OH231517   5.113   4.882  17.553  0.2556 -0.6269 -0.1178
 2441TIP3    H131518   5.163   4.955  17.518  1.9464 -1.2253  0.9036
 2441TIP3    H231519   5.062   4.920  17.625  2.4537 -0.6478  1.5873
 2442TIP3   OH231520   2.529   5.038  18.529 -0.6005  0.1246 -0.8337
 2442TIP3    H131521   2.556   5.118  18.485  0.2349 -0.2669 -1.0457
 2442TIP3    H231522   2.466   5.068  18.596  2.4085  1.4805  1.6586
 2443TIP3   OH231523   0.730   1.093  17.410  0.3865  0.6395  0.0388
 2443TIP3    H131524   0.677   1.015  17.418 -0.8311  0.9195 -3.5013
 2443TIP3    H231525   0.671   1.159  17.373  2.0030  2.4948  0.5560
 2444TIP3   OH231526   0.421   6.194  18.566 -0.3095  0.0656  0.0849
 2444TIP3    H131527   0.424   6.280  18.608  2.9363  0.4931 -0.7343
 2444TIP3    H231528   0.440   6.211  18.474 -2.2068 -1.3356 -0.6305
 2445TIP3   OH231529   1.039   0.630  18.713  0.4329  0.4204  0.0932
 2445TIP3    H131530   1.109   0.566  18.706  0.2694  0.1775  0.6627
 2445TIP3    H231531   0.984   0.599  18.785 -0.1146  0.7450 -0.1700
 2446TIP3   OH231532   1.189   2.904  19.213  0.4559 -0.7202  0.4247
 2446TIP3    H131533   1.256   2.971  19.221  0.9444 -1.1140 -0.2506
 2446TIP3    H231534   1.111   2.942  19.254  0.4417  0.6517 -0.7705
 2447TIP3   OH231535   0.656   1.513  19.316  0.3257  0.8308  0.3066
 2447TIP3    H131536   0.590   1.567  19.273  0.5364  1.2453  0.5002
 2447TIP3    H231537   0.738   1.559  19.302  0.4457  0.7987  0.8592
 2448TIP3   OH231538   2.198   2.464  16.430 -0.1411 -0.4982  0.2125
 2448TIP3    H131539   2.169   2.387  16.381  1.2511 -0.7106 -0.3129
 2448TIP3    H231540   2.291   2.471  16.410  0.0407  0.5248  1.3448
 2449TIP3   OH231541   0.704   5.504  18.141  0.5243 -0.1028  0.0721
 2449TIP3    H131542   0.691   5.486  18.234 -0.4290 -1.1099 -0.2396
 2449TIP3    H231543   0.684   5.597  18.132 -0.3640 -0.2184  0.7134
 2450TIP3   OH231544   4.332   5.805  17.674  0.1681 -0.3053  0.1274
 2450TIP3    H131545   4.306   5.892  17.646 -1.2249 -0.4006  1.0419
 2450TIP3    H231546   4.426   5.801  17.655 -0.0505  0.8081 -1.3522
 2451TIP3   OH231547   4.566   6.020  18.887  0.8456  0.2078  0.3406
 2451TIP3    H131548   4.532   5.964  18.957 -0.2546  0.3149 -0.0812
 2451TIP3    H231549   4.494   6.025  18.824  0.2778  3.3436  1.0837
 2452TIP3   OH231550   6.331   2.481  18.523 -0.4407 -0.4954  0.4016
 2452TIP3    H131551   6.313   2.532  18.444 -1.6501 -0.5877  0.6006
 2452TIP3    H231552   6.404   2.424  18.499  0.3960  0.7471 -0.0771
 2453TIP3   OH231553   2.555   5.369  17.005 -0.1305 -0.1815  0.3895
 2453TIP3    H131554   2.485   5.384  16.941 -0.2975 -1.7123  0.1720
 2453TIP3    H231555   2.615   5.442  16.993  1.2142 -1.6692 -3.3966
 2454TIP3   OH231556   2.024   5.316  18.960  0.4727 -0.5197 -0.3646
 2454TIP3    H131557   2.059   5.227  18.955  2.9388  0.2436  1.1952
 2454TIP3    H231558   1.987   5.322  19.048  1.4820  0.3160  0.0321
 2455TIP3   OH231559   6.006   0.211  18.547 -0.9866  0.4181 -0.1955
 2455TIP3    H131560   6.018   0.265  18.469 -1.1124  1.4436  0.4583
 2455TIP3    H231561   6.000   0.275  18.619  1.6592 -0.5560  1.0073
 2456TIP3   OH231562   5.021   1.549  18.074  0.5176 -0.1355 -0.2351
 2456TIP3    H131563   4.959   1.619  18.053  1.4213  0.9402  0.5694
 2456TIP3    H231564   5.102   1.594  18.094  0.9218 -1.3641  1.0702
 2457TIP3   OH231565   3.375   6.264  18.583 -0.3504 -0.2314  0.0726
 2457TIP3    H131566   3.314   6.245  18.512 -1.1824  1.0403  0.3899
 2457TIP3    H231567   3.324   6.245  18.663 -0.0099 -0.0754  0.3294
 2458TIP3   OH231568   4.178   2.947  18.278  0.8025  0.1505  0.1622
 2458TIP3    H131569   4.202   3.039  18.285 -2.2520  1.0693  0.0238
 2458TIP3    H231570   4.166   2.918  18.368  2.4107 -0.3729  0.2444
 2459TIP3   OH231571   3.107   4.829  19.461  0.0280  0.0211  0.0941
 2459TIP3    H131572   3.112   4.740  19.427 -2.0835 -0.0961 -0.0677
 2459TIP3    H231573   3.197   4.859  19.463  0.5016 -0.4705 -4.1925
 2460TIP3   OH231574   4.005   0.119  17.287 -0.0963 -0.8147  0.1218
 2460TIP3    H131575   4.089   0.142  17.328 -1.1472  0.5105  1.6631
 2460TIP3    H231576   3.980   0.198  17.238 -0.4656 -1.1686 -0.2592
 2461TIP3   OH231577   4.750   0.165  17.815 -0.4977  0.1956  0.6512
 2461TIP3    H131578   4.756   0.086  17.868 -2.1280 -0.6049 -0.2763
 2461TIP3    H231579   4.709   0.230  17.872 -1.2347 -0.3297  0.7415
 2462TIP3   OH231580   3.870   6.383  17.964  0.0701  0.3641  0.8610
 2462TIP3    H131581   3.843   6.385  18.055  0.5834 -0.9322  1.0602
 2462TIP3    H231582   3.961   6.356  17.966 -0.7493 -3.0324 -0.1241
 2463TIP3   OH231583   4.427   3.609  16.797 -0.1896 -0.6888 -0.3690
 2463TIP3    H131584   4.334   3.613  16.775 -0.2036 -0.2084 -0.2386
 2463TIP3    H231585   4.438   3.677  16.864  0.0790 -1.3408  0.2494
 2464TIP3   OH231586   3.223   1.433  16.506  0.3874  0.2762  0.0587
 2464TIP3    H131587   3.160   1.405  16.573  0.2395  1.5828  0.4928
 2464TIP3    H231588   3.173   1.488  16.447  0.7735  0.0300 -0.5087
 2465TIP3   OH231589   2.719   1.020  18.173  0.1051 -0.0923  0.5998
 2465TIP3    H131590   2.687   0.937  18.209  1.2304  0.2895  2.6265
 2465TIP3    H231591   2.655   1.085  18.201 -1.1929 -0.2941 -1.6321
 2466TIP3   OH231592   0.758   3.900  17.503 -0.2768 -0.5426 -0.4112
 2466TIP3    H131593   0.702   3.847  17.560 -1.3991  0.0972 -0.8848
 2466TIP3    H231594   0.832   3.924  17.558 -1.2881  0.0032  0.7705
 2467TIP3   OH231595   1.158   1.262  17.393 -0.4102 -0.1846  0.0981
 2467TIP3    H131596   1.112   1.197  17.339 -1.2222 -0.0076  0.5562
 2467TIP3    H231597   1.224   1.212  17.441  0.1313 -0.3872 -0.8296
 2468TIP3   OH231598   2.496   1.891  17.405  0.4455 -0.6394 -0.0046
 2468TIP3    H131599   2.539   1.938  17.333  2.3122  1.3672  2.2147
 2468TIP3    H231600   2.403   1.910  17.394  0.8974  1.3986 -0.7616
 2469TIP3   OH231601   0.151   1.936  15.820 -0.2569  0.6935  0.2102
 2469TIP3    H131602   0.224   1.904  15.872 -1.0657  1.5279  1.9248
 2469TIP3    H231603   0.081   1.872  15.834 -0.1003  0.2567 -0.8829
 2470TIP3   OH231604   2.142   1.948  16.640 -0.1140  0.5190 -0.5157
 2470TIP3    H131605   2.061   1.982  16.603  0.6877  2.3115 -0.6926
 2470TIP3    H231606   2.115   1.869  16.687 -2.5727  2.7464  2.2010
 2471TIP3   OH231607   3.674   3.871  16.914  0.5052 -0.0684  0.1405
 2471TIP3    H131608   3.720   3.788  16.899  0.6676 -0.0750  0.6651
 2471TIP3    H231609   3.655   3.903  16.826  1.6698  0.0106 -0.1037
 2472TIP3   OH231610   5.758   0.996  17.611  0.1846  0.2906  0.0901
 2472TIP3    H131611   5.823   0.947  17.560 -0.5479  0.5654 -1.1398
 2472TIP3    H231612   5.740   0.940  17.686  0.0848 -0.8908 -0.7814
 2473TIP3   OH231613   3.219   3.614  17.201  0.2049 -0.1167 -0.9684
 2473TIP3    H131614   3.270   3.649  17.128  0.1077  1.1391 -0.4589
 2473TIP3    H231615   3.187   3.691  17.248  0.0249 -0.8901  0.2419
 2474TIP3   OH231616   0.448   5.892  16.541 -0.6186  0.1278  0.4106
 2474TIP3    H131617   0.430   5.983  16.515 -1.1115  0.1400  0.7673
 2474TIP3    H231618   0.490   5.900  16.627  2.2412  0.1488 -0.9110
 2475TIP3   OH231619   0.526   1.575  18.244  0.1457  0.2177 -0.6038
 2475TIP3    H131620   0.461   1.562  18.312 -0.1078  4.5367  0.2846
 2475TIP3    H231621   0.610   1.557  18.286 -0.1554  0.2277  0.0031
 2476TIP3   OH231622   6.746   5.662  17.358 -0.5928  0.3733 -0.1857
 2476TIP3    H131623   6.772   5.731  17.419  1.7783 -0.8778  0.3353
 2476TIP3    H231624   6.695   5.601  17.412 -0.2089  0.2746  0.0729
 2477TIP3   OH231625   2.617   2.769  18.506  0.4894  0.0804  0.5398
 2477TIP3    H131626   2.702   2.752  18.465 -0.0282 -0.6157 -0.2803
 2477TIP3    H231627   2.557   2.782  18.432 -0.1137  0.6301  1.1117
 2478TIP3   OH231628   1.507   3.078  18.887  0.1361 -0.2088 -0.0197
 2478TIP3    H131629   1.538   3.017  18.820 -1.4419  0.9877 -1.9797
 2478TIP3    H231630   1.526   3.165  18.850  0.2362  0.5085  1.6325
 2479TIP3   OH231631   2.222   0.490  16.476  0.3463 -0.5551  0.0802
 2479TIP3    H131632   2.151   0.476  16.538 -0.2960  0.8903 -0.2643
 2479TIP3    H231633   2.279   0.414  16.486 -1.2061 -1.7292  0.4180
 2480TIP3   OH231634   2.115   0.109  19.161  0.7597 -0.5645  0.5034
 2480TIP3    H131635   2.080   0.197  19.170  0.7703  0.1019 -3.9455
 2480TIP3    H231636   2.039   0.054  19.144  0.9168 -1.2348  1.7816
 2481TIP3   OH231637   3.605   3.539  18.045  0.2447 -0.1038  0.4151
 2481TIP3    H131638   3.655   3.621  18.048  0.3932 -0.1663 -0.1298
 2481TIP3    H231639   3.656   3.478  18.098  1.7530 -0.6838 -1.5484
 2482TIP3   OH231640   2.220   2.353  17.377  0.4764  0.3163 -0.2581
 2482TIP3    H131641   2.126   2.354  17.358  0.5871  0.0695 -0.8650
 2482TIP3    H231642   2.260   2.338  17.291  1.1498  2.1516 -0.2901
 2483TIP3   OH231643   5.984   0.610  17.029  0.2220  0.0827 -0.5178
 2483TIP3    H131644   5.965   0.696  16.991  0.0328 -0.4645 -1.7241
 2483TIP3    H231645   5.897   0.571  17.041  0.3394 -0.2483 -0.7467
 2484TIP3   OH231646   4.669   5.282  18.302 -0.3851  0.0546 -0.2931
 2484TIP3    H131647   4.713   5.367  18.299 -4.3405  2.3268 -1.0157
 2484TIP3    H231648   4.661   5.263  18.396  0.4458  0.4863 -0.1186
 2485TIP3   OH231649   4.238   2.979  17.604  0.4528 -0.0195  0.2144
 2485TIP3    H131650   4.192   2.914  17.657  0.4694  1.0355  1.5506
 2485TIP3    H231651   4.315   2.932  17.570  0.3971 -0.7305  1.0421
 2486TIP3   OH231652   5.576   3.695  17.170 -0.3089  0.8560 -0.1634
 2486TIP3    H131653   5.643   3.747  17.215 -0.6363 -0.5664  2.1386
 2486TIP3    H231654   5.506   3.685  17.235 -1.4717 -0.0958 -1.5163
 2487TIP3   OH231655   6.655   1.312  16.307  0.2740  0.2591  0.1531
 2487TIP3    H131656   6.651   1.328  16.401  2.5256  0.0249  0.3595
 2487TIP3    H231657   6.712   1.381  16.273 -0.3626  0.2356 -1.0166
 2488TIP3   OH231658   5.964   4.398  17.959  0.1331  0.0414 -0.3319
 2488TIP3    H131659   5.958   4.380  17.865 -0.1514  0.1026 -0.3284
 2488TIP3    H231660   5.901   4.337  17.998  0.8472 -0.5666 -0.1016
 2489TIP3   OH231661   3.504   0.262  17.519  0.1127  0.1498 -0.7203
 2489TIP3    H131662   3.477   0.305  17.438  1.4441  1.2639 -0.5935
 2489TIP3    H231663   3.593   0.291  17.534  0.6730 -1.7570  0.0037
 2490TIP3   OH231664   4.592   4.667  17.286 -0.4246  0.0503 -0.2106
 2490TIP3    H131665   4.639   4.591  17.252  0.2478  0.0728  0.6253
 2490TIP3    H231666   4.648   4.741  17.264 -0.6368  0.2074 -0.2242
 2491TIP3   OH231667   5.824   2.376  18.970 -0.5435 -0.0459  0.8456
 2491TIP3    H131668   5.749   2.357  19.026  0.1120  1.1368  2.1987
 2491TIP3    H231669   5.858   2.459  19.003  1.1180 -0.3531  0.0065
 2492TIP3   OH231670   3.403   0.455  18.453  0.1259 -0.1324  0.0813
 2492TIP3    H131671   3.463   0.525  18.429  0.1125  0.5714  1.9495
 2492TIP3    H231672   3.458   0.378  18.464  0.5426  0.2425  0.6756
 2493TIP3   OH231673   3.644   4.701  15.691 -0.1060  0.7809 -0.2802
 2493TIP3    H131674   3.559   4.683  15.730  0.4928  1.1263  1.2308
 2493TIP3    H231675   3.673   4.783  15.732  1.5291 -0.0093  0.2287
 2494TIP3   OH231676   5.355   3.285  16.510 -0.2547  0.2980  0.2198
 2494TIP3    H131677   5.264   3.313  16.503 -0.6842 -1.2304 -0.8071
 2494TIP3    H231678   5.406   3.365  16.500 -1.4564  0.9254 -1.2528
 2495TIP3   OH231679   2.566   1.881  19.723  0.2886  0.2449  0.2822
 2495TIP3    H131680   2.544   1.894  19.816  0.8643 -0.5821  0.5487
 2495TIP3    H231681   2.488   1.908  19.676 -0.3342 -0.1396  1.0681
 2496TIP3   OH231682   1.713   3.052  19.284 -0.4671 -0.3384 -0.0309
 2496TIP3    H131683   1.730   3.100  19.365 -1.4155  0.9530 -0.5580
 2496TIP3    H231684   1.763   3.098  19.218 -0.3854 -0.8549 -0.3329
 2497TIP3   OH231685   2.198   5.211  18.185  0.7126  0.1046  0.1316
 2497TIP3    H131686   2.111   5.235  18.156  1.4647  1.4879 -1.1186
 2497TIP3    H231687   2.233   5.158  18.113  1.8491  1.8303 -0.6449
 2498TIP3   OH231688   2.495   4.051  17.027  0.1161 -1.0017  0.1874
 2498TIP3    H131689   2.402   4.065  17.013  0.5235  2.4143  0.0965
 2498TIP3    H231690   2.502   4.019  17.117 -1.0682  0.6096  0.9026
 2499TIP3   OH231691   6.311   4.003  17.885  0.5794 -0.5046  0.4333
 2499TIP3    H131692   6.317   4.084  17.936  2.3412  0.2765 -0.8997
 2499TIP3    H231693   6.385   3.950  17.915  0.4872 -0.8563  0.0515
 2500TIP3   OH231694   2.192   5.065  16.871  0.4826  0.0479 -0.1585
 2500TIP3    H131695   2.173   4.973  16.891 -0.7343  0.4699  0.7165
 2500TIP3    H231696   2.107   5.107  16.866  1.0543  1.4604  1.1421
 2501TIP3   OH231697   0.714   1.712  18.653 -0.2280  0.2832 -0.2201
 2501TIP3    H131698   0.723   1.807  18.645 -0.8312  0.2305 -2.0184
 2501TIP3    H231699   0.799   1.682  18.686  0.5702  1.2971 -1.2824
 2502TIP3   OH231700   1.652   5.934  15.879 -0.0667  0.4192  0.0187
 2502TIP3    H131701   1.649   5.869  15.808 -3.8069 -1.5499  1.7153
 2502TIP3    H231702   1.619   6.014  15.839 -1.5512 -0.4969 -0.6837
 2503TIP3   OH231703   3.093   3.789  16.829 -0.1807  0.6540 -0.1286
 2503TIP3    H131704   3.144   3.782  16.748  0.9201  1.8017  0.4392
 2503TIP3    H231705   3.004   3.809  16.799 -0.1455 -0.4781 -1.0917
 2504TIP3   OH231706   3.265   4.515  18.542 -0.3554  0.1905  0.3473
 2504TIP3    H131707   3.310   4.570  18.607 -0.7017  0.1387  0.6279
 2504TIP3    H231708   3.254   4.431  18.585  0.1113 -0.0854 -0.0637
 2505TIP3   OH231709   0.438   5.578  15.924 -0.4772 -0.2936 -0.7524
 2505TIP3    H131710   0.386   5.650  15.890 -2.2745 -0.6787  0.9736
 2505TIP3    H231711   0.432   5.587  16.019  2.4749 -0.5209 -0.4640
 2506TIP3   OH231712   1.847   5.745  18.120 -0.4852 -0.3446 -0.1770
 2506TIP3    H131713   1.804   5.798  18.053  2.2066  1.6379 -0.5268
 2506TIP3    H231714   1.827   5.789  18.203 -0.2877 -0.2627 -0.1731
 2507TIP3   OH231715   4.354   5.286  17.757 -0.2037  0.0725 -0.1649
 2507TIP3    H131716   4.319   5.359  17.809  0.8066 -0.5610  1.5017
 2507TIP3    H231717   4.354   5.318  17.667  0.6300  2.3113  0.5561
 2508TIP3   OH231718   5.825   0.640  16.688  0.0579  0.4478 -0.4344
 2508TIP3    H131719   5.892   0.639  16.757  0.1699  1.6928 -0.5105
 2508TIP3    H231720   5.870   0.604  16.612  0.5315  0.9196 -0.3831
 2509TIP3   OH231721   0.105   2.971  19.526  0.1548 -0.2528 -0.3434
 2509TIP3    H131722   0.073   2.997  19.439 -0.0754 -2.3959 -0.9637
 2509TIP3    H231723   0.148   2.887  19.511 -0.5105 -1.0266  1.7490
 2510TIP3   OH231724   3.456   1.440  17.979 -0.1314 -0.4167 -0.4544
 2510TIP3    H131725   3.509   1.366  17.950  0.6236  0.3891 -1.1695
 2510TIP3    H231726   3.381   1.400  18.022 -0.1084 -1.6140 -1.4754
 2511TIP3   OH231727   1.040   4.687  15.558  0.2281  0.2360  0.0607
 2511TIP3    H131728   1.114   4.686  15.620 -0.2779 -0.6232  0.6696
 2511TIP3    H231729   1.079   4.662  15.474  0.6037 -0.3674  0.4113
 2512TIP3   OH231730   2.530   4.775  18.466 -0.0384 -0.1767  0.5943
 2512TIP3    H131731   2.545   4.867  18.485 -1.4853  0.2950 -0.3361
 2512TIP3    H231732   2.616   4.739  18.450  0.3903  1.6325 -1.6487
 2513TIP3   OH231733   1.834   0.421  18.765  0.4954  0.0963 -0.4715
 2513TIP3    H131734   1.826   0.326  18.757 -0.3549  0.1505 -0.3379
 2513TIP3    H231735   1.747   0.451  18.793 -0.1468  1.2214 -3.2711
 2514TIP3   OH231736   4.395   3.567  16.268  0.3922 -0.2861 -0.4907
 2514TIP3    H131737   4.464   3.503  16.249 -0.1445 -0.7161 -1.0222
 2514TIP3    H231738   4.355   3.535  16.349  0.7573 -0.0872 -0.2326
 2515TIP3   OH231739   4.817   2.854  16.779  0.1239  0.5866  0.2109
 2515TIP3    H131740   4.830   2.759  16.773 -1.1006  0.2954  1.6745
 2515TIP3    H231741   4.722   2.865  16.784  0.2789  1.8433  0.7751
 2516TIP3   OH231742   6.732   5.269  16.432 -0.2138  0.5564  0.1263
 2516TIP3    H131743   6.818   5.310  16.437  0.8088 -1.4841  0.1358
 2516TIP3    H231744   6.682   5.328  16.374  2.1789  0.1971 -2.5695
 2517TIP3   OH231745   2.757   5.978  16.710 -0.6455  0.0455  0.6183
 2517TIP3    H131746   2.833   5.982  16.652 -1.1439  1.0916  0.0091
 2517TIP3    H231747   2.769   5.897  16.760 -0.7885 -1.5644 -1.7909
 2518TIP3   OH231748   4.200   5.730  17.912  0.3532 -0.4022  0.2191
 2518TIP3    H131749   4.112   5.730  17.876  0.2600 -0.8170  0.4408
 2518TIP3    H231750   4.256   5.758  17.839  0.3329 -2.5557 -0.7092
 2519TIP3   OH231751   3.551   1.191  17.911 -0.2945 -0.0213  0.3065
 2519TIP3    H131752   3.614   1.141  17.859 -0.8725 -0.1427 -0.2981
 2519TIP3    H231753   3.530   1.135  17.985 -0.4108 -0.3863  0.0022
 2520TIP3   OH231754   3.980   0.325  18.841  0.3588 -0.5218 -0.5799
 2520TIP3    H131755   3.945   0.244  18.879 -0.2476 -0.0245 -0.0488
 2520TIP3    H231756   3.927   0.339  18.763 -1.1380  0.5700  0.5616
 2521TIP3   OH231757   5.407   3.032  19.153 -0.4407 -0.3651 -0.0323
 2521TIP3    H131758   5.326   3.008  19.109 -0.5711  0.2804 -0.1564
 2521TIP3    H231759   5.462   2.954  19.147 -0.8162 -0.5993 -0.4932
 2522TIP3   OH231760   5.229   5.684  17.821 -0.4625  0.3203 -0.0434
 2522TIP3    H131761   5.303   5.624  17.827  0.8313  1.9543  1.7642
 2522TIP3    H231762   5.193   5.688  17.909 -0.8413  1.7461 -0.2235
 2523TIP3   OH231763   5.373   4.860  18.926  0.3947  0.8734 -0.2295
 2523TIP3    H131764   5.380   4.773  18.966  0.2962  0.7316 -0.5193
 2523TIP3    H231765   5.302   4.903  18.974  0.7230  0.9491  0.1983
 2524TIP3   OH231766   0.319   5.236  17.721 -0.0666  0.2160 -0.6305
 2524TIP3    H131767   0.380   5.252  17.649  1.4567  0.3803  0.6522
 2524TIP3    H231768   0.332   5.144  17.743 -0.8831  0.0383 -0.8551
 2525TIP3   OH231769   4.856   5.025  19.177 -0.7057 -0.2748 -0.5244
 2525TIP3    H131770   4.942   4.985  19.162 -0.8933 -0.9035  0.0371
 2525TIP3    H231771   4.794   4.961  19.144 -0.9559  0.5815 -1.8170
 2526TIP3   OH231772   5.054   5.208  16.992  0.1992 -0.2854  0.1106
 2526TIP3    H131773   5.005   5.135  17.030 -1.0271 -0.4938 -1.7153
 2526TIP3    H231774   5.125   5.166  16.943 -0.3155 -0.2649 -0.6740
 2527TIP3   OH231775   3.043   1.905  17.430 -0.3953  0.4560 -0.0346
 2527TIP3    H131776   3.051   1.812  17.412  0.1474  0.3923  0.5116
 2527TIP3    H231777   3.018   1.944  17.346 -1.1333 -0.2386 -0.1485
 2528TIP3   OH231778   2.435   1.815  18.835  0.4433  0.1003  0.2736
 2528TIP3    H131779   2.375   1.742  18.820 -1.3745  1.1689  1.8567
 2528TIP3    H231780   2.392   1.867  18.903  2.7673  1.4232  0.8264
 2529TIP3   OH231781   4.467   1.811  18.645 -0.7200  0.2094 -0.0276
 2529TIP3    H131782   4.535   1.840  18.705 -1.3949  0.0527  0.8510
 2529TIP3    H231783   4.387   1.854  18.676 -1.2049 -0.3847 -0.4061
 2530TIP3   OH231784   6.451   2.906  16.089 -0.1878  0.3153 -0.1731
 2530TIP3    H131785   6.450   2.899  15.993  0.5168 -2.8804 -0.0736
 2530TIP3    H231786   6.394   2.834  16.118  1.1742 -0.0324  1.8048
 2531TIP3   OH231787   2.786   0.226  18.556 -0.5186  0.0123 -0.6116
 2531TIP3    H131788   2.769   0.180  18.474 -2.9054 -0.6663  0.1800
 2531TIP3    H231789   2.734   0.306  18.549  0.1947  0.5192 -0.2091
 2532TIP3   OH231790   2.821   6.427  17.528  0.3273  0.1592  0.4209
 2532TIP3    H131791   2.750   6.364  17.541  0.1692  0.4109  0.7787
 2532TIP3    H231792   2.794   6.504  17.577  1.6255 -0.3401  2.0098
 2533TIP3   OH231793   0.548   2.268  16.784 -0.0537  0.5289 -0.2496
 2533TIP3    H131794   0.574   2.203  16.719 -2.7830 -0.0407 -0.8832
 2533TIP3    H231795   0.559   2.352  16.740  2.6280  0.5593  0.2733
 2534TIP3   OH231796   5.344   4.734  16.873  0.1380 -0.0739 -0.3273
 2534TIP3    H131797   5.266   4.726  16.929 -1.6120  2.9188 -2.0513
 2534TIP3    H231798   5.309   4.731  16.783  2.2136  0.0678 -1.2010
 2535TIP3   OH231799   1.984   6.410  17.482 -0.0366  0.0278  0.1155
 2535TIP3    H131800   1.925   6.338  17.506 -0.8268  0.8131  0.5751
 2535TIP3    H231801   2.043   6.417  17.556  0.9940 -1.0858 -0.5570
 2536TIP3   OH231802   3.078   4.750  16.266  0.4278  0.2958 -0.1100
 2536TIP3    H131803   3.147   4.698  16.223  1.3773  2.1723 -0.9801
 2536TIP3    H231804   3.026   4.784  16.193  1.3397  2.5639  0.2154
 2537TIP3   OH231805   2.961   1.016  17.420  0.2960 -0.4169  0.2188
 2537TIP3    H131806   3.055   1.023  17.403  0.2956 -0.3389  0.2445
 2537TIP3    H231807   2.935   0.934  17.379  0.1257  0.1812 -0.9002
 2538TIP3   OH231808   4.036   2.994  19.128  0.3350 -0.2573  0.3028
 2538TIP3    H131809   4.009   3.072  19.175 -0.4216  0.5839 -1.4209
 2538TIP3    H231810   4.124   2.975  19.161  0.4916  1.2540  0.8364
 2539TIP3   OH231811   2.668   1.276  17.515  0.5430  0.8075  0.2672
 2539TIP3    H131812   2.589   1.278  17.569 -0.2392  0.7098 -0.8517
 2539TIP3    H231813   2.740   1.290  17.577 -0.3218  0.5514  1.3468
 2540TIP3   OH231814   4.710   5.919  17.328 -0.7543 -0.0873  0.1896
 2540TIP3    H131815   4.743   5.848  17.272 -1.6338  0.7086 -1.4093
 2540TIP3    H231816   4.786   5.945  17.380  0.2771 -0.4899 -1.0523
 2541TIP3   OH231817   4.827   2.237  18.496  0.3323  0.2504 -0.3818
 2541TIP3    H131818   4.844   2.308  18.434 -0.6690  0.2579 -0.6713
 2541TIP3    H231819   4.872   2.161  18.459 -1.8605 -0.2586 -2.2340
 2542TIP3   OH231820   1.249   2.427  19.467  0.6358 -0.9451  0.5221
 2542TIP3    H131821   1.215   2.466  19.548  0.0899 -0.8666  0.2620
 2542TIP3    H231822   1.195   2.465  19.398  0.9913 -1.1360  0.1354
 2543TIP3   OH231823   2.531   4.779  18.037 -0.2011 -0.8033 -0.2902
 2543TIP3    H131824   2.594   4.710  18.014 -0.0108 -0.3746 -1.0809
 2543TIP3    H231825   2.582   4.860  18.037 -0.8397 -0.3819 -1.4470
 2544TIP3   OH231826   6.219   4.025  17.600  0.5428  0.7206 -0.6066
 2544TIP3    H131827   6.259   4.014  17.686  2.0587  1.4716 -1.1862
 2544TIP3    H231828   6.276   3.976  17.541 -0.8440 -0.3278 -1.1243
 2545TIP3   OH231829   5.225   0.891  16.665 -0.2317 -0.2002  0.0338
 2545TIP3    H131830   5.244   0.798  16.652  0.0273 -0.3523  1.3457
 2545TIP3    H231831   5.304   0.926  16.707 -0.9762  0.2305  1.1269
 2546TIP3   OH231832   6.739   6.259  18.611 -0.0102  0.2060 -0.3573
 2546TIP3    H131833   6.729   6.344  18.653  1.6484 -0.5259  1.6298
 2546TIP3    H231834   6.746   6.197  18.683  1.1580 -1.3269 -1.7251
 2547TIP3   OH231835   0.358   4.075  18.086  0.6292  0.1035  0.2266
 2547TIP3    H131836   0.272   4.090  18.048  0.4674 -3.2571 -1.1158
 2547TIP3    H231837   0.347   3.998  18.142  2.5433  0.1907  0.8247
 2548TIP3   OH231838   3.195   6.247  19.503  0.0178 -0.3500 -0.1548
 2548TIP3    H131839   3.140   6.266  19.427  0.6447 -0.7280 -0.7150
 2548TIP3    H231840   3.139   6.195  19.560 -1.1704  1.6777  0.6414
 2549TIP3   OH231841   5.211   6.177  16.281  0.3496 -0.2374  0.0610
 2549TIP3    H131842   5.159   6.219  16.212 -0.7142 -0.6183  0.6099
 2549TIP3    H231843   5.256   6.249  16.325 -1.4464  0.3463  0.9917
 2550TIP3   OH231844   2.254   0.157  15.577 -0.1648  0.2599 -0.3184
 2550TIP3    H131845   2.162   0.159  15.604 -0.8546  1.0683 -2.5110
 2550TIP3    H231846   2.281   0.249  15.576 -0.8245  0.5586 -4.1217
 2551TIP3   OH231847   5.302   5.214  17.232  0.7301 -0.0305 -0.4207
 2551TIP3    H131848   5.271   5.288  17.179  1.5955 -0.2646 -1.2757
 2551TIP3    H231849   5.358   5.164  17.173  2.7872  0.3899  1.0649
 2552TIP3   OH231850   1.948   4.092  17.970  0.3270 -0.2144 -0.2633
 2552TIP3    H131851   1.895   4.080  18.049 -1.3022  1.2557 -1.0534
 2552TIP3    H231852   1.930   4.015  17.917  1.8123 -1.4580  0.9375
 2553TIP3   OH231853   5.470   0.267  16.572 -0.8239  0.1790 -0.0726
 2553TIP3    H131854   5.497   0.207  16.641 -0.5766 -2.6250 -2.4129
 2553TIP3    H231855   5.374   0.269  16.577 -0.7666  1.8568  1.6795
 2554TIP3   OH231856   6.574   2.658  18.537 -0.2464 -0.3162 -0.0663
 2554TIP3    H131857   6.587   2.724  18.605 -0.0914 -0.3206 -0.0924
 2554TIP3    H231858   6.577   2.575  18.584  0.4242 -0.3460 -0.1599
 2555TIP3   OH231859   2.311   0.268  16.632 -0.0934 -0.3567 -0.2310
 2555TIP3    H131860   2.352   0.186  16.661 -1.8120 -0.9234  0.7365
 2555TIP3    H231861   2.236   0.279  16.690  0.8986  2.7097  0.6084
 2556TIP3   OH231862   4.357   6.532  18.489 -0.5831  0.1197 -0.3391
 2556TIP3    H131863   4.331   6.588  18.562 -2.2135 -0.6628 -0.2606
 2556TIP3    H231864   4.354   6.443  18.524  0.4868 -0.1299 -0.8572
 2557TIP3   OH231865   2.376   5.476  16.781 -0.5548  0.0589  0.2658
 2557TIP3    H131866   2.429   5.526  16.719 -0.1613 -0.2601  0.3441
 2557TIP3    H231867   2.298   5.452  16.731 -0.1318 -0.4051 -0.1834
 2558TIP3   OH231868   6.442   4.217  16.659  0.3221  0.1139  0.3582
 2558TIP3    H131869   6.440   4.170  16.575  1.9048  2.2615 -0.9835
 2558TIP3    H231870   6.353   4.250  16.670  0.8833  3.1495 -2.6213
 2559TIP3   OH231871   2.220   1.645  18.796  0.8813 -0.0763 -0.7711
 2559TIP3    H131872   2.263   1.564  18.770  1.1539 -0.3434  0.4587
 2559TIP3    H231873   2.127   1.629  18.780  0.8672 -0.8690  0.0340
 2560TIP3   OH231874   6.518   3.165  17.344  0.7688 -0.0385 -0.1248
 2560TIP3    H131875   6.591   3.104  17.358 -0.2855 -1.2317  0.4437
 2560TIP3    H231876   6.546   3.247  17.384  0.9063 -1.1603  2.2569
 2561TIP3   OH231877   1.397   6.152  15.607 -0.3674  0.2311  0.2669
 2561TIP3    H131878   1.306   6.135  15.630 -0.6185 -0.2244 -0.9799
 2561TIP3    H231879   1.416   6.091  15.535  1.0634  0.0072  0.7996
 2562TIP3   OH231880   0.157   4.018  15.908  0.5101  0.4145 -0.4561
 2562TIP3    H131881   0.203   4.073  15.844  3.1083 -0.3698  0.6320
 2562TIP3    H231882   0.145   4.075  15.984  0.3398  0.3990 -0.4706
 2563TIP3   OH231883   4.543   4.520  17.796 -0.8024 -0.3256  0.7957
 2563TIP3    H131884   4.618   4.505  17.853 -1.0745  0.2717  1.3274
 2563TIP3    H231885   4.580   4.558  17.716 -0.3368 -1.8802  0.2481
 2564TIP3   OH231886   3.793   0.393  18.627  0.0269  0.6890  0.0347
 2564TIP3    H131887   3.777   0.449  18.703  1.9890  1.8042 -0.3270
 2564TIP3    H231888   3.817   0.453  18.557  0.1568 -0.4642 -0.9496
 2565TIP3   OH231889   3.805   4.408  17.841  0.5853  0.0639  0.5204
 2565TIP3    H131890   3.764   4.330  17.877  0.2636 -0.9467 -1.8727
 2565TIP3    H231891   3.772   4.414  17.752  1.5995  2.2271  0.2252
 2566TIP3   OH231892   5.946   3.309  18.152 -0.6243  0.1872 -1.1059
 2566TIP3    H131893   5.935   3.390  18.202 -0.4031 -0.1903 -0.4245
 2566TIP3    H231894   6.038   3.284  18.165 -0.9724 -0.7832 -0.3238
 2567TIP3   OH231895   2.356   0.908  16.826  0.2154 -0.4566  0.1842
 2567TIP3    H131896   2.442   0.867  16.818  0.6856  0.3736  0.7504
 2567TIP3    H231897   2.364   0.965  16.903 -0.9648 -0.6597  0.4776
 2568TIP3   OH231898   3.968   1.266  17.794 -0.2960  0.0443 -0.4366
 2568TIP3    H131899   3.980   1.352  17.754  1.3410  0.1244  0.1555
 2568TIP3    H231900   4.032   1.210  17.749 -2.1647 -1.2071 -1.6739
 2569TIP3   OH231901   1.713   3.258  17.831 -0.2193  0.2327  0.1998
 2569TIP3    H131902   1.685   3.284  17.743 -0.4621  1.2367  0.5552
 2569TIP3    H231903   1.700   3.163  17.833 -1.1888  0.3324 -0.5069
 2570TIP3   OH231904   3.060   0.245  19.027 -0.3655  0.7809  0.2059
 2570TIP3    H131905   3.091   0.320  19.077  1.1461 -0.4450  1.2058
 2570TIP3    H231906   3.139   0.209  18.986 -0.8880 -0.7773  0.4831
 2571TIP3   OH231907   6.419   0.337  18.435  0.5529  0.1214 -0.1930
 2571TIP3    H131908   6.369   0.417  18.416 -1.0038 -1.0461 -1.3501
 2571TIP3    H231909   6.354   0.267  18.427  2.3094 -1.4516 -1.4150
 2572TIP3   OH231910   6.304   4.749  16.751  0.6467 -0.2662 -0.2247
 2572TIP3    H131911   6.299   4.844  16.746  0.7726 -0.3032 -1.3668
 2572TIP3    H231912   6.305   4.720  16.660  0.4013 -1.3739  0.1048
 2573TIP3   OH231913   5.271   5.180  19.046 -0.0069 -0.1151  0.2608
 2573TIP3    H131914   5.300   5.195  18.956 -1.1631 -0.4815 -0.1826
 2573TIP3    H231915   5.237   5.265  19.074  1.8645  0.4646  0.9662
 2574TIP3   OH231916   1.883   1.274  17.821  0.1071 -0.0869  0.3624
 2574TIP3    H131917   1.876   1.211  17.893  1.2763 -0.1300  0.4571
 2574TIP3    H231918   1.863   1.223  17.742 -0.7576 -0.1356  0.5996
 2575TIP3   OH231919   6.243   1.073  18.964 -0.2914  0.2565  0.3710
 2575TIP3    H131920   6.287   1.082  19.049 -0.7802  1.8667  0.4851
 2575TIP3    H231921   6.152   1.097  18.982 -0.0858  2.2786 -0.8782
 2576TIP3   OH231922   2.527   6.186  18.000  0.5742  0.1246  1.0498
 2576TIP3    H131923   2.577   6.250  18.049  1.7599  1.6353 -1.8951
 2576TIP3    H231924   2.541   6.209  17.908 -2.2416 -1.9158 -0.0573
 2577TIP3   OH231925   6.081   0.309  16.042  0.3973  0.0962  0.2434
 2577TIP3    H131926   6.132   0.232  16.019  0.6535  0.9640 -2.4431
 2577TIP3    H231927   5.993   0.291  16.007  0.4523  0.9741 -0.3877
 2578TIP3   OH231928   4.877   4.268  16.488 -0.1168 -0.2949 -0.2700
 2578TIP3    H131929   4.921   4.336  16.436 -0.6168 -1.1994 -1.9590
 2578TIP3    H231930   4.859   4.198  16.426 -0.8609 -1.4054  1.1313
 2579TIP3   OH231931   1.472   0.714  18.814 -0.1524  0.0508 -0.2808
 2579TIP3    H131932   1.537   0.768  18.770  0.0203 -0.5397 -0.7692
 2579TIP3    H231933   1.389   0.739  18.773 -0.0665 -0.0864 -0.5438
 2580TIP3   OH231934   1.509   5.693  17.205 -0.2342  0.0475 -0.6435
 2580TIP3    H131935   1.600   5.670  17.184  0.4963  1.4407  0.7683
 2580TIP3    H231936   1.472   5.722  17.122  0.4819 -0.8717 -1.3087
 2581TIP3   OH231937   5.228   0.235  18.956 -0.3510 -0.0158  0.0685
 2581TIP3    H131938   5.170   0.299  18.913 -1.5880  0.4597  2.2933
 2581TIP3    H231939   5.177   0.154  18.959 -0.6768  0.2048  1.3720
 2582TIP3   OH231940   4.787   2.238  17.757 -0.1337  0.8139 -0.6470
 2582TIP3    H131941   4.740   2.295  17.818  0.1439  0.9441 -0.5522
 2582TIP3    H231942   4.858   2.293  17.723  0.7351  0.2419  0.1767
 2583TIP3   OH231943   5.271   3.532  16.291  0.1681  0.5744  0.2274
 2583TIP3    H131944   5.349   3.589  16.293  0.5744  0.0182  1.6811
 2583TIP3    H231945   5.197   3.593  16.297  0.5569  1.0042  0.7394
 2584TIP3   OH231946   3.057   4.598  18.866 -0.0369  0.0843 -0.2355
 2584TIP3    H131947   3.056   4.523  18.925 -2.5405 -1.5487 -2.1478
 2584TIP3    H231948   3.148   4.606  18.838  0.9837  0.1994  2.8413
 2585TIP3   OH231949   1.639   6.634  18.346  0.1383  0.1294  0.2861
 2585TIP3    H131950   1.671   6.558  18.395  2.0432 -1.3074 -2.8810
 2585TIP3    H231951   1.711   6.697  18.352  0.4740 -0.1364 -0.7159
 2586TIP3   OH231952   2.576   4.423  16.987 -0.1650  0.1805 -0.5840
 2586TIP3    H131953   2.666   4.399  16.966  0.2898 -0.4175  1.7680
 2586TIP3    H231954   2.580   4.516  17.009 -0.2320  0.2910 -1.0381
 2587TIP3   OH231955   6.128   3.807  17.759 -0.2818  0.3081  0.5658
 2587TIP3    H131956   6.182   3.836  17.833  0.9254 -0.0747 -0.1268
 2587TIP3    H231957   6.040   3.836  17.781  0.1772  0.8619  1.8022
 2588TIP3   OH231958   0.329   4.395  18.562  0.5986  0.2671 -0.1528
 2588TIP3    H131959   0.320   4.313  18.610  2.7090 -0.2564 -0.5418
 2588TIP3    H231960   0.334   4.369  18.470 -0.3171  1.0015 -0.4271
 2589TIP3   OH231961   3.444   0.575  17.496  0.5302  0.5771  0.3947
 2589TIP3    H131962   3.382   0.601  17.428 -0.1369  0.5387  0.9819
 2589TIP3    H231963   3.412   0.617  17.576  0.0083 -1.1983  1.1687
 2590TIP3   OH231964   2.783   5.920  17.647 -0.0265 -0.0662 -0.2474
 2590TIP3    H131965   2.801   6.003  17.690 -0.6057 -0.6753  1.2476
 2590TIP3    H231966   2.688   5.922  17.630 -0.1101 -0.5653  0.1401
 2591TIP3   OH231967   2.910   6.574  17.105 -0.0083  0.6418 -0.2564
 2591TIP3    H131968   2.841   6.507  17.104 -0.8587  1.4784  0.4136
 2591TIP3    H231969   2.960   6.554  17.185 -1.4103  1.8976  0.9849
 2592TIP3   OH231970   1.404   1.823  19.217 -0.0562 -0.5791  0.2698
 2592TIP3    H131971   1.431   1.838  19.307  1.0546 -0.3794 -0.0821
 2592TIP3    H231972   1.346   1.896  19.196  0.8033  0.1441  0.3797
 2593TIP3   OH231973   1.338   3.451  18.728  0.3422  0.0040 -0.4264
 2593TIP3    H131974   1.255   3.484  18.691  0.7586  0.2900 -1.1242
 2593TIP3    H231975   1.400   3.455  18.655  1.3321  1.0871  0.4310
 2594TIP3   OH231976   2.501   5.923  15.551 -0.2315 -0.3552 -0.3770
 2594TIP3    H131977   2.414   5.911  15.590 -0.0393  1.6487  0.8328
 2594TIP3    H231978   2.504   6.016  15.529  1.6045 -0.3812 -0.3670
 2595TIP3   OH231979   4.928   5.159  18.499 -0.0326 -0.8087  0.0783
 2595TIP3    H131980   4.957   5.209  18.423 -1.2060 -1.3319 -0.7389
 2595TIP3    H231981   4.847   5.202  18.526  0.7977 -0.1032  1.5791
 2596TIP3   OH231982   2.216   4.077  16.893  0.1191 -0.2501 -0.1082
 2596TIP3    H131983   2.139   4.076  16.949 -0.5816  0.2836 -1.0353
 2596TIP3    H231984   2.256   4.163  16.907 -0.3015  0.0532 -0.7392
 2597TIP3   OH231985   1.689   0.614  15.456  0.0178  0.0609  0.0710
 2597TIP3    H131986   1.701   0.702  15.492  0.1106  0.0723  0.0114
 2597TIP3    H231987   1.727   0.618  15.368  0.7445 -0.2564  0.3635
 2598TIP3   OH231988   6.079   6.522  17.773 -0.3585 -0.1109  0.1915
 2598TIP3    H131989   5.991   6.523  17.811 -0.1016 -0.1092  0.8079
 2598TIP3    H231990   6.065   6.526  17.679 -1.0004  0.9666  0.3139
 2599TIP3   OH231991   2.561   1.785  19.163 -0.2955 -0.0390  0.0489
 2599TIP3    H131992   2.638   1.802  19.108  0.9560 -0.4698  1.5781
 2599TIP3    H231993   2.514   1.716  19.117  1.4210 -1.3262  0.1070
 2600TIP3   OH231994   3.348   3.395  18.523  0.6438 -0.3761  0.0432
 2600TIP3    H131995   3.387   3.310  18.543 -1.0157 -0.8829  1.3035
 2600TIP3    H231996   3.254   3.377  18.514 -0.0042  1.5516  2.0402
 2601TIP3   OH231997   5.692   3.364  18.371 -0.3994 -0.6982  0.7129
 2601TIP3    H131998   5.714   3.385  18.280  0.4928 -3.1663  0.2655
 2601TIP3    H231999   5.719   3.441  18.421  0.2963  0.2075 -0.9655
 2602TIP3   OH232000   1.587   0.590  16.077 -0.4977  0.2285  0.1053
 2602TIP3    H132001   1.637   0.531  16.133  1.3035 -0.2207 -1.8277
 2602TIP3    H232002   1.619   0.677  16.100 -0.1093  0.0877  0.1109
 2603TIP3   OH232003   0.749   4.245  17.566  0.0793  0.0028 -0.4318
 2603TIP3    H132004   0.739   4.189  17.643  1.5170 -0.4192 -0.5174
 2603TIP3    H232005   0.747   4.334  17.600 -2.4508 -0.0251 -0.3151
 2604TIP3   OH232006   4.548   6.471  17.969  0.4666  0.2438  0.2297
 2604TIP3    H132007   4.606   6.406  18.008 -1.1933 -2.3099 -1.2493
 2604TIP3    H232008   4.484   6.490  18.037 -1.0985 -2.4901 -0.2892
 2605TIP3   OH232009   2.984   3.599  17.341  0.4311  0.0337 -0.0662
 2605TIP3    H132010   3.034   3.526  17.306 -1.7803 -1.7120  0.2151
 2605TIP3    H232011   2.901   3.561  17.369 -0.9090  2.6816 -0.0734
 2606TIP3   OH232012   4.845   3.607  18.450 -0.1942 -0.2237  0.2341
 2606TIP3    H132013   4.920   3.654  18.416 -0.0487 -0.7704 -0.2112
 2606TIP3    H232014   4.877   3.565  18.530  0.8206 -2.7601 -1.3855
 2607TIP3   OH232015   4.815   1.986  17.127  0.8285 -0.1236 -0.1614
 2607TIP3    H132016   4.861   1.951  17.051  1.9239 -0.1867  0.5048
 2607TIP3    H232017   4.723   1.982  17.103  1.2012  1.0637 -1.9989
 2608TIP3   OH232018   5.582   5.205  18.294  0.1128 -0.2841 -0.3691
 2608TIP3    H132019   5.507   5.173  18.344 -0.3245 -0.5082 -1.1524
 2608TIP3    H232020   5.543   5.244  18.215  0.8063 -0.2424 -0.6948
 2609TIP3   OH232021   0.089   1.135  18.507  0.6090 -0.3662  0.3463
 2609TIP3    H132022   0.037   1.059  18.485  0.5714 -0.7496  1.6717
 2609TIP3    H232023   0.179   1.102  18.516  0.8498  0.0283 -0.5465
 2610TIP3   OH232024   1.916   6.565  18.148 -0.4688 -0.1631 -0.3575
 2610TIP3    H132025   1.974   6.635  18.116  0.0993 -0.0532  0.8455
 2610TIP3    H232026   1.847   6.559  18.082  0.7973 -0.1470 -1.7311
 2611TIP3   OH232027   5.692   5.313  17.020  0.3522 -0.0782 -0.0612
 2611TIP3    H132028   5.733   5.247  17.076 -0.0503  0.6821  1.1471
 2611TIP3    H232029   5.761   5.378  17.004 -0.2719  1.1162  1.8369
 2612TIP3   OH232030   4.965   5.749  18.725 -0.1109 -0.2650  0.1694
 2612TIP3    H132031   4.907   5.820  18.751 -0.0647 -0.2910  0.3493
 2612TIP3    H232032   4.926   5.713  18.645 -0.4149 -0.3713  0.3664
 2613TIP3   OH232033   3.410   2.496  19.617 -0.3465 -0.2738  0.2274
 2613TIP3    H132034   3.463   2.462  19.545 -0.6810 -1.4148  0.5053
 2613TIP3    H232035   3.353   2.423  19.642 -1.6756  0.7307  0.2949
 2614TIP3   OH232036   1.863   2.220  17.901 -0.0036 -0.2519 -0.0176
 2614TIP3    H132037   1.832   2.299  17.858 -0.3937 -1.2364 -1.6634
 2614TIP3    H232038   1.954   2.210  17.869  0.8415  0.7100  1.9611
 2615TIP3   OH232039   0.033   6.519  17.618  0.5869  0.0297  0.4108
 2615TIP3    H132040   0.108   6.529  17.677  1.0978  1.0564 -0.3918
 2615TIP3    H232041  -0.043   6.517  17.676  1.1760 -0.2530  1.1838
 2616TIP3   OH232042   5.118   4.960  16.847 -0.1386 -0.3763 -0.4383
 2616TIP3    H132043   5.026   4.986  16.843 -0.2786 -0.7313  0.3584
 2616TIP3    H232044   5.126   4.913  16.930  0.5214 -1.2676 -0.9883
 2617TIP3   OH232045   5.838   4.941  16.805  0.2316 -0.2196  0.4301
 2617TIP3    H132046   5.869   4.922  16.717 -0.7157  0.1673  0.0072
 2617TIP3    H232047   5.850   5.035  16.816  0.5204 -0.2932  0.7916
 2618TIP3   OH232048   1.596   4.013  16.940  0.6735  0.2730 -0.4001
 2618TIP3    H132049   1.613   3.996  16.847 -1.2603 -0.4736 -0.6710
 2618TIP3    H232050   1.637   3.940  16.985 -0.1809 -0.5167 -0.8658
 2619TIP3   OH232051   6.566   2.219  18.193  0.3420 -0.0740 -0.6553
 2619TIP3    H132052   6.570   2.151  18.126  0.1180 -0.6685 -0.0728
 2619TIP3    H232053   6.605   2.179  18.271  0.4986  0.5702 -0.3976
 2620TIP3   OH232054   5.768   6.708  18.857  0.3721 -0.2188  0.0869
 2620TIP3    H132055   5.792   6.777  18.920  0.8206  0.4777 -0.8305
 2620TIP3    H232056   5.840   6.707  18.795  0.7848 -2.1009  0.5314
 2621TIP3   OH232057   3.373   2.811  18.407 -0.2047 -1.0377  0.3706
 2621TIP3    H132058   3.319   2.770  18.475  1.6196 -3.3609  0.5296
 2621TIP3    H232059   3.311   2.862  18.355 -2.0291 -1.1283  2.3257
 2622TIP3   OH232060   0.884   2.467  19.517  0.6643 -0.4055  0.1361
 2622TIP3    H132061   0.809   2.515  19.550 -0.4862 -2.3080  0.4085
 2622TIP3    H232062   0.942   2.535  19.481  0.0594  1.3495  2.2687
 2623TIP3   OH232063   2.933   6.370  17.936 -0.5265  0.0174  0.1823
 2623TIP3    H132064   2.902   6.450  17.979 -0.4202  0.3318 -0.3270
 2623TIP3    H232065   2.972   6.319  18.007 -1.0565  0.1883  0.5990
 2624TIP3   OH232066   2.564   6.752  18.559  0.0539  0.2608 -0.4497
 2624TIP3    H132067   2.586   6.775  18.469  0.4164  1.2084 -0.1234
 2624TIP3    H232068   2.480   6.795  18.575 -0.1420 -0.1266 -0.4111
 2625TIP3   OH232069   3.677   0.278  18.193 -0.0761  0.0302  0.0789
 2625TIP3    H132070   3.750   0.297  18.134 -0.9023 -0.1298 -1.0271
 2625TIP3    H232071   3.601   0.266  18.135 -1.1475  0.9141  1.2336
 2626TIP3   OH232072   3.136   3.581  17.981 -0.1264  0.8578  0.1949
 2626TIP3    H132073   3.064   3.530  17.944 -0.8388  1.7243  0.3491
 2626TIP3    H232074   3.140   3.554  18.073 -2.2785  2.9227  1.0063
 2627TIP3   OH232075   0.211   4.783  16.779 -0.0555 -0.4477  0.4398
 2627TIP3    H132076   0.205   4.871  16.816 -2.2762 -0.4719  0.2901
 2627TIP3    H232077   0.131   4.740  16.807  0.7497 -2.2718  0.0849
 2628TIP3   OH232078   0.242   4.425  18.080 -0.4498  0.0978  0.5547
 2628TIP3    H132079   0.327   4.418  18.036  0.1943  2.0592  1.3878
 2628TIP3    H232080   0.204   4.337  18.072  1.1485 -0.5288 -0.8226
 2629TIP3   OH232081   6.632   0.035  17.077  0.3418  0.4777 -0.4475
 2629TIP3    H132082   6.685   0.011  17.154  0.4957  1.5501 -0.2004
 2629TIP3    H232083   6.543   0.042  17.111  0.4439  1.1691 -0.3123
 2630TIP3   OH232084   5.952   3.340  18.551 -0.2155  0.0866  0.2937
 2630TIP3    H132085   5.963   3.425  18.509 -0.4731 -0.2842 -0.5640
 2630TIP3    H232086   5.857   3.326  18.553 -0.1540 -0.4748 -0.2213
 2631TIP3   OH232087   0.499   0.222  16.697  0.1541 -0.0643 -0.0100
 2631TIP3    H132088   0.488   0.139  16.650  2.1156  0.4700 -1.5387
 2631TIP3    H232089   0.588   0.250  16.676  0.3521  1.3215  2.3305
 2632TIP3   OH232090   0.745   5.479  17.044  0.7411 -0.5023 -0.3116
 2632TIP3    H132091   0.789   5.433  17.116  1.6737  1.3363  0.3345
 2632TIP3    H232092   0.816   5.513  16.990  0.2918  3.0446  1.0877
 2633TIP3   OH232093   2.418   0.529  18.711 -0.0987 -0.3145  0.3212
 2633TIP3    H132094   2.388   0.492  18.794 -2.3620  1.6132  0.4645
 2633TIP3    H232095   2.433   0.622  18.730  1.9979 -0.3490 -0.8296
 2634TIP3   OH232096   2.098   4.715  18.876 -0.7395 -0.1609  0.4394
 2634TIP3    H132097   2.027   4.651  18.884 -0.0014 -1.0192  0.2749
 2634TIP3    H232098   2.127   4.706  18.785 -1.0049  0.8268  0.2467
 2635TIP3   OH232099   6.182   2.743  19.105 -0.0547 -0.6411  0.3198
 2635TIP3    H132100   6.268   2.763  19.067  0.2736  0.0698  1.3779
 2635TIP3    H232101   6.181   2.791  19.188 -2.3251  1.1383 -0.6352
 2636TIP3   OH232102   0.475   5.457  16.474  0.3632  0.9400 -0.0473
 2636TIP3    H132103   0.518   5.540  16.453  0.1008  1.3707  1.0330
 2636TIP3    H232104   0.515   5.429  16.556  0.3219  0.0766 -0.3121
 2637TIP3   OH232105   0.666   5.189  17.836 -0.3755  0.7178  0.5700
 2637TIP3    H132106   0.650   5.239  17.756 -2.8379 -0.4855  0.2113
 2637TIP3    H232107   0.625   5.104  17.820  3.7053 -1.6104  1.1189
 2638TIP3   OH232108   0.584   3.227  18.770 -0.2740 -0.2478 -0.5615
 2638TIP3    H132109   0.520   3.298  18.764  0.1466  0.3932  1.5951
 2638TIP3    H232110   0.646   3.257  18.836  0.2908 -2.3504 -0.0750
 2639TIP3   OH232111   1.117   0.320  16.457 -0.2250  0.3157  0.1254
 2639TIP3    H132112   1.152   0.295  16.372  0.3916  1.9986 -0.1639
 2639TIP3    H232113   1.037   0.268  16.467  0.5421 -1.0662 -0.7557
 2640TIP3   OH232114   5.472   6.670  15.316 -1.0677  0.0676  0.0815
 2640TIP3    H132115   5.486   6.708  15.403 -1.0347  2.7391 -0.9811
 2640TIP3    H232116   5.381   6.691  15.295 -0.2970  2.1651 -1.6192
 2641TIP3   OH232117   0.736   3.606  19.790  0.2697 -0.2337 -0.4230
 2641TIP3    H132118   0.770   3.634  19.705  0.9746 -0.5549 -0.2580
 2641TIP3    H232119   0.748   3.682  19.847 -0.5674  0.1166 -0.6945
 2642TIP3   OH232120   3.184   0.122  19.339  0.3734  0.0946 -0.6575
 2642TIP3    H132121   3.115   0.067  19.302  0.0050  0.3598 -0.3747
 2642TIP3    H232122   3.139   0.179  19.401  0.8855  0.0994 -0.2765
 2643TIP3   OH232123   6.360   3.789  16.829 -0.1251 -0.0811  0.6801
 2643TIP3    H132124   6.450   3.761  16.845 -0.8790 -2.4429  1.1881
 2643TIP3    H232125   6.342   3.759  16.740 -0.7835 -0.7598  1.0321
 2644TIP3   OH232126   3.738   4.461  18.955 -0.3235 -0.2872  0.0731
 2644TIP3    H132127   3.677   4.390  18.976 -0.4086 -0.6474 -1.2902
 2644TIP3    H232128   3.816   4.416  18.923 -0.1554  0.2177 -0.2345
 2645TIP3   OH232129   1.235   6.642  17.303 -0.3343  0.0828 -0.1175
 2645TIP3    H132130   1.207   6.565  17.254 -1.5438  0.3576  0.1008
 2645TIP3    H232131   1.153   6.686  17.326  0.2897  0.7977  0.7816
 2646TIP3   OH232132   6.550   1.386  18.022  0.5887 -0.7689  0.1290
 2646TIP3    H132133   6.628   1.441  18.029 -1.8931  3.1737 -0.4394
 2646TIP3    H232134   6.557   1.345  17.936  1.6439  0.1725 -0.2510
 2647TIP3   OH232135   5.120   1.911  16.681 -0.0557 -0.2737  0.1901
 2647TIP3    H132136   5.198   1.892  16.732  1.7511  3.1307 -0.9514
 2647TIP3    H232137   5.148   1.902  16.590 -1.4802 -0.4861 -0.2574
 2648TIP3   OH232138   0.646   3.508  17.066 -0.4005 -0.4602 -0.2299
 2648TIP3    H132139   0.600   3.426  17.082 -1.8325  0.2194 -0.6828
 2648TIP3    H232140   0.719   3.507  17.128 -0.0806 -2.2828 -0.5677
 2649TIP3   OH232141   0.264   3.846  17.023  0.3171 -1.0671  0.2317
 2649TIP3    H132142   0.339   3.892  17.061 -0.4099  1.3733 -1.0339
 2649TIP3    H232143   0.293   3.820  16.936 -0.6188  1.1777 -0.8439
 2650TIP3   OH232144   2.039   3.856  19.144  0.2212 -0.0152  0.7122
 2650TIP3    H132145   2.020   3.765  19.122 -1.5526  0.2756  0.8734
 2650TIP3    H232146   1.956   3.891  19.175  0.9609  1.5634  1.0183
 2651TIP3   OH232147   1.444   6.145  16.485 -0.4129 -0.2468  0.1344
 2651TIP3    H132148   1.357   6.106  16.480 -0.0150 -1.1913  0.3236
 2651TIP3    H232149   1.439   6.223  16.429 -1.1234 -0.7760 -0.5606
 2652TIP3   OH232150   3.889   6.365  17.049 -0.8500  0.4363  0.3513
 2652TIP3    H132151   3.889   6.441  17.107  2.2929  1.0432 -0.2961
 2652TIP3    H232152   3.806   6.372  17.001 -0.5334  3.7283  0.0512
 2653TIP3   OH232153   6.556   6.679  16.391 -0.4327 -0.5724  0.5352
 2653TIP3    H132154   6.627   6.703  16.451 -0.0361 -0.8357  0.1816
 2653TIP3    H232155   6.500   6.621  16.443 -0.5099 -0.1926  0.8815
 2654TIP3   OH232156   6.149   6.389  18.785  0.0378 -0.0215  0.4247
 2654TIP3    H132157   6.224   6.348  18.742 -0.3954 -2.2614  1.6704
 2654TIP3    H232158   6.165   6.483  18.776  0.9342 -0.3512 -2.8846
 2655TIP3   OH232159   4.395   1.291  18.920  0.5479  0.1844 -0.2597
 2655TIP3    H132160   4.407   1.373  18.873 -2.8329  0.2435 -1.3044
 2655TIP3    H232161   4.301   1.287  18.938  0.8328 -2.6843  1.2696
 2656TIP3   OH232162   5.310   3.707  18.719  0.3724 -0.3760 -0.4034
 2656TIP3    H132163   5.365   3.667  18.651  0.2154 -0.4392 -0.4944
 2656TIP3    H232164   5.344   3.796  18.728  1.2181 -0.7611  0.3366
 2657TIP3   OH232165   5.617   3.961  18.866  0.0248 -0.0528  0.4339
 2657TIP3    H132166   5.685   3.941  18.803  0.3570  2.0410  0.0742
 2657TIP3    H232167   5.661   3.961  18.951 -0.4372 -2.9453  0.7843
 2658TIP3   OH232168   2.782   1.953  17.019  0.1676 -0.3063  0.4349
 2658TIP3    H132169   2.806   1.956  16.927 -0.4720 -1.2379  0.2248
 2658TIP3    H232170   2.760   1.861  17.035 -0.5764  0.0060  1.2853
 2659TIP3   OH232171   0.330   2.975  19.156 -0.0452  0.0009 -0.2100
 2659TIP3    H132172   0.362   2.950  19.243 -0.8224 -1.0245 -0.2000
 2659TIP3    H232173   0.320   2.892  19.110  2.2462  0.6283 -1.9819
 2660TIP3   OH232174   3.956   6.124  19.393  0.6121 -0.5910  0.0987
 2660TIP3    H132175   3.864   6.111  19.371  0.8360 -0.3860 -1.0537
 2660TIP3    H232176   3.962   6.215  19.422  0.5966 -0.3022 -0.7595
 2661TIP3   OH232177   6.029   2.784  17.330 -0.0488  0.1279  0.1085
 2661TIP3    H132178   6.056   2.793  17.421  1.1693 -2.9142  0.1682
 2661TIP3    H232179   6.111   2.780  17.281 -0.6348 -0.3101 -0.8614
 2662TIP3   OH232180   6.747   3.549  19.136 -0.2384  0.2518  0.1445
 2662TIP3    H132181   6.824   3.509  19.095 -1.1342 -0.4124 -0.9583
 2662TIP3    H232182   6.754   3.524  19.228  0.4372 -0.5119 -0.0957
 2663TIP3   OH232183   6.101   6.682  18.286  0.4677  0.1580  0.4140
 2663TIP3    H132184   6.157   6.607  18.263 -2.9294 -2.7629  0.8127
 2663TIP3    H232185   6.068   6.660  18.373 -0.3718  2.3836  0.7166
 2664TIP3   OH232186   4.165   2.698  16.331  0.5012 -0.4326  0.0612
 2664TIP3    H132187   4.091   2.721  16.276 -0.0536  0.4769  1.1367
 2664TIP3    H232188   4.220   2.641  16.277 -0.7128 -0.6884 -0.9239
 2665TIP3   OH232189   2.250   1.129  15.833  0.0446  0.2334  0.6796
 2665TIP3    H132190   2.166   1.086  15.846  0.3592 -0.1370  1.5841
 2665TIP3    H232191   2.271   1.167  15.918  0.7591  0.3797  0.4451
 2666TIP3   OH232192   2.951   5.348  16.486 -0.0402  0.0987 -0.0891
 2666TIP3    H132193   2.995   5.286  16.427  0.9443  2.1908 -1.6944
 2666TIP3    H232194   2.994   5.335  16.571  5.3275  3.0723 -1.8209
 2667TIP3   OH232195   3.823   4.697  18.450 -0.2032 -0.9482 -0.2141
 2667TIP3    H132196   3.797   4.753  18.523  0.2336 -1.2415  0.1763
 2667TIP3    H232197   3.897   4.743  18.410 -1.9817  0.4946 -2.0707
 2668TIP3   OH232198   3.360   3.267  17.710  0.5334 -0.2895  0.0179
 2668TIP3    H132199   3.367   3.303  17.799 -0.3918 -1.9174  0.8022
 2668TIP3    H232200   3.273   3.292  17.680  0.5089 -0.4742 -0.0714
 2669TIP3   OH232201   0.647   6.557  17.301  0.6428 -0.3493 -0.2048
 2669TIP3    H132202   0.669   6.481  17.354 -0.9160 -1.4064 -0.9879
 2669TIP3    H232203   0.558   6.580  17.328  0.7701  0.6815 -0.5946
 2670TIP3   OH232204   1.960   4.435  17.305  0.1885 -0.1794 -0.1217
 2670TIP3    H132205   1.880   4.451  17.256  0.0633  0.3131  0.2456
 2670TIP3    H232206   1.975   4.514  17.356 -0.0331 -0.9157  1.1422
 2671TIP3   OH232207   2.186   0.490  17.947  0.0545 -0.4469  0.2922
 2671TIP3    H132208   2.172   0.580  17.917  2.0236 -0.3151 -0.3769
 2671TIP3    H232209   2.195   0.439  17.866  1.0741 -0.8673  0.6654
 2672TIP3   OH232210   0.188   2.370  17.857  0.2829  0.2716  0.0557
 2672TIP3    H132211   0.252   2.387  17.788 -1.0593  0.1701 -1.2752
 2672TIP3    H232212   0.191   2.447  17.913  1.0292  0.5933 -0.4231
 2673TIP3   OH232213   2.057   6.026  18.310  0.2710 -0.7177 -0.1688
 2673TIP3    H132214   2.066   5.951  18.369 -0.4050  0.6829  1.8150
 2673TIP3    H232215   1.962   6.041  18.306  0.1924 -1.4348 -2.5669
 2674TIP3   OH232216   2.205   1.127  17.915 -0.2498  0.0621  0.2093
 2674TIP3    H132217   2.189   1.081  17.832 -0.8172 -0.8878  0.8354
 2674TIP3    H232218   2.125   1.117  17.965  0.1172  0.5620  0.9242
 2675TIP3   OH232219   2.646   0.980  17.325 -0.1457 -0.2387 -0.1176
 2675TIP3    H132220   2.709   1.034  17.372  0.4514  0.2222 -1.3958
 2675TIP3    H232221   2.657   0.892  17.362 -0.0348  0.2001  0.9121
 2676TIP3   OH232222   5.479   0.080  19.242 -0.1458  0.5611  0.2173
 2676TIP3    H132223   5.393   0.123  19.239  0.0129  0.8854  0.2373
 2676TIP3    H232224   5.473   0.011  19.176  0.1641  1.7042 -1.0607
 2677TIP3   OH232225   1.460   4.916  18.474 -0.0502 -0.5717  0.6472
 2677TIP3    H132226   1.455   4.954  18.561  2.5565  0.6404  0.3569
 2677TIP3    H232227   1.422   4.982  18.416  1.2802  0.1150  0.5296
 2678TIP3   OH232228   1.612   2.698  18.677 -0.4680 -0.0451 -0.7749
 2678TIP3    H132229   1.518   2.704  18.692 -0.4472 -2.2271  0.7224
 2678TIP3    H232230   1.642   2.629  18.738  2.7081  3.0004  1.5424
 2679TIP3   OH232231   1.466   2.630  19.212  0.1530 -0.1548 -0.3533
 2679TIP3    H132232   1.540   2.609  19.269 -0.7176  0.2346  0.9804
 2679TIP3    H232233   1.485   2.719  19.182  1.4405 -0.9481 -2.0920
 2680TIP3   OH232234   3.118   1.407  17.800 -0.1939  0.4647  0.1676
 2680TIP3    H132235   3.182   1.361  17.746 -0.5990 -1.0257  0.8976
 2680TIP3    H232236   3.167   1.439  17.875 -0.1236  0.1538  0.2569
 2681TIP3   OH232237   5.341   0.814  17.726 -0.0772 -0.0684 -0.5868
 2681TIP3    H132238   5.264   0.757  17.724  0.6055 -1.0125 -0.3668
 2681TIP3    H232239   5.412   0.761  17.691  0.7358  0.4047  0.2986
 2682TIP3   OH232240   3.624   5.344  16.010  0.5986 -0.1315  0.2553
 2682TIP3    H132241   3.633   5.249  16.002  3.7718  0.0448  0.7053
 2682TIP3    H232242   3.592   5.373  15.924  0.7762 -1.4797 -0.2801
 2683TIP3   OH232243   3.123   0.001  16.417  0.1004  0.1145 -0.1509
 2683TIP3    H132244   3.192   0.068  16.411  1.3591 -1.2365 -1.7699
 2683TIP3    H232245   3.064   0.023  16.345 -0.3877  0.4058  0.3295
 2684TIP3   OH232246   0.194   6.399  17.435 -0.5413  0.5347 -0.5675
 2684TIP3    H132247   0.153   6.321  17.399 -0.1431 -0.4655  1.0174
 2684TIP3    H232248   0.125   6.441  17.487 -0.7098  1.1706 -1.2900
 2685TIP3   OH232249   1.796   6.570  16.391 -0.4022  0.0939  0.1327
 2685TIP3    H132250   1.812   6.659  16.360  1.6144 -0.4894 -0.6688
 2685TIP3    H232251   1.835   6.568  16.479  0.0486 -0.1162 -0.0653
 2686TIP3   OH232252   5.188   3.720  19.419 -0.0957 -0.1347 -0.3964
 2686TIP3    H132253   5.248   3.759  19.356 -1.0210 -0.5295 -1.5469
 2686TIP3    H232254   5.220   3.630  19.430 -0.1338 -0.1657 -0.5465
 2687TIP3   OH232255   1.189   5.036  16.719 -0.1842 -0.2893  0.2070
 2687TIP3    H132256   1.179   4.942  16.732  1.5343 -0.6679 -0.9681
 2687TIP3    H232257   1.135   5.056  16.642 -1.3989 -0.0786  1.0771
 2688TIP3   OH232258   1.004   1.410  17.192  0.1327 -0.5626 -0.1497
 2688TIP3    H132259   1.025   1.395  17.284 -0.1908 -1.0069 -0.1449
 2688TIP3    H232260   0.914   1.444  17.193  0.4402  0.2726 -0.2428
 2689TIP3   OH232261   2.913   6.131  18.870 -0.0525 -0.2693 -0.1639
 2689TIP3    H132262   2.949   6.219  18.875  0.8095 -0.6342  0.4242
 2689TIP3    H232263   2.849   6.126  18.941 -0.2977 -0.0315 -0.3698
 2690TIP3   OH232264   4.107   5.627  17.592 -0.6760 -0.5953 -0.0281
 2690TIP3    H132265   4.101   5.545  17.640 -2.1755  0.2103  1.2792
 2690TIP3    H232266   4.182   5.673  17.631  0.1829 -1.3237 -0.7833
 2691TIP3   OH232267   5.710   2.031  19.024 -0.2605  0.5547 -0.2201
 2691TIP3    H132268   5.760   2.087  19.084 -2.3073  1.3815  0.8320
 2691TIP3    H232269   5.697   1.950  19.073  0.0953  0.3056 -0.5285
 2692TIP3   OH232270   3.250   5.072  17.242  0.1934  0.0794 -0.3105
 2692TIP3    H132271   3.209   5.157  17.258  0.2365  0.0767 -0.1823
 2692TIP3    H232272   3.232   5.054  17.150  0.3204  0.2989 -0.3781
 2693TIP3   OH232273   2.852   0.761  17.352  0.0335 -0.0802  0.3593
 2693TIP3    H132274   2.811   0.750  17.438 -3.4110  0.5895 -1.0595
 2693TIP3    H232275   2.890   0.676  17.333 -1.2373 -0.9610  1.5593
 2694TIP3   OH232276   4.288   5.091  17.465  0.0129 -0.1487  0.4945
 2694TIP3    H132277   4.294   5.183  17.490 -0.4911  0.3760 -1.1949
 2694TIP3    H232278   4.194   5.074  17.460 -0.0048  0.3284 -2.7216
 2695TIP3   OH232279   6.671   1.139  18.099  0.0966  0.3321 -0.6111
 2695TIP3    H132280   6.732   1.174  18.164 -0.5771 -1.0526  0.8362
 2695TIP3    H232281   6.678   1.044  18.109 -2.4113  0.1264 -0.2602
 2696TIP3   OH232282   0.312   0.266  17.596  0.1617 -0.1347 -0.3483
 2696TIP3    H132283   0.385   0.309  17.553  0.0689 -0.6825 -1.0686
 2696TIP3    H232284   0.272   0.212  17.528 -2.8563  2.5140 -0.9324
 2697TIP3   OH232285   3.439   6.384  16.831 -0.2492  0.2222  0.5982
 2697TIP3    H132286   3.345   6.368  16.829 -0.2625  0.2813 -1.0090
 2697TIP3    H232287   3.448   6.479  16.827 -0.1630  0.1856 -1.1343
 2698TIP3   OH232288   0.292   5.282  18.176  1.1925  0.9828  0.2075
 2698TIP3    H132289   0.222   5.228  18.138 -0.5866  1.5458  2.4340
 2698TIP3    H232290   0.373   5.239  18.149 -0.0134 -0.3660 -1.5362
 2699TIP3   OH232291   6.011   3.588  17.327  0.3703 -0.0439  0.1611
 2699TIP3    H132292   6.058   3.623  17.403  2.4023 -1.4839 -0.3519
 2699TIP3    H232293   6.019   3.493  17.335 -0.8030 -0.2752 -1.0194
 2700TIP3   OH232294   6.507   2.451  19.232 -0.3361  0.2638 -0.2645
 2700TIP3    H132295   6.495   2.473  19.140  0.8601  1.2569 -0.2163
 2700TIP3    H232296   6.488   2.533  19.279 -1.2144 -0.3088  0.4047
 2701TIP3   OH232297   0.597   2.509  16.653  0.3655  0.1845  0.3009
 2701TIP3    H132298   0.643   2.593  16.661 -1.9909  1.5774  0.2210
 2701TIP3    H232299   0.561   2.510  16.564  0.8694 -1.2559  0.0570
 2702TIP3   OH232300   0.172   0.112  15.706 -0.0868 -0.1425 -0.7123
 2702TIP3    H132301   0.198   0.124  15.797 -0.5060 -1.2716 -0.4219
 2702TIP3    H232302   0.240   0.057  15.669 -0.1312 -0.0266 -0.9641
 2703TIP3   OH232303   6.076   0.399  16.826  0.1459 -0.2529  0.1384
 2703TIP3    H132304   6.120   0.385  16.742  0.5551  0.9301  0.1435
 2703TIP3    H232305   6.148   0.409  16.889 -0.1408  0.3860  0.3683
 2704TIP3   OH232306   6.128   5.336  18.499  0.3834 -0.1243  0.7151
 2704TIP3    H132307   6.038   5.323  18.470 -0.0116  0.8089  1.4647
 2704TIP3    H232308   6.167   5.249  18.499 -0.7293 -0.6317  1.0613
 2705TIP3   OH232309   1.059   3.707  19.024  0.4213  0.0258 -0.0569
 2705TIP3    H132310   1.074   3.649  19.098  1.6095  1.6845  1.0580
 2705TIP3    H232311   1.053   3.794  19.062  1.0220  0.9308 -1.8984
 2706TIP3   OH232312   3.305   2.906  19.452 -0.0235 -0.4348  0.6327
 2706TIP3    H132313   3.277   2.998  19.452  0.0841 -0.3985  1.0462
 2706TIP3    H232314   3.232   2.858  19.413  0.7351  0.0638 -1.5343
 2707TIP3   OH232315   4.072   1.536  17.725  0.0058 -0.2656  0.4389
 2707TIP3    H132316   4.114   1.607  17.772  0.3396 -0.5895  0.6280
 2707TIP3    H232317   4.094   1.551  17.633 -0.8831  0.5290  0.3416
 2708TIP3   OH232318   0.415   3.899  18.809  0.0585 -0.4926  0.6041
 2708TIP3    H132319   0.472   3.872  18.737  0.1984 -0.6567  0.7746
 2708TIP3    H232320   0.443   3.989  18.828  0.2271 -0.5550  0.6532
 2709TIP3   OH232321   4.291   5.462  17.960  0.0699 -0.3232 -0.5924
 2709TIP3    H132322   4.367   5.455  18.018 -0.3311 -0.5788 -0.0968
 2709TIP3    H232323   4.263   5.553  17.968 -0.3107 -0.4913  0.0335
 2710TIP3   OH232324   6.104   0.855  16.653 -0.3505  0.2903 -0.6226
 2710TIP3    H132325   6.097   0.822  16.564 -0.8611 -0.2037 -0.4059
 2710TIP3    H232326   6.173   0.921  16.649 -0.1420  0.0373 -1.3133
 2711TIP3   OH232327   5.387   3.057  18.186 -0.1137 -0.3996  0.5217
 2711TIP3    H132328   5.413   3.099  18.268 -0.6438  0.2068  0.3855
 2711TIP3    H232329   5.303   3.096  18.165  0.3485 -0.0344 -0.6895
 2712TIP3   OH232330   0.719   3.722  17.300 -0.8754  0.0377  0.2885
 2712TIP3    H132331   0.765   3.772  17.368  1.1411 -1.0446 -0.1871
 2712TIP3    H232332   0.768   3.640  17.294 -1.7961 -0.4330 -1.5623
 2713TIP3   OH232333   3.630   3.673  17.225 -0.0686  0.7575  0.0064
 2713TIP3    H132334   3.593   3.606  17.168  1.9810 -0.4390 -0.0208
 2713TIP3    H232335   3.577   3.751  17.208 -0.4779  0.0322 -2.4040
 2714TIP3   OH232336   3.548   4.301  16.372  0.0478  0.0089 -0.0494
 2714TIP3    H132337   3.499   4.319  16.292  0.3536  1.2641  0.0246
 2714TIP3    H232338   3.560   4.206  16.372  0.4109  0.0247 -1.7062
 2715TIP3   OH232339   5.982   5.282  18.764 -0.1743 -0.2633  0.5209
 2715TIP3    H132340   5.943   5.368  18.778 -2.4268 -0.9259 -1.1101
 2715TIP3    H232341   6.064   5.300  18.717 -0.2543  1.0135  0.8370
 2716TIP3   OH232342   1.729   5.740  16.778 -0.0233  0.3482 -0.1228
 2716TIP3    H132343   1.750   5.828  16.810 -0.7344  0.1831  0.8456
 2716TIP3    H232344   1.803   5.686  16.804  0.1620  0.5544 -0.2242
 2717TIP3   OH232345   5.945   5.129  18.405  0.6463  0.6311  0.1239
 2717TIP3    H132346   5.974   5.069  18.473  2.6639  0.7515 -0.5702
 2717TIP3    H232347   5.919   5.072  18.332  2.5251  0.5242 -0.5195
 2718TIP3   OH232348   5.857   5.588  15.376  0.0388 -0.4507 -0.0096
 2718TIP3    H132349   5.880   5.501  15.342  0.4972 -0.0984 -0.6157
 2718TIP3    H232350   5.767   5.602  15.346  0.8567  0.4080 -2.3130
 2719TIP3   OH232351   6.648   2.352  17.815  0.2578 -0.2109  0.5593
 2719TIP3    H132352   6.632   2.355  17.909 -0.5237  1.9347  0.4192
 2719TIP3    H232353   6.743   2.344  17.806  0.2533 -1.5862  1.4903
 2720TIP3   OH232354   0.295   5.204  17.439 -0.2601 -0.2574 -0.5205
 2720TIP3    H132355   0.293   5.299  17.448  0.8267 -0.2973  0.4375
 2720TIP3    H232356   0.208   5.175  17.467 -0.1665  0.3699  0.4904
 2721TIP3   OH232357   2.067   2.052  18.819 -0.2019  0.0420 -0.3762
 2721TIP3    H132358   2.099   2.127  18.769  1.9052 -0.5990 -0.0520
 2721TIP3    H232359   2.088   2.073  18.910  1.0609 -1.2094 -0.3503
 2722TIP3   OH232360   1.442   1.644  16.036 -0.1642 -0.0422 -0.3796
 2722TIP3    H132361   1.348   1.641  16.049 -0.1831  0.5123 -0.3493
 2722TIP3    H232362   1.460   1.736  16.015  0.5329  0.1443  0.9244
 2723TIP3   OH232363   2.683   5.421  15.614 -0.0420  0.4448  0.3525
 2723TIP3    H132364   2.613   5.451  15.673 -1.5039 -1.3263 -0.3643
 2723TIP3    H232365   2.642   5.350  15.564  2.7540 -1.7475  0.9775
 2724TIP3   OH232366   4.433   3.335  16.842  0.2899  0.0307 -0.1136
 2724TIP3    H132367   4.342   3.305  16.843  0.4975 -0.5891  0.4398
 2724TIP3    H232368   4.430   3.416  16.790 -0.7975  0.7475  1.0052
 2725TIP3   OH232369   2.350   0.907  17.458  0.0430 -0.5681  0.0922
 2725TIP3    H132370   2.397   0.892  17.376  0.6761  1.6580 -0.0112
 2725TIP3    H232371   2.264   0.867  17.443  0.6846 -1.6080 -1.0260
 2726TIP3   OH232372   4.558   2.623  19.341  0.0032 -0.2735  0.7973
 2726TIP3    H132373   4.527   2.690  19.403  0.4012 -0.8199  1.5954
 2726TIP3    H232374   4.534   2.540  19.381  1.8410 -0.6962  1.0903
 2727TIP3   OH232375   4.637   3.535  16.479 -0.4413  0.2312  0.5076
 2727TIP3    H132376   4.574   3.578  16.422  0.3471  4.1250  2.2408
 2727TIP3    H232377   4.720   3.543  16.434 -0.3969 -0.1764  0.5151
 2728TIP3   OH232378   3.212   6.128  18.777  0.3787  0.0886 -0.3025
 2728TIP3    H132379   3.173   6.107  18.692  2.1060 -0.7069 -0.9352
 2728TIP3    H232380   3.166   6.070  18.838  0.3703 -0.6418 -0.9822
 2729TIP3   OH232381   1.091   4.386  17.380  0.4164 -0.1666  0.2677
 2729TIP3    H132382   1.155   4.406  17.448  0.5959  0.7286 -0.1556
 2729TIP3    H232383   1.009   4.375  17.427  1.0034 -2.1712  0.9193
 2730TIP3   OH232384   5.626   3.791  16.755  0.1426 -1.1051 -0.3261
 2730TIP3    H132385   5.602   3.883  16.765  2.4128 -0.4199 -0.8108
 2730TIP3    H232386   5.645   3.780  16.662  2.9011 -1.1980  0.1577
 2731TIP3   OH232387   3.580   2.433  17.051  0.8437  0.0135 -0.8598
 2731TIP3    H132388   3.537   2.486  17.117 -0.1582 -1.7750 -0.0155
 2731TIP3    H232389   3.510   2.383  17.009  1.6374 -0.0092 -2.2599
 2732TIP3   OH232390   2.143   5.594  17.447  0.0270 -0.9205 -0.1029
 2732TIP3    H132391   2.191   5.654  17.503  0.0011 -0.6087 -0.4140
 2732TIP3    H232392   2.052   5.626  17.449 -0.0633 -1.1838  0.0508
 2733TIP3   OH232393   0.096   5.573  17.122 -0.2433 -0.2366  0.0573
 2733TIP3    H132394   0.057   5.603  17.204 -0.8014 -0.5266 -0.0948
 2733TIP3    H232395   0.177   5.623  17.114  0.0108 -0.4830  0.9807
 2734TIP3   OH232396   1.943   6.647  18.412 -0.3067  0.9887 -0.3657
 2734TIP3    H132397   1.943   6.742  18.401  4.6494  1.0904 -1.8046
 2734TIP3    H232398   1.947   6.613  18.322  1.0322 -0.3943  0.1837
 2735TIP3   OH232399   1.907   2.269  16.085  0.1833 -0.7514 -0.0692
 2735TIP3    H132400   1.934   2.355  16.052 -0.1424 -0.3447  0.6786
 2735TIP3    H232401   1.854   2.290  16.162  1.5353 -1.6695  1.1565
 2736TIP3   OH232402   2.245   5.664  16.364 -0.2501  0.2303  0.1784
 2736TIP3    H132403   2.272   5.630  16.279 -0.9098  0.6032 -0.1874
 2736TIP3    H232404   2.327   5.686  16.408  0.1559 -1.2271  0.1795
 2737TIP3   OH232405   0.407   0.889  16.697 -0.1322  0.6411  0.0454
 2737TIP3    H132406   0.401   0.884  16.602  1.4732  1.6216 -0.1468
 2737TIP3    H232407   0.424   0.799  16.725  3.0007  0.7867 -0.9789
 2738TIP3   OH232408   3.406   2.191  19.036 -0.2678  0.3692 -0.6951
 2738TIP3    H132409   3.405   2.247  19.114 -0.6998  0.1472 -0.5403
 2738TIP3    H232410   3.316   2.192  19.005 -0.2794 -0.2363 -0.6948
 2739TIP3   OH232411   0.819   0.700  17.537 -0.3321 -0.1316 -0.1372
 2739TIP3    H132412   0.868   0.628  17.576 -1.0836 -0.5120  0.1233
 2739TIP3    H232413   0.883   0.771  17.528  0.2897 -0.6585  0.0737
 2740TIP3   OH232414   2.415   3.753  18.341  0.2062 -0.0320  0.1434
 2740TIP3    H132415   2.505   3.760  18.374 -0.0604 -0.4582  0.9645
 2740TIP3    H232416   2.361   3.748  18.419 -0.4987 -0.2874 -0.3564
 2741TIP3   OH232417   5.106   1.363  16.299 -0.9785  0.4992 -0.3857
 2741TIP3    H132418   5.017   1.389  16.272 -1.6217 -1.9951 -0.9136
 2741TIP3    H232419   5.096   1.331  16.389 -0.6142  0.1921 -0.4519
 2742TIP3   OH232420   0.059   1.019  17.376 -0.1937 -0.3802 -0.1867
 2742TIP3    H132421  -0.021   0.966  17.376 -0.8521  0.5873 -0.7396
 2742TIP3    H232422   0.112   0.983  17.304 -0.3075 -0.7494 -0.0874
 2743TIP3   OH232423   2.235   1.947  17.412 -0.8097 -0.0315  0.8125
 2743TIP3    H132424   2.153   1.995  17.421 -0.5094  0.2341  2.2947
 2743TIP3    H232425   2.236   1.886  17.486  0.5876  0.3662  1.1398
 2744TIP3   OH232426   4.518   4.093  17.794 -0.0260  0.1359 -0.0384
 2744TIP3    H132427   4.513   4.084  17.699  0.2740  0.7240 -0.1136
 2744TIP3    H232428   4.487   4.008  17.828 -1.8154  0.5021 -0.6213
 2745TIP3   OH232429   2.997   2.017  17.201  0.3607 -0.4544  0.6553
 2745TIP3    H132430   2.927   1.992  17.141 -0.2460  0.8291  0.7891
 2745TIP3    H232431   3.059   2.065  17.146  0.5531 -0.5682  0.7718
 2746TIP3   OH232432   4.051   3.373  17.755 -0.2826  0.1454  0.0116
 2746TIP3    H132433   4.140   3.359  17.724 -0.5603  2.7371 -2.3522
 2746TIP3    H232434   3.998   3.377  17.675 -2.1717  0.8231  1.2226
 2747TIP3   OH232435   0.344   3.084  18.707 -0.7243  1.0513  0.1688
 2747TIP3    H132436   0.351   3.003  18.656  0.4500 -0.1484  2.1069
 2747TIP3    H232437   0.432   3.098  18.742 -1.1957  2.5133  0.8559
 2748TIP3   OH232438   1.576   4.239  17.094  0.1052  0.3146  0.0780
 2748TIP3    H132439   1.595   4.232  17.001  0.6650  0.3462  0.1805
 2748TIP3    H232440   1.599   4.153  17.129 -0.2721  0.2458  0.1594
 2749TIP3   OH232441   3.159   6.134  16.762  0.7750  0.1699 -0.9084
 2749TIP3    H132442   3.255   6.126  16.766  0.9454  2.2902  0.2988
 2749TIP3    H232443   3.140   6.218  16.802 -1.3436  1.5632 -4.4060
 2750TIP3   OH232444   1.681   1.907  18.330 -0.5860 -0.1558 -0.1218
 2750TIP3    H132445   1.688   1.914  18.235  1.2266 -3.3867 -0.3586
 2750TIP3    H232446   1.595   1.866  18.344 -2.0323  2.6655 -0.0727
 2751TIP3   OH232447   2.605   2.508  18.637  0.1411 -0.1585  0.5623
 2751TIP3    H132448   2.573   2.594  18.609 -0.6490 -0.5759  0.1487
 2751TIP3    H232449   2.655   2.476  18.562 -1.3891 -0.9736 -0.1728
 2752TIP3   OH232450   4.255   2.931  17.303  0.1711  0.3279 -0.0480
 2752TIP3    H132451   4.200   2.986  17.248  1.8510  2.6476  0.4069
 2752TIP3    H232452   4.215   2.938  17.390  0.3193  0.7857 -0.0108
 2753TIP3   OH232453   3.297   0.150  17.649  0.1309 -0.5119  0.4192
 2753TIP3    H132454   3.366   0.180  17.589  1.6056 -0.2692  2.1646
 2753TIP3    H232455   3.254   0.079  17.601  1.0626 -0.1436 -1.0442
 2754TIP3   OH232456   5.086   1.019  17.254  0.0955  0.5228 -0.4773
 2754TIP3    H132457   5.159   1.037  17.314 -1.7103 -0.2902  2.1911
 2754TIP3    H232458   5.083   0.924  17.248 -0.2150  0.5773 -1.2843
 2755TIP3   OH232459   4.177   2.990  18.732 -0.2196  0.2098  1.1778
 2755TIP3    H132460   4.093   2.960  18.767 -0.0635 -0.5675  0.8901
 2755TIP3    H232461   4.242   2.932  18.771 -0.0125 -0.5259 -0.2035
 2756TIP3   OH232462   1.395   6.058  19.282  0.5086 -0.4277 -0.1096
 2756TIP3    H132463   1.484   6.088  19.296  0.0826 -0.1314  2.3417
 2756TIP3    H232464   1.341   6.117  19.335 -1.4254  0.7314 -3.0872
 2757TIP3   OH232465   4.581   1.875  17.277 -0.1553 -0.0740 -0.3122
 2757TIP3    H132466   4.515   1.922  17.328 -1.3342 -1.6930 -0.2381
 2757TIP3    H232467   4.580   1.917  17.191 -0.6224  0.5161 -0.0266
 2758TIP3   OH232468   3.312   4.671  18.788 -0.5840 -0.0609  0.7844
 2758TIP3    H132469   3.296   4.764  18.775  1.4216  0.2425  0.1663
 2758TIP3    H232470   3.391   4.667  18.842 -0.4268 -1.4094  0.5007
 2759TIP3   OH232471   1.234   0.559  19.169 -0.0091  0.1319  0.2984
 2759TIP3    H132472   1.286   0.509  19.232  1.0254  0.1259 -0.5338
 2759TIP3    H232473   1.293   0.629  19.140 -0.4290  0.0717 -0.7363
 2760TIP3   OH232474   1.550   6.427  15.784 -0.2637 -0.0435 -0.2982
 2760TIP3    H132475   1.585   6.512  15.759 -0.0386 -0.2612 -0.7343
 2760TIP3    H232476   1.455   6.435  15.776 -0.1983 -0.0746 -1.0935
 2761TIP3   OH232477   3.826   3.954  18.238 -0.0558  0.6114 -0.1047
 2761TIP3    H132478   3.918   3.979  18.229  0.5138 -1.0600  0.7748
 2761TIP3    H232479   3.785   4.030  18.281  1.2399  0.7475  0.9250
 2762TIP3   OH232480   6.106   2.122  19.126  0.0645 -0.0474  0.1069
 2762TIP3    H132481   6.172   2.189  19.144 -1.2725  1.6743 -0.9867
 2762TIP3    H232482   6.137   2.077  19.048  1.5637 -1.6013  1.5193
 2763TIP3   OH232483   3.849   2.236  18.878  0.2364 -0.1899  0.0356
 2763TIP3    H132484   3.788   2.165  18.897 -1.5938  1.3937  0.3877
 2763TIP3    H232485   3.876   2.269  18.965 -0.0679  0.4503 -0.1046
 2764TIP3   OH232486   5.330   1.622  17.507 -0.0454  0.8460 -0.0436
 2764TIP3    H132487   5.311   1.640  17.599 -0.5699 -0.1211  0.0425
 2764TIP3    H232488   5.361   1.531  17.506  1.8302  1.4315 -0.5655
 2765TIP3   OH232489   6.255   6.037  15.565 -0.8214  0.0890  0.8905
 2765TIP3    H132490   6.217   6.125  15.568 -0.9032  0.1264 -0.4287
 2765TIP3    H232491   6.346   6.051  15.539 -1.3173 -0.2859 -1.2387
 2766TIP3   OH232492   0.963   0.228  17.568 -0.3813 -0.6525  0.0034
 2766TIP3    H132493   0.934   0.213  17.478  0.6617 -0.4793 -0.3829
 2766TIP3    H232494   1.004   0.145  17.594  2.0157  0.1806 -0.7937
 2767TIP3   OH232495   2.250   1.429  17.819 -0.5844 -0.0980 -0.1241
 2767TIP3    H132496   2.301   1.407  17.741  1.2293  2.7830  0.1183
 2767TIP3    H232497   2.267   1.356  17.879  0.6606 -0.7701 -1.2290
 2768TIP3   OH232498   1.147   0.888  17.061  0.1315 -0.3460 -0.8669
 2768TIP3    H132499   1.240   0.866  17.052 -0.1603 -0.9904 -2.9362
 2768TIP3    H232500   1.107   0.810  17.098  0.4513  0.1104  0.5088
 2769TIP3   OH232501   4.513   0.983  17.269  0.1547 -0.1780  0.4869
 2769TIP3    H132502   4.495   1.006  17.178  0.3286  0.5949  0.6460
 2769TIP3    H232503   4.608   0.971  17.273  0.2620  0.6969  0.7631
 2770TIP3   OH232504   3.303   2.580  18.055 -0.0376  0.1300 -0.5662
 2770TIP3    H132505   3.362   2.604  18.126 -1.4843  0.0096  0.7379
 2770TIP3    H232506   3.217   2.572  18.097 -0.6706 -1.4940 -2.0361
 2771TIP3   OH232507   3.808   1.561  17.877 -1.1305 -0.3266  0.2713
 2771TIP3    H132508   3.883   1.530  17.827 -0.5814 -2.2260  2.1296
 2771TIP3    H232509   3.845   1.626  17.937 -1.2761 -0.1003  0.1181
 2772TIP3   OH232510   1.829   1.943  17.278  0.7218 -0.2156  0.0049
 2772TIP3    H132511   1.851   1.853  17.304  0.8044 -0.4239 -0.7844
 2772TIP3    H232512   1.891   1.998  17.327 -0.1983 -0.4757  1.5558
 2773TIP3   OH232513   5.703   1.971  17.561  0.0785  0.0020 -0.0812
 2773TIP3    H132514   5.768   1.913  17.602 -1.0027 -0.3636  1.1769
 2773TIP3    H232515   5.734   1.982  17.471  2.1107  0.1724  0.5888
 2774TIP3   OH232516   1.323   3.664  18.403 -0.1894 -0.3438  0.4881
 2774TIP3    H132517   1.362   3.578  18.419 -0.5793 -0.2258  2.2651
 2774TIP3    H232518   1.276   3.654  18.320  1.4932 -1.2036 -0.4161
 2775TIP3   OH232519   0.070   0.698  18.090  0.1899 -0.3765 -0.5840
 2775TIP3    H132520   0.089   0.630  18.025  0.2766  0.9510 -2.0177
 2775TIP3    H232521  -0.024   0.692  18.104  0.3955 -1.7110  0.4119
 2776TIP3   OH232522   2.441   6.533  17.585 -0.2667 -0.2054 -0.1212
 2776TIP3    H132523   2.449   6.590  17.662  2.6122  0.8600 -1.0640
 2776TIP3    H232524   2.444   6.593  17.510  0.2870 -1.4028 -1.1006
 2777TIP3   OH232525   4.344   2.975  19.215 -0.5222  0.0860 -0.0426
 2777TIP3    H132526   4.414   2.922  19.178  0.0568  0.1487  0.9304
 2777TIP3    H232527   4.389   3.045  19.262 -1.2484  0.3759  0.2414
 2778TIP3   OH232528   4.600   3.234  19.168  0.0849 -0.2845 -0.1682
 2778TIP3    H132529   4.673   3.295  19.179 -0.3222  0.1994 -0.1684
 2778TIP3    H232530   4.523   3.282  19.197 -0.0376 -1.3153  1.3625
 2779TIP3   OH232531   5.255   4.783  19.506  0.2256 -0.2194 -0.3242
 2779TIP3    H132532   5.210   4.843  19.447  1.0321 -0.4401 -1.1829
 2779TIP3    H232533   5.192   4.713  19.521 -0.1615  0.0805 -0.5330
 2780TIP3   OH232534   0.009   2.743  19.222 -0.0603 -0.0009 -0.0687
 2780TIP3    H132535  -0.045   2.762  19.146 -1.4383  0.5428  1.0077
 2780TIP3    H232536  -0.051   2.703  19.285  1.1746 -1.0011  0.5296
 2781TIP3   OH232537   2.134   1.298  18.647 -0.0796  0.0925  0.0955
 2781TIP3    H132538   2.118   1.300  18.741  0.3357 -1.1400  0.2180
 2781TIP3    H232539   2.075   1.229  18.614  0.4362 -0.1226 -0.3967
 2782TIP3   OH232540   4.768   4.280  16.756 -0.3002  0.0640  0.2789
 2782TIP3    H132541   4.805   4.271  16.668  1.0890  1.7972  0.6204
 2782TIP3    H232542   4.684   4.234  16.752 -0.0128 -0.3867 -1.7694
 2783TIP3   OH232543   6.169   4.269  16.498 -0.6045  0.0901 -0.0229
 2783TIP3    H132544   6.121   4.351  16.488 -1.5935 -0.1942  1.8064
 2783TIP3    H232545   6.117   4.205  16.450  0.6340  0.6324 -2.2000
 2784TIP3   OH232546   5.791   5.453  16.216  0.6007 -0.3317 -0.0858
 2784TIP3    H132547   5.816   5.474  16.305  0.5982  0.1118 -0.1873
 2784TIP3    H232548   5.843   5.512  16.162  0.7268 -0.7114 -0.3873
 2785TIP3   OH232549   4.791   1.034  16.537 -0.1365 -0.1653  0.3478
 2785TIP3    H132550   4.840   1.066  16.612  0.2542 -0.4787  0.2314
 2785TIP3    H232551   4.859   1.013  16.472 -0.3768 -1.2680  0.4415
 2786TIP3   OH232552   0.327   1.020  18.503 -0.8177  0.4887 -0.2725
 2786TIP3    H132553   0.320   0.936  18.548 -0.3274  0.7771  0.3679
 2786TIP3    H232554   0.403   1.010  18.446 -1.1309  0.2935 -0.6574
 2787TIP3   OH232555   3.605   4.557  18.714 -0.1963 -0.2318 -0.3319
 2787TIP3    H132556   3.650   4.537  18.797  0.0641  0.5767 -0.2659
 2787TIP3    H232557   3.608   4.476  18.665  0.1966 -0.5525  0.2070
 2788TIP3   OH232558   2.233   5.519  19.030  0.0680 -0.1789  0.3517
 2788TIP3    H132559   2.164   5.522  19.097  0.5216  1.0692  0.7882
 2788TIP3    H232560   2.315   5.526  19.079  0.3836  1.4510 -0.3504
 2789TIP3   OH232561   3.267   3.176  19.415  0.1654  0.0436 -0.3119
 2789TIP3    H132562   3.333   3.227  19.368 -0.0058 -0.0610 -0.6719
 2789TIP3    H232563   3.185   3.224  19.400  0.2589  0.5208  0.6592
 2790TIP3   OH232564   4.454   1.654  16.733 -0.3258  0.1356  0.2023
 2790TIP3    H132565   4.539   1.621  16.760 -1.3065 -1.6571  1.2828
 2790TIP3    H232566   4.429   1.714  16.804  0.1204  0.8766 -0.2497
 2791TIP3   OH232567   1.456   6.019  18.028  0.7084  0.8956  0.3449
 2791TIP3    H132568   1.370   6.045  17.994  0.0567 -1.1103  0.3060
 2791TIP3    H232569   1.509   6.098  18.021 -1.0224  2.1050  0.0261
 2792TIP3   OH232570   3.233   6.133  18.378 -0.8963  0.2812  0.0640
 2792TIP3    H132571   3.193   6.049  18.402 -0.8382  0.4847  0.9270
 2792TIP3    H232572   3.257   6.123  18.286  1.1669 -1.4658  0.7180
 2793TIP3   OH232573   6.456   2.780  17.415 -0.1215  0.1831 -0.1809
 2793TIP3    H132574   6.545   2.794  17.447 -0.2664 -2.2497  1.5463
 2793TIP3    H232575   6.401   2.828  17.477 -0.2205 -2.2359  1.7511
 2794TIP3   OH232576   1.797   3.472  17.035  1.0134 -0.2951  0.2996
 2794TIP3    H132577   1.790   3.531  16.961  3.0153  0.8510  0.9353
 2794TIP3    H232578   1.799   3.384  16.996 -1.0067  0.0573 -0.7283
 2795TIP3   OH232579   0.715   2.256  18.044  0.0680  0.0329  0.1534
 2795TIP3    H132580   0.753   2.323  18.101  1.4528 -0.3399 -0.2818
 2795TIP3    H232581   0.739   2.173  18.086  1.9259 -0.2873 -1.3703
 2796TIP3   OH232582   1.904   2.432  19.543  0.2331 -0.3491  0.4707
 2796TIP3    H132583   1.821   2.478  19.540  0.2251 -0.4144 -0.6062
 2796TIP3    H232584   1.946   2.451  19.459  0.6388 -1.5367  0.3851
 2797TIP3   OH232585   2.093   5.799  17.140  0.1276 -0.0043 -0.0256
 2797TIP3    H132586   2.169   5.856  17.143  0.1107  0.1683 -1.8305
 2797TIP3    H232587   2.125   5.718  17.101 -0.5181 -0.0777 -0.4251
 2798TIP3   OH232588   0.718   3.907  18.926  0.0782 -0.2251 -0.0873
 2798TIP3    H132589   0.755   3.842  18.867  0.0860  0.7054 -1.1370
 2798TIP3    H232590   0.752   3.991  18.894 -1.8296  0.5420 -0.2461
 2799TIP3   OH232591   0.338   6.357  16.169  0.4047  0.5184 -0.2164
 2799TIP3    H132592   0.375   6.364  16.081 -2.3498 -0.3118 -1.5488
 2799TIP3    H232593   0.324   6.263  16.182 -0.1641  0.7155  0.6849
 2800TIP3   OH232594   1.300   4.861  16.470  0.7527 -0.3168  0.2570
 2800TIP3    H132595   1.222   4.877  16.418  1.7383  1.8800 -0.6996
 2800TIP3    H232596   1.270   4.811  16.545 -1.1517 -1.4458 -1.1742
 2801TIP3   OH232597   0.964   0.543  15.864  0.6319  0.0029 -0.4263
 2801TIP3    H132598   1.034   0.602  15.837  0.2646 -0.2122 -1.9543
 2801TIP3    H232599   0.892   0.564  15.805  0.5943 -2.1685 -1.2103
 2802TIP3   OH232600   2.648   4.904  17.284 -0.1620 -0.2619  0.4687
 2802TIP3    H132601   2.559   4.889  17.253 -0.1382 -0.9755  0.7210
 2802TIP3    H232602   2.663   4.998  17.271 -0.5114 -0.3567 -0.7064
 2803TIP3   OH232603   3.474   0.539  18.796 -0.8124  0.0345  0.1855
 2803TIP3    H132604   3.414   0.534  18.722  0.5623  3.3633 -1.3975
 2803TIP3    H232605   3.537   0.608  18.771  1.5310 -0.7811  3.2086
 2804TIP3   OH232606   1.184   3.119  16.946 -0.2021 -0.5015  0.0142
 2804TIP3    H132607   1.133   3.143  16.868 -0.0707  0.5076  0.2307
 2804TIP3    H232608   1.266   3.167  16.937 -1.0854  1.5118  1.8986
 2805TIP3   OH232609   0.919   1.231  17.530  0.3232  0.2748  0.3726
 2805TIP3    H132610   1.005   1.245  17.489  0.2947 -1.0150 -0.1793
 2805TIP3    H232611   0.874   1.171  17.471 -0.4268 -0.1787  1.3803
 2806TIP3   OH232612   5.222   5.695  16.762 -0.2813 -0.0691 -0.2666
 2806TIP3    H132613   5.253   5.641  16.690 -0.5216 -1.0456  0.3461
 2806TIP3    H232614   5.301   5.721  16.808 -0.2320 -1.0304  0.2180
 2807TIP3   OH232615   0.053   1.494  18.029 -0.2056 -0.0633  0.0213
 2807TIP3    H132616   0.127   1.470  17.972  0.5447 -2.0445  1.6871
 2807TIP3    H232617   0.092   1.499  18.116 -1.5152  1.8962  0.5472
 2808TIP3   OH232618   5.099   5.107  19.392  0.1411 -0.8483 -0.3701
 2808TIP3    H132619   5.061   5.020  19.382 -0.4125 -0.6563  0.0179
 2808TIP3    H232620   5.029   5.159  19.431  0.9741 -0.6168  0.8753
 2809TIP3   OH232621   4.752   4.709  18.042 -0.3099 -0.6994 -0.4709
 2809TIP3    H132622   4.713   4.786  18.001  0.0431  0.5111  1.3053
 2809TIP3    H232623   4.820   4.681  17.981  0.6882  1.4663 -0.4472
 2810TIP3   OH232624   1.406   0.778  16.331 -0.1641 -0.0287  0.1668
 2810TIP3    H132625   1.333   0.721  16.308  0.7835 -1.1874 -0.0790
 2810TIP3    H232626   1.409   0.843  16.260 -0.2933 -0.6268 -0.3948
 2811TIP3   OH232627   3.594   6.458  18.384 -0.0855  0.2323  0.2143
 2811TIP3    H132628   3.606   6.520  18.456 -0.7830  1.5705 -0.7857
 2811TIP3    H232629   3.509   6.481  18.346  1.0983  0.8486 -2.2249
 2812TIP3   OH232630   5.333   1.372  18.097 -0.1825  0.1798 -0.0353
 2812TIP3    H132631   5.279   1.451  18.090 -1.8486 -0.9186 -0.2901
 2812TIP3    H232632   5.310   1.320  18.019  1.9722  0.0521 -0.6619
 2813TIP3   OH232633   5.635   5.368  18.812  0.5552 -0.0209 -0.1197
 2813TIP3    H132634   5.550   5.327  18.830  0.8186  0.0753  1.5031
 2813TIP3    H232635   5.653   5.347  18.721 -0.6691 -1.0525 -0.1521
 2814TIP3   OH232636   3.774   2.718  18.245  0.0382  0.2136 -0.0358
 2814TIP3    H132637   3.781   2.665  18.324 -1.6018 -0.7088 -0.4707
 2814TIP3    H232638   3.780   2.808  18.277  1.5923 -0.1576  0.8537
 2815TIP3   OH232639   5.043   5.398  15.786  0.2027 -0.0491 -0.0557
 2815TIP3    H132640   5.007   5.310  15.776 -1.2345  0.4224  0.6435
 2815TIP3    H232641   5.107   5.406  15.716  0.3960 -1.6659 -0.1025
 2816TIP3   OH232642   0.424   4.347  15.840  0.1604  0.2638  0.1566
 2816TIP3    H132643   0.459   4.391  15.763 -0.6690  1.2735  0.3266
 2816TIP3    H232644   0.362   4.282  15.805 -1.0875  1.5048 -0.0385
 2817TIP3   OH232645   2.605   0.787  16.709 -0.1760  0.5933  0.3758
 2817TIP3    H132646   2.594   0.710  16.653 -0.2123  0.9020 -0.0478
 2817TIP3    H232647   2.635   0.752  16.792  2.0171  0.2575 -0.4792
 2818TIP3   OH232648   5.230   0.435  17.611 -0.2483 -0.6050 -0.2650
 2818TIP3    H132649   5.254   0.355  17.565  0.4132 -0.9936  0.7376
 2818TIP3    H232650   5.134   0.432  17.615 -0.4170 -0.0732 -2.4391
 2819TIP3   OH232651   4.132   5.548  16.990 -0.2312  0.2421 -0.4195
 2819TIP3    H132652   4.202   5.512  16.936 -0.2292  0.4886 -0.5808
 2819TIP3    H232653   4.078   5.598  16.929  0.7232  1.9680  0.0750
 2820TIP3   OH232654   6.276   2.127  16.461  0.2479 -0.8082 -0.3459
 2820TIP3    H132655   6.370   2.143  16.472  0.3188 -1.2327 -0.3000
 2820TIP3    H232656   6.271   2.045  16.412 -0.0849  0.8034 -3.2152
 2821TIP3   OH232657   6.170   5.482  16.049  0.0109  0.1297 -0.1983
 2821TIP3    H132658   6.074   5.478  16.053 -0.0299  1.4167  1.2964
 2821TIP3    H232659   6.193   5.439  15.967 -1.8918  0.3899 -0.9075
 2822TIP3   OH232660   2.516   6.098  15.879  0.2066 -0.8233 -0.1636
 2822TIP3    H132661   2.460   6.083  15.955 -0.0701 -1.0668 -0.4106
 2822TIP3    H232662   2.570   6.020  15.873  1.0573 -0.3025  0.4713
 2823TIP3   OH232663   5.111   3.629  17.794 -0.2645  0.0588  0.8801
 2823TIP3    H132664   5.167   3.706  17.786 -1.3767  0.8050 -0.0075
 2823TIP3    H232665   5.126   3.580  17.713  0.7457 -0.9073  1.6163
 2824TIP3   OH232666   1.290   4.373  15.881  0.3057  0.1623 -0.2872
 2824TIP3    H132667   1.278   4.315  15.807  0.0207 -1.5632  1.0414
 2824TIP3    H232668   1.202   4.401  15.905  0.4037  0.7850 -0.6345
 2825TIP3   OH232669   6.143   3.393  16.974  0.0640  0.3978  0.2950
 2825TIP3    H132670   6.112   3.325  17.034  0.6065  1.2401  1.5672
 2825TIP3    H232671   6.086   3.468  16.992 -0.3194  0.4063 -0.8646
 2826TIP3   OH232672   1.965   5.234  18.421 -0.4264  0.5014 -0.3301
 2826TIP3    H132673   2.047   5.186  18.414 -1.3743 -1.0038 -1.9520
 2826TIP3    H232674   1.985   5.321  18.387  1.2907  1.3752  2.5457
 2827TIP3   OH232675   4.614   3.477  17.875  0.2444 -0.1051 -0.6961
 2827TIP3    H132676   4.575   3.565  17.881  0.4640  0.0113 -0.9595
 2827TIP3    H232677   4.628   3.451  17.966 -0.3515 -0.1049 -0.6034
 2828TIP3   OH232678   5.239   0.687  15.889  0.0237  0.3847 -0.2967
 2828TIP3    H132679   5.316   0.709  15.837 -0.4927 -0.6845 -1.5845
 2828TIP3    H232680   5.265   0.704  15.979  2.3017 -1.2954 -0.5362
 2829TIP3   OH232681   4.182   0.233  17.554 -0.5875 -0.3503 -0.0469
 2829TIP3    H132682   4.245   0.196  17.617  1.4228  2.0074 -0.5323
 2829TIP3    H232683   4.098   0.229  17.600  0.0470 -2.4934  1.1099
 2830TIP3   OH232684   4.960   4.924  18.318 -0.2834 -0.1122  0.1694
 2830TIP3    H132685   5.019   4.865  18.365 -0.7262 -0.7791 -0.0962
 2830TIP3    H232686   4.961   5.005  18.370  0.6755 -0.1897  0.2892
 2831TIP3   OH232687   0.803   2.832  18.536  0.5558 -0.1497  0.3797
 2831TIP3    H132688   0.824   2.765  18.601  2.3692  0.7096  0.7391
 2831TIP3    H232689   0.765   2.903  18.587 -2.3126 -1.2129 -0.1195
 2832TIP3   OH232690   4.532   3.957  17.085 -0.1075 -0.1498 -0.3591
 2832TIP3    H132691   4.509   3.957  16.992  2.8755 -0.9141 -1.1772
 2832TIP3    H232692   4.598   3.889  17.094  0.1873  0.3840  2.2101
 2833TIP3   OH232693   6.731   1.785  19.218  0.0466  0.4329 -0.0802
 2833TIP3    H132694   6.654   1.729  19.229 -0.9677  1.0323 -3.2100
 2833TIP3    H232695   6.805   1.727  19.234 -1.0061 -1.3543 -1.2900
 2834TIP3   OH232696   3.055   0.998  19.378  0.4582 -0.1978  0.1949
 2834TIP3    H132697   3.066   0.903  19.376  0.0578 -0.3148  1.9601
 2834TIP3    H232698   2.965   1.011  19.407  0.7675  0.7015  0.8021
 2835TIP3   OH232699   6.168   3.891  16.392 -0.1124 -0.3095  0.0409
 2835TIP3    H132700   6.229   3.881  16.319  0.0265 -0.0633  0.1214
 2835TIP3    H232701   6.119   3.971  16.371 -0.3823 -0.4863 -0.0052
 2836TIP3   OH232702   3.812   0.060  18.723  0.2614 -0.4042  0.6490
 2836TIP3    H132703   3.876   0.067  18.794  0.2311  0.6838  0.5918
 2836TIP3    H232704   3.863   0.082  18.644  0.1124 -0.8333  0.4299
 2837TIP3   OH232705   0.400   5.444  17.167 -0.2863  0.5013 -0.0106
 2837TIP3    H132706   0.432   5.448  17.077 -0.6465  0.0730 -0.1611
 2837TIP3    H232707   0.478   5.460  17.221  0.1582 -0.3774 -0.3662
 2838TIP3   OH232708   5.153   4.186  17.577  0.9377 -0.3404 -0.2610
 2838TIP3    H132709   5.121   4.265  17.534 -1.3601 -0.5877  0.8079
 2838TIP3    H232710   5.174   4.213  17.667  1.0770 -0.7371 -0.1687
 2839TIP3   OH232711   1.921   2.124  16.523  0.4093 -0.2755  0.1284
 2839TIP3    H132712   1.868   2.103  16.601  1.2744 -0.2945  0.7269
 2839TIP3    H232713   1.857   2.137  16.454 -0.6261  2.6909  1.4809
 2840TIP3   OH232714   2.633   2.685  17.042 -0.1730 -0.2254  0.0137
 2840TIP3    H132715   2.660   2.693  16.950 -0.0939 -0.1141  0.0465
 2840TIP3    H232716   2.714   2.697  17.092 -0.4397  1.1855  0.1502
 2841TIP3   OH232717   0.442   0.901  18.254 -0.1912  0.1414  0.2802
 2841TIP3    H132718   0.409   0.963  18.189  0.5408  0.8716  0.5885
 2841TIP3    H232719   0.375   0.833  18.259  0.1198 -0.4051 -1.8702
 2842TIP3   OH232720   0.437   5.358  16.842 -0.0844  0.7555 -0.2628
 2842TIP3    H132721   0.516   5.405  16.815  0.3327 -0.1814 -0.6810
 2842TIP3    H232722   0.451   5.268  16.814 -0.7258  0.2856  0.8399
 2843TIP3   OH232723   6.304   3.418  18.990 -0.0308 -0.4924 -0.0214
 2843TIP3    H132724   6.229   3.477  18.989 -0.6582 -1.2491  0.8900
 2843TIP3    H232725   6.376   3.472  19.023  0.3436  0.7783 -2.6775
 2844TIP3   OH232726   0.496   2.299  17.527  0.2876  0.1448 -0.6472
 2844TIP3    H132727   0.503   2.299  17.622  2.0235 -1.1334 -0.7229
 2844TIP3    H232728   0.406   2.274  17.509  0.4074 -1.3943  0.6823
 2845TIP3   OH232729   2.235   0.383  17.682  0.5572  0.3248  0.1910
 2845TIP3    H132730   2.213   0.291  17.668  0.1879  0.2646  1.0798
 2845TIP3    H232731   2.200   0.428  17.605  1.1320 -0.3248 -0.4627
 2846TIP3   OH232732   6.224   2.503  18.181 -0.2684  0.0949  0.1413
 2846TIP3    H132733   6.169   2.434  18.144 -0.7153  0.6130 -0.1734
 2846TIP3    H232734   6.314   2.473  18.166 -0.4533 -0.1535 -0.5041
 2847TIP3   OH232735   4.045   3.166  17.254  0.0870  0.1535 -0.5600
 2847TIP3    H132736   3.958   3.200  17.275  0.9865  3.1500 -1.1895
 2847TIP3    H232737   4.105   3.221  17.305  1.7303  0.3247 -2.5651
 2848TIP3   OH232738   0.740   1.532  18.436 -0.0754 -0.4406 -0.3791
 2848TIP3    H132739   0.709   1.590  18.505 -2.4609 -1.6065 -0.3700
 2848TIP3    H232740   0.825   1.501  18.466 -0.2816  0.4367  1.1865
 2849TIP3   OH232741   1.181   0.547  17.824 -0.0797  0.4670 -0.4522
 2849TIP3    H132742   1.203   0.457  17.801  1.5396  0.5948  0.4399
 2849TIP3    H232743   1.154   0.542  17.916 -1.4915  0.6916 -0.8326
 2850TIP3   OH232744   0.083   3.488  19.424 -0.6946 -0.0159 -0.1623
 2850TIP3    H132745   0.144   3.553  19.458  0.6950 -0.1473 -2.2142
 2850TIP3    H232746   0.115   3.404  19.458 -0.2704  0.0088 -0.4996
 2851TIP3   OH232747   2.261   2.872  17.553  0.0178 -0.4626 -0.2894
 2851TIP3    H132748   2.279   2.778  17.543  0.2687 -0.3594 -0.8772
 2851TIP3    H232749   2.290   2.894  17.641  0.3648 -0.8467 -0.3071
 2852TIP3   OH232750   5.732   4.125  15.935  0.2763  0.2507  0.1404
 2852TIP3    H132751   5.684   4.045  15.913 -0.1279  1.1061 -2.3989
 2852TIP3    H232752   5.698   4.191  15.874  1.1586  2.1722  1.6265
 2853TIP3   OH232753   6.372   1.168  18.266 -0.1565 -0.6604  0.3967
 2853TIP3    H132754   6.291   1.161  18.216  1.0546  0.5358 -1.8752
 2853TIP3    H232755   6.430   1.220  18.211  1.7335 -0.3573  2.5250
 2854TIP3   OH232756   5.035   4.770  17.912  0.5331 -0.3866 -0.4826
 2854TIP3    H132757   5.079   4.739  17.991  0.2918  0.0024 -0.1888
 2854TIP3    H232758   5.074   4.719  17.841 -0.3950 -1.9040  0.0557
 2855TIP3   OH232759   1.064   5.199  16.932  0.1674 -0.2458  0.4797
 2855TIP3    H132760   0.982   5.152  16.919 -0.9323  1.5505  0.5884
 2855TIP3    H232761   1.111   5.189  16.850 -0.4909 -0.6564  0.1479
 2856TIP3   OH232762   5.764   1.208  18.829 -0.4962 -0.2504 -0.3918
 2856TIP3    H132763   5.715   1.290  18.832 -2.0181 -1.1474 -0.1282
 2856TIP3    H232764   5.765   1.183  18.737 -2.1585 -1.1496 -0.2006
 2857TIP3   OH232765   2.944   1.890  17.959  0.4860 -0.7820 -0.2913
 2857TIP3    H132766   2.982   1.944  17.889 -1.0606  0.9166  0.1169
 2857TIP3    H232767   2.850   1.908  17.954 -0.0443 -3.1413  0.1658
 2858TIP3   OH232768   4.293   1.802  16.526 -0.6200  0.3751  0.0798
 2858TIP3    H132769   4.317   1.744  16.599 -2.0152 -1.3668 -0.7841
 2858TIP3    H232770   4.342   1.767  16.452  0.1636  1.6479 -0.0319
 2859TIP3   OH232771   1.706   6.358  18.162 -0.4766  0.0672  0.2053
 2859TIP3    H132772   1.795   6.326  18.153 -0.0949  1.3610 -1.0324
 2859TIP3    H232773   1.654   6.304  18.104 -0.4083 -0.3334  0.5154
 2860TIP3   OH232774   1.057   5.557  15.370  0.1635 -0.0375 -0.1982
 2860TIP3    H132775   1.042   5.493  15.300  0.0051 -0.4280  0.1874
 2860TIP3    H232776   0.987   5.541  15.433 -1.2408  2.0202 -1.1368
 2861TIP3   OH232777   1.553   2.970  18.235  0.2946  0.2500  0.5225
 2861TIP3    H132778   1.495   2.977  18.311 -2.6885  1.7075 -1.6386
 2861TIP3    H232779   1.551   2.877  18.212  0.6662 -0.0842  1.7871
 2862TIP3   OH232780   5.022   3.939  19.386  0.4325 -1.0932 -0.0291
 2862TIP3    H132781   4.968   3.947  19.465  0.9864  0.1109  0.2476
 2862TIP3    H232782   5.085   3.870  19.407  1.8150  0.5049  1.3554
 2863TIP3   OH232783   0.356   3.437  17.172 -0.6613 -0.1577 -0.4837
 2863TIP3    H132784   0.361   3.359  17.117 -0.7949 -1.1043  0.7791
 2863TIP3    H232785   0.263   3.456  17.180 -0.6350  0.0611 -0.6993
 2864TIP3   OH232786   3.536   2.251  17.830 -0.1107 -0.5772  0.0179
 2864TIP3    H132787   3.520   2.217  17.918  0.3703  1.4299  0.9478
 2864TIP3    H232788   3.480   2.329  17.824  2.0967  1.1054 -0.2016
 2865TIP3   OH232789   1.467   3.357  17.306 -0.3901  0.3799 -0.2147
 2865TIP3    H132790   1.407   3.393  17.241  0.9341  0.6385 -1.3455
 2865TIP3    H232791   1.474   3.264  17.285 -1.3824  0.0648  0.7448
 2866TIP3   OH232792   4.412   3.627  18.317 -0.8379 -0.5161  0.8480
 2866TIP3    H132793   4.337   3.682  18.344 -1.1325 -0.4509 -0.0537
 2866TIP3    H232794   4.379   3.578  18.243  0.5910  0.9925 -0.8831
 2867TIP3   OH232795   6.280   4.271  19.046  0.1509 -0.2162 -0.5165
 2867TIP3    H132796   6.216   4.340  19.063 -0.2226 -0.1549 -2.0402
 2867TIP3    H232797   6.232   4.206  18.995  0.8806 -0.9353 -0.3024
 2868TIP3   OH232798   6.025   4.014  17.243 -0.3511 -0.5469 -0.2038
 2868TIP3    H132799   6.100   4.037  17.189  1.0827 -3.6854  0.2270
 2868TIP3    H232800   6.038   4.064  17.324 -0.1945  0.8980 -1.0853
 2869TIP3   OH232801   5.806   4.486  17.432  0.0896  0.5896 -0.3712
 2869TIP3    H132802   5.739   4.501  17.365 -0.5969 -0.2002  0.1226
 2869TIP3    H232803   5.835   4.397  17.417  0.4107  0.6347 -0.0283
 2870TIP3   OH232804   1.194   5.789  18.530 -0.8975  0.8377  0.3186
 2870TIP3    H132805   1.160   5.876  18.511 -2.5640  0.3393  0.9116
 2870TIP3    H232806   1.202   5.786  18.626 -2.0613 -0.0781  0.4060
 2871TIP3   OH232807   0.319   3.694  16.784  0.7356  0.7339 -0.5674
 2871TIP3    H132808   0.294   3.698  16.691 -1.2626  1.7305 -0.0674
 2871TIP3    H232809   0.353   3.606  16.797  0.8913  0.5258 -2.2087
 2872TIP3   OH232810   4.430   6.138  16.889 -0.0370 -0.1090 -0.0256
 2872TIP3    H132811   4.478   6.081  16.949 -0.1942 -0.8568 -0.5929
 2872TIP3    H232812   4.445   6.226  16.922  3.5045 -0.0626 -1.3196
 2873TIP3   OH232813   0.858   3.479  17.237 -0.3535 -0.2852  0.2492
 2873TIP3    H132814   0.823   3.421  17.305 -0.0453 -1.8084 -0.8350
 2873TIP3    H232815   0.915   3.422  17.184 -0.3952  0.9102 -1.1380
 2874TIP3   OH232816   5.588   2.027  17.106 -0.0639  0.7919 -0.0514
 2874TIP3    H132817   5.632   2.043  17.190  1.4998 -1.6353 -0.2969
 2874TIP3    H232818   5.533   1.951  17.123  1.3651 -0.6581 -1.4831
 2875TIP3   OH232819   5.222   3.346  16.093 -0.2998  0.4251  0.1749
 2875TIP3    H132820   5.249   3.404  16.165 -0.5180  0.5664  0.1442
 2875TIP3    H232821   5.299   3.343  16.035 -0.2699  0.6493  0.1992
 2876TIP3   OH232822   6.026   4.886  18.700 -0.4918 -0.5225  0.2657
 2876TIP3    H132823   6.020   4.801  18.745 -0.6815  0.0712  1.4160
 2876TIP3    H232824   5.940   4.927  18.715 -0.8513 -0.6155 -1.3455
 2877TIP3   OH232825   0.483   6.730  16.984  0.4505 -0.0690  0.5670
 2877TIP3    H132826   0.450   6.714  17.072 -1.2323  1.7770  0.3472
 2877TIP3    H232827   0.535   6.811  16.993 -0.2665  0.4970 -0.2181
 2878TIP3   OH232828   2.893   5.689  17.492  0.0072 -0.3662  0.6742
 2878TIP3    H132829   2.885   5.757  17.559 -0.0257 -0.4423  0.7467
 2878TIP3    H232830   2.851   5.612  17.530 -1.4113  0.0252 -0.0464
 2879TIP3   OH232831   1.679   4.656  19.150  0.1408 -0.3154  0.2994
 2879TIP3    H132832   1.619   4.686  19.217 -2.1660 -0.4288 -1.5720
 2879TIP3    H232833   1.640   4.575  19.117  1.5049 -0.5752 -0.7725
 2880TIP3   OH232834   3.078   3.034  17.481  0.4000  0.3067  0.6864
 2880TIP3    H132835   3.012   3.103  17.477  1.2267  1.1396 -3.7652
 2880TIP3    H232836   3.162   3.080  17.481  0.9654 -0.5215 -1.9604
 2881TIP3   OH232837   3.004   3.914  16.448 -0.1917  0.1534  0.4467
 2881TIP3    H132838   2.986   3.999  16.408 -0.9505 -0.3355 -0.2922
 2881TIP3    H232839   2.917   3.876  16.463  0.1441 -0.9298 -0.2082
 2882TIP3   OH232840   0.926   1.462  19.533  0.3604  0.5254  0.0635
 2882TIP3    H132841   0.844   1.413  19.531  0.8488 -0.3227  0.1998
 2882TIP3    H232842   0.902   1.548  19.568 -0.1865 -0.2723  1.7586
 2883TIP3   OH232843   4.667   0.564  18.061  0.8491  0.3404  0.5352
 2883TIP3    H132844   4.732   0.629  18.032  0.0106  0.7552 -0.4628
 2883TIP3    H232845   4.608   0.613  18.117  0.4770  0.3418  0.1469
 2884TIP3   OH232846   2.368   3.782  16.572  0.1815  0.1935 -0.5267
 2884TIP3    H132847   2.350   3.691  16.546  1.2644 -0.4360  0.7852
 2884TIP3    H232848   2.442   3.775  16.632  0.0548  1.9262 -0.1248
 2885TIP3   OH232849   4.981   6.040  19.045 -0.1241 -0.3132  0.4527
 2885TIP3    H132850   5.073   6.059  19.030  0.4428 -2.6126  0.5892
 2885TIP3    H232851   4.954   6.101  19.114  1.1801  0.6223  0.1615
 2886TIP3   OH232852   3.392   5.356  16.863  0.1101  0.2343  0.2683
 2886TIP3    H132853   3.465   5.302  16.893 -0.0519  0.5283  1.2317
 2886TIP3    H232854   3.315   5.316  16.904 -0.0813  0.8154  0.4837
 2887TIP3   OH232855   2.938   5.526  16.242 -0.2090 -0.1348  0.1447
 2887TIP3    H132856   2.907   5.511  16.332  0.8856 -2.4378  0.2223
 2887TIP3    H232857   2.868   5.491  16.187  0.1390 -0.9157  0.1874
 2888TIP3   OH232858   0.088   2.903  18.370 -0.2486 -0.5769  0.3339
 2888TIP3    H132859   0.043   2.949  18.299  2.0561  0.5130 -0.5041
 2888TIP3    H232860   0.024   2.902  18.442 -1.6074  0.8940 -0.7766
 2889TIP3   OH232861   3.515   5.824  17.253 -0.1257  0.5354 -0.4004
 2889TIP3    H132862   3.467   5.786  17.326  1.4098 -0.8820 -0.0621
 2889TIP3    H232863   3.494   5.767  17.179  0.9909 -0.1017 -0.2461
 2890TIP3   OH232864   5.917   5.458  16.878  0.0061  0.4672 -0.2592
 2890TIP3    H132865   5.999   5.472  16.925 -0.8025  0.6279  1.1603
 2890TIP3    H232866   5.916   5.525  16.810  0.6778  0.9693  0.2187
 2891TIP3   OH232867   0.083   4.457  17.323  0.7138 -0.2898 -0.1048
 2891TIP3    H132868   0.112   4.365  17.324 -1.6873 -1.1048  1.2793
 2891TIP3    H232869   0.068   4.479  17.415 -2.5367  0.1350 -0.6168
 2892TIP3   OH232870   4.339   4.598  19.060 -0.0074  0.1496  0.1780
 2892TIP3    H132871   4.358   4.507  19.081 -1.0643  0.1793  1.4222
 2892TIP3    H232872   4.244   4.605  19.067  0.0403  1.2930 -0.1171
 2893TIP3   OH232873   0.854   5.306  16.455 -0.2402 -0.5063 -0.2403
 2893TIP3    H132874   0.772   5.307  16.405  1.3987  1.4355 -3.1507
 2893TIP3    H232875   0.914   5.256  16.401  1.3738  0.8528  0.2193
 2894TIP3   OH232876   5.103   5.880  18.231  0.2115  0.1101  0.5163
 2894TIP3    H132877   5.180   5.879  18.174  0.3817 -1.0824  0.7360
 2894TIP3    H232878   5.075   5.971  18.232  1.2567  0.4547 -0.0546
 2895TIP3   OH232879   3.627   2.614  19.186  0.2134 -0.3652 -0.6036
 2895TIP3    H132880   3.623   2.614  19.091 -1.1402  0.8113 -0.5910
 2895TIP3    H232881   3.624   2.707  19.210 -0.7639 -0.6830  0.6173
 2896TIP3   OH232882   2.872   6.026  18.606 -0.0296 -0.7920 -0.1342
 2896TIP3    H132883   2.835   5.940  18.625  0.0023 -0.6413  0.6707
 2896TIP3    H232884   2.896   6.060  18.692 -0.1630  0.0777 -0.4375
 2897TIP3   OH232885   4.397   2.360  17.773  0.5417  0.7035  0.2606
 2897TIP3    H132886   4.473   2.381  17.827  1.0539  0.7976 -0.4851
 2897TIP3    H232887   4.380   2.440  17.724  0.5646  0.3695 -0.2938
 2898TIP3   OH232888   5.241   3.956  18.426 -0.2443 -0.5637 -0.7630
 2898TIP3    H132889   5.178   4.024  18.401 -0.6979 -0.4819  0.5228
 2898TIP3    H232890   5.269   3.980  18.514  1.8461 -0.4424 -1.4035
 2899TIP3   OH232891   2.150   2.198  15.950  0.5322  0.5149  0.0796
 2899TIP3    H132892   2.057   2.184  15.966  0.7702 -0.2567  0.8849
 2899TIP3    H232893   2.177   2.260  16.017  0.3776  1.6421 -0.8631
 2900TIP3   OH232894   4.556   2.199  18.509  0.4957 -0.1451  0.1837
 2900TIP3    H132895   4.650   2.213  18.500  0.7634 -0.5166  2.1292
 2900TIP3    H232896   4.528   2.169  18.422  1.9118  1.2258 -0.7955
 2901TIP3   OH232897   0.236   0.711  18.304  0.1687  0.2361  0.6253
 2901TIP3    H132898   0.177   0.657  18.356 -0.3810 -1.4899 -1.6320
 2901TIP3    H232899   0.199   0.708  18.216  3.8948 -1.5383 -1.0962
 2902TIP3   OH232900   3.449   2.301  17.364  0.2064 -0.2526 -0.4931
 2902TIP3    H132901   3.540   2.273  17.357 -0.1218 -1.0983 -1.5572
 2902TIP3    H232902   3.454   2.396  17.370  1.2223 -0.3593  0.8708
 2903TIP3   OH232903   4.894   1.133  17.597 -0.2397 -0.1661 -0.1685
 2903TIP3    H132904   4.844   1.051  17.597 -2.7022  1.0439  3.7273
 2903TIP3    H232905   4.975   1.111  17.642 -0.3044 -0.7291 -0.3192
 2904TIP3   OH232906   5.367   0.018  18.828 -0.0215  0.7623 -0.6791
 2904TIP3    H132907   5.371   0.110  18.852 -0.4733  0.3390  1.1867
 2904TIP3    H232908   5.449  -0.019  18.861 -0.9677  0.0269  0.9856
 2905TIP3   OH232909   0.166   1.500  18.968  0.6780  0.0285  0.4001
 2905TIP3    H132910   0.175   1.557  18.891  0.9890  0.4797  0.7673
 2905TIP3    H232911   0.074   1.511  18.995  0.5752 -0.1095  0.1127
 2906TIP3   OH232912   1.536   2.453  18.444  0.4367 -0.1272  0.2377
 2906TIP3    H132913   1.597   2.410  18.385  1.5789  2.2141 -0.4060
 2906TIP3    H232914   1.584   2.463  18.526  0.0921 -0.2595  0.4628
 2907TIP3   OH232915   0.009   6.286  15.896  0.1730 -0.2405 -0.2915
 2907TIP3    H132916  -0.033   6.366  15.865  0.1452  0.3914  1.2894
 2907TIP3    H232917  -0.034   6.216  15.847 -1.5326  0.5161  0.0564
 2908TIP3   OH232918   0.861   2.744  17.409 -0.1442 -0.1770 -0.1099
 2908TIP3    H132919   0.944   2.792  17.405 -0.1687  0.0551  1.5048
 2908TIP3    H232920   0.876   2.676  17.475  0.1087 -2.9273 -2.7384
 2909TIP3   OH232921   1.087   4.434  16.848 -0.1604  0.3464 -0.3704
 2909TIP3    H132922   1.071   4.428  16.942 -0.2739  1.5526 -0.3002
 2909TIP3    H232923   1.074   4.345  16.816 -0.9370  0.0810  0.6304
 2910TIP3   OH232924   0.863   0.513  19.292  0.6431  0.4540  0.3216
 2910TIP3    H132925   0.903   0.471  19.369  2.1508 -0.2072 -0.7610
 2910TIP3    H232926   0.858   0.442  19.227 -0.0894  1.1247 -0.3688
 2911TIP3   OH232927   3.097   2.134  17.951  0.1932  0.2323 -0.4818
 2911TIP3    H132928   3.169   2.174  17.903  0.9250 -0.2263  0.1918
 2911TIP3    H232929   3.018   2.171  17.912  0.7919  0.7793 -1.2106
 2912TIP3   OH232930   0.084   5.973  15.335  0.3241  0.2942  0.2210
 2912TIP3    H132931   0.146   6.046  15.325 -0.5269  1.0270  0.2487
 2912TIP3    H232932   0.057   5.977  15.427  1.1245 -0.7711  0.5331
 2913TIP3   OH232933   0.979   5.251  18.812 -0.5463  0.5419  0.3526
 2913TIP3    H132934   1.047   5.203  18.859 -0.3631  0.4369 -0.0183
 2913TIP3    H232935   0.900   5.241  18.865 -0.6171 -0.5360  0.0567
 2914TIP3   OH232936   1.477   1.142  18.226 -0.0446  0.3736 -0.1696
 2914TIP3    H132937   1.493   1.235  18.212  0.5948  0.0631 -1.8177
 2914TIP3    H232938   1.492   1.103  18.140 -0.8087 -1.1861  0.3757
 2915TIP3   OH232939   1.664   6.650  17.754 -0.3215 -0.4532 -0.1367
 2915TIP3    H132940   1.616   6.729  17.728  0.1877 -0.8872 -2.6340
 2915TIP3    H232941   1.644   6.587  17.686  1.2192 -1.7044  0.5233
 2916TIP3   OH232942   5.010   5.792  19.187  0.0770 -0.0525 -0.7010
 2916TIP3    H132943   5.095   5.771  19.226 -0.7363 -1.1034  0.5648
 2916TIP3    H232944   5.023   5.880  19.150  0.9969  0.9314  1.7185
 2917TIP3   OH232945   1.894   1.317  17.129  0.2320  0.3534 -0.5190
 2917TIP3    H132946   1.800   1.307  17.115  0.2800 -2.7472  0.6363
 2917TIP3    H232947   1.904   1.408  17.160 -2.3966  0.6569 -0.3092
 2918TIP3   OH232948   6.091   1.892  19.300  0.1706 -0.1069  0.0756
 2918TIP3    H132949   6.176   1.858  19.273 -0.0254 -1.0684  0.6057
 2918TIP3    H232950   6.067   1.956  19.232  0.7193 -0.7764 -0.7651
 2919TIP3   OH232951   1.689   0.851  19.162 -0.2743  0.3339 -0.0378
 2919TIP3    H132952   1.759   0.793  19.133 -1.9245 -2.1001  0.5182
 2919TIP3    H232953   1.700   0.856  19.257 -1.5969 -1.2799  0.2597
 2920TIP3   OH232954   5.321   0.115  17.414 -0.5118  0.4668  1.0356
 2920TIP3    H132955   5.380   0.125  17.489 -0.4631 -1.7249  1.3422
 2920TIP3    H232956   5.379   0.090  17.342 -1.0734 -3.2446  1.6890
 2921TIP3   OH232957   5.558   0.212  17.574 -0.1324 -0.3553 -0.3575
 2921TIP3    H132958   5.613   0.137  17.549 -1.4125 -1.0341 -1.2479
 2921TIP3    H232959   5.596   0.286  17.526  0.0079 -0.8210 -0.9840
 2922TIP3   OH232960   4.327   2.612  19.112  0.0066 -0.1430 -0.4205
 2922TIP3    H132961   4.326   2.612  19.208 -2.3376  2.2848 -0.3121
 2922TIP3    H232962   4.271   2.539  19.087  1.3133 -1.3240 -0.0161
 2923TIP3   OH232963   5.354   0.941  17.085  0.0546  0.8846 -0.2863
 2923TIP3    H132964   5.302   0.862  17.069  0.9256  0.2119  0.0988
 2923TIP3    H232965   5.309   1.010  17.037 -2.3309  0.7671  1.5512
 2924TIP3   OH232966   3.297   4.019  16.299  0.2300  0.0413  0.4830
 2924TIP3    H132967   3.294   4.082  16.227 -0.1862 -1.0130 -0.4548
 2924TIP3    H232968   3.364   3.956  16.273  0.4526 -0.0630  1.2824
 2925TIP3   OH232969   2.135   2.886  17.979 -0.3899 -0.2999 -0.2370
 2925TIP3    H132970   2.185   2.819  18.025  0.4245  1.4434  1.5348
 2925TIP3    H232971   2.086   2.932  18.047  0.4589  2.0527 -1.1069
 2926TIP3   OH232972   1.442   5.137  16.458 -0.0589  0.3781 -0.3093
 2926TIP3    H132973   1.511   5.168  16.398 -1.7008  1.8145 -1.5634
 2926TIP3    H232974   1.420   5.050  16.425  0.5282  0.2732 -0.4459
 2927TIP3   OH232975   0.665   4.392  18.192  0.0083 -0.2293  0.3682
 2927TIP3    H132976   0.696   4.477  18.163 -0.8269  0.1007  0.3938
 2927TIP3    H232977   0.586   4.376  18.139  1.0028 -1.7014 -0.7466
 2928TIP3   OH232978   3.949   5.759  18.579  0.2853  0.4212 -0.3045
 2928TIP3    H132979   3.983   5.674  18.607 -2.2149 -0.8384 -0.7685
 2928TIP3    H232980   3.973   5.819  18.650  0.9893 -0.9384  0.6600
 2929TIP3   OH232981   5.203   3.413  17.612  0.4268  0.0963 -0.5339
 2929TIP3    H132982   5.243   3.369  17.686 -0.4136 -1.2487 -0.8533
 2929TIP3    H232983   5.277   3.448  17.562  1.0305  0.3495  0.5133
 2930TIP3   OH232984   3.376   1.106  17.131  0.1186 -0.4563  0.1136
 2930TIP3    H132985   3.292   1.090  17.088  0.4942  0.4358 -0.9721
 2930TIP3    H232986   3.356   1.099  17.224 -1.1023 -0.5130 -0.1329
 2931TIP3   OH232987   5.218   3.673  16.964  0.0193  0.0172  0.1827
 2931TIP3    H132988   5.157   3.667  17.037 -1.0286 -1.8008 -0.7657
 2931TIP3    H232989   5.273   3.748  16.985 -0.7263  0.0101  2.4490
 2932TIP3   OH232990   2.146   2.831  18.465  0.3930  0.4404 -0.6740
 2932TIP3    H132991   2.073   2.842  18.404  0.0047 -0.7118 -0.4459
 2932TIP3    H232992   2.207   2.773  18.420 -0.3206 -1.1848  0.3259
 2933TIP3   OH232993   4.787   2.065  18.042 -0.0954  0.4408  0.0946
 2933TIP3    H132994   4.800   2.157  18.063  0.0599  0.1862  1.2210
 2933TIP3    H232995   4.710   2.063  17.986  1.2083  1.4570 -1.8208
 2934TIP3   OH232996   6.591   6.420  17.378 -0.3571  0.0648  0.2894
 2934TIP3    H132997   6.535   6.390  17.307 -2.4277  1.7872  1.0658
 2934TIP3    H232998   6.599   6.344  17.436  0.7359 -1.1243 -1.3495
 2935TIP3   OH232999   5.890   2.172  17.050  0.1947  0.9930 -0.1180
 2935TIP3    H133000   5.859   2.149  17.138  1.1570  1.8510  0.4685
 2935TIP3    H233001   5.822   2.230  17.015 -0.1581  0.7025  0.0802
 2936TIP3   OH233002   6.102   1.848  17.388 -0.3029  0.4184  0.7221
 2936TIP3    H133003   6.051   1.773  17.421  0.9216  0.8010  3.8530
 2936TIP3    H233004   6.193   1.822  17.401  0.1485  2.3034  1.6644
 2937TIP3   OH233005   2.909   2.272  18.570 -0.3725 -0.2971  0.0318
 2937TIP3    H133006   2.937   2.249  18.658 -0.9839  1.3996  0.7154
 2937TIP3    H233007   2.858   2.197  18.540 -0.7556 -0.6010  1.4024
 2938TIP3   OH233008   0.756   0.570  18.802 -0.3538  0.0333  0.1252
 2938TIP3    H133009   0.807   0.648  18.826 -1.2553  0.8613 -0.5754
 2938TIP3    H233010   0.697   0.557  18.876 -1.0856  0.8083 -0.2988
 2939TIP3   OH233011   2.941   5.468  18.759  0.2128  0.5422  0.6031
 2939TIP3    H133012   2.851   5.439  18.762  0.2500  0.0823 -1.3174
 2939TIP3    H233013   2.975   5.453  18.847 -0.6566 -2.3429  0.5453
 2940TIP3   OH233014   4.712   0.675  18.845  0.3410  0.4684 -0.2655
 2940TIP3    H133015   4.731   0.589  18.883 -0.9594  0.9315  1.5686
 2940TIP3    H233016   4.666   0.656  18.763 -0.4178 -0.5917  0.3870
 2941TIP3   OH233017   2.011   1.792  18.065 -0.2834  0.7457  0.2023
 2941TIP3    H133018   1.931   1.769  18.018 -0.5112  0.4153  0.7419
 2941TIP3    H233019   2.027   1.718  18.124 -0.0714  1.1965  0.7292
 2942TIP3   OH233020   1.430   3.018  17.493  0.1064 -0.2938  0.1275
 2942TIP3    H133021   1.445   3.043  17.402  0.4184  0.0193  0.2581
 2942TIP3    H233022   1.347   3.059  17.516  0.6757  0.7831  0.3793
 2943TIP3   OH233023   6.533   2.013  16.030  0.2554 -0.0566  0.3513
 2943TIP3    H133024   6.585   1.965  16.095 -0.5579 -0.9390  0.3589
 2943TIP3    H233025   6.534   2.103  16.062  3.1957  0.3491 -0.5399
 2944TIP3   OH233026   0.434   2.800  17.273 -0.2423 -0.3907 -0.5146
 2944TIP3    H133027   0.500   2.848  17.322  1.2936 -0.4214 -2.3930
 2944TIP3    H233028   0.432   2.713  17.313 -0.6006  0.1908  0.7805
 2945TIP3   OH233029   4.195   1.818  17.318 -0.6423 -0.0889 -0.2468
 2945TIP3    H133030   4.166   1.909  17.320 -2.4407 -0.6292 -0.2665
 2945TIP3    H233031   4.146   1.779  17.246  1.7266 -0.6096 -1.6878
 2946TIP3   OH233032   3.944   2.288  17.203  0.4634  0.2884  0.2496
 2946TIP3    H133033   3.886   2.267  17.130  0.0627  0.5116  0.4960
 2946TIP3    H233034   4.010   2.347  17.165  1.6766 -1.4502 -0.4757
 2947TIP3   OH233035   1.971   4.539  19.232 -0.2093 -0.0013 -0.0880
 2947TIP3    H133036   1.881   4.571  19.220 -0.5375 -0.2862  1.3568
 2947TIP3    H233037   1.974   4.457  19.183 -0.7494  0.0013 -0.1306
 2948TIP3   OH233038   2.929   0.548  18.458  0.2169 -0.2369  0.4608
 2948TIP3    H133039   2.910   0.503  18.376 -0.2060  0.2201  0.3054
 2948TIP3    H233040   2.999   0.496  18.498  0.1632 -0.6763 -0.0065
 2949TIP3   OH233041   3.158   2.150  18.875 -0.1599  0.1102 -0.2354
 2949TIP3    H133042   3.066   2.156  18.903 -0.3715  1.4667 -1.1147
 2949TIP3    H233043   3.170   2.057  18.853 -0.9956 -0.2926  0.9075
 2950TIP3   OH233044   5.395   1.716  17.774 -0.3586 -0.5370 -0.2386
 2950TIP3    H133045   5.448   1.650  17.818 -1.2801 -1.6622 -0.7615
 2950TIP3    H233046   5.373   1.779  17.843  0.8049 -0.5767  0.1971
 2951TIP3   OH233047   0.903   4.390  18.009 -0.0410 -0.4469  0.0408
 2951TIP3    H133048   0.858   4.330  18.069 -1.3403 -1.8116 -2.1398
 2951TIP3    H233049   0.928   4.335  17.935  0.8867  1.2822 -0.9912
 2952TIP3   OH233050   0.522   4.198  16.568  0.5461 -0.1644  0.3261
 2952TIP3    H133051   0.605   4.155  16.546  1.1103  1.2626 -0.4657
 2952TIP3    H233052   0.477   4.136  16.625  0.7252 -2.4084 -1.8111
 2953TIP3   OH233053   0.322   3.635  19.209 -0.1091 -0.5607 -0.0289
 2953TIP3    H133054   0.280   3.708  19.163  1.9933  1.5474  1.1991
 2953TIP3    H233055   0.285   3.557  19.168 -3.2826  1.1038 -0.7240
 2954TIP3   OH233056   3.854   1.755  18.575  0.7053 -0.5054  0.0290
 2954TIP3    H133057   3.819   1.712  18.498  0.6044  0.2753 -0.3707
 2954TIP3    H233058   3.946   1.770  18.555  1.3618 -2.6592  1.1252
 2955TIP3   OH233059   1.237   5.701  16.507 -0.7144  0.0305 -0.2611
 2955TIP3    H133060   1.169   5.651  16.552  1.3249 -0.0232  3.0787
 2955TIP3    H233061   1.318   5.654  16.525  0.5701  1.4276 -1.9983
 2956TIP3   OH233062   1.555   3.389  18.890 -0.1242  0.1644  0.1702
 2956TIP3    H133063   1.608   3.407  18.812  0.6271  1.0490  0.8549
 2956TIP3    H233064   1.465   3.380  18.857  0.5069 -2.2409 -1.1359
 2957TIP3   OH233065   3.888   0.900  16.740 -0.0307 -0.2011  0.2942
 2957TIP3    H133066   3.901   0.806  16.752 -0.2844 -0.2791 -0.0175
 2957TIP3    H233067   3.826   0.925  16.809  0.5690 -0.1250  0.8131
 2958TIP3   OH233068   1.312   6.556  17.685  0.3690 -0.4211 -0.2348
 2958TIP3    H133069   1.260   6.627  17.647  3.6396  2.8205  0.7741
 2958TIP3    H233070   1.294   6.560  17.779  3.3777  1.9198  0.3931
 2959TIP3   OH233071   2.056   5.316  17.664  0.1818 -0.1429  0.2107
 2959TIP3    H133072   2.069   5.368  17.743  0.0582 -1.2022  0.9575
 2959TIP3    H233073   1.964   5.330  17.641  0.0763 -0.2381  0.5674
 2960TIP3   OH233074   5.327   1.896  17.103 -0.4785  1.0547 -0.3826
 2960TIP3    H133075   5.273   1.818  17.100 -0.7917  1.2523  0.0083
 2960TIP3    H233076   5.314   1.931  17.192  1.7068  0.0966  0.3853
 2961TIP3   OH233077   1.489   3.186  18.638  0.1981 -0.6505  0.1017
 2961TIP3    H133078   1.400   3.172  18.671  0.4845  2.3035  2.6484
 2961TIP3    H233079   1.480   3.254  18.572  0.6107  1.1359  1.7633
 2962TIP3   OH233080   0.820   4.107  17.801 -0.0524  0.5222  0.0154
 2962TIP3    H133081   0.733   4.110  17.842 -0.0239  0.3105  0.0921
 2962TIP3    H233082   0.839   4.013  17.793  0.8507  0.5573  1.4358
 2963TIP3   OH233083   2.574   5.988  18.198  0.4654 -0.3077 -0.1272
 2963TIP3    H133084   2.628   5.924  18.151  0.3784 -1.0289  0.7332
 2963TIP3    H233085   2.570   6.064  18.139  3.0632  0.0867  0.0791
 2964TIP3   OH233086   5.250   1.468  15.609  0.0429  0.6217 -0.2471
 2964TIP3    H133087   5.201   1.536  15.563  0.2098  1.3532  0.6233
 2964TIP3    H233088   5.228   1.482  15.701 -0.2399 -0.7743 -0.0816
 2965TIP3   OH233089   3.625   0.268  18.459 -0.1948  0.1148  0.5391
 2965TIP3    H133090   3.660   0.276  18.370 -1.4664 -0.0051  0.0090
 2965TIP3    H233091   3.695   0.303  18.515  0.5942  0.2652 -0.5057
 2966TIP3   OH233092   2.130   6.442  16.692 -0.2677  0.2734 -0.0731
 2966TIP3    H133093   2.126   6.432  16.597 -1.1367 -1.3317  0.0958
 2966TIP3    H233094   2.193   6.376  16.720 -0.6962  0.1087  0.5253
 2967TIP3   OH233095   2.601   5.420  18.299 -0.2774  0.0210 -0.0955
 2967TIP3    H133096   2.639   5.350  18.352  0.6661 -0.1112 -0.9045
 2967TIP3    H233097   2.649   5.498  18.325  1.3491 -0.3106 -1.8119
 2968TIP3   OH233098   3.676   5.543  16.937  0.1899 -0.1637  0.1006
 2968TIP3    H133099   3.619   5.470  16.911 -2.2526  1.4429  0.5851
 2968TIP3    H233100   3.691   5.529  17.031  0.2981 -0.4241  0.0439
 2969TIP3   OH233101   5.450   0.581  17.639 -0.4099 -0.4081  0.3548
 2969TIP3    H133102   5.385   0.515  17.613 -2.1070  1.2775  0.1075
 2969TIP3    H233103   5.470   0.560  17.730  1.2814 -2.9365 -0.4815
 2970TIP3   OH233104   0.377   6.225  15.913 -0.0247  0.0678  0.0195
 2970TIP3    H133105   0.381   6.315  15.879  1.8426  0.5441  1.3286
 2970TIP3    H233106   0.311   6.182  15.859  1.7702  1.1047 -3.2337
 2971TIP3   OH233107   4.604   4.486  18.356  0.3700 -0.1042 -0.3281
 2971TIP3    H133108   4.522   4.535  18.359 -0.3810 -1.1987 -1.7264
 2971TIP3    H233109   4.632   4.480  18.447 -1.4002 -0.1861  0.2463
 2972TIP3   OH233110   5.393   6.255  18.549  0.6074  0.2780  0.3485
 2972TIP3    H133111   5.355   6.184  18.599 -1.6279  0.5343 -0.8374
 2972TIP3    H233112   5.364   6.335  18.594 -1.3092  0.5065 -1.1298
 2973TIP3   OH233113   3.464   2.915  16.647  0.2455 -0.2531  0.2033
 2973TIP3    H133114   3.474   3.006  16.619  2.8791 -0.4237  0.3553
 2973TIP3    H233115   3.464   2.865  16.565  1.1944 -0.2708  0.2069
 2974TIP3   OH233116   6.193   6.180  17.337  0.1927  0.5428  1.0117
 2974TIP3    H133117   6.285   6.173  17.361  0.2993 -1.5392  0.2113
 2974TIP3    H233118   6.164   6.090  17.327 -2.1024  1.1410  1.7609
 2975TIP3   OH233119   0.031   3.956  16.649 -0.0600 -0.1930 -0.2041
 2975TIP3    H133120   0.085   4.035  16.649 -0.5704  0.1767  0.9911
 2975TIP3    H233121  -0.036   3.973  16.715 -1.5202 -0.7271 -1.5083
 2976TIP3   OH233122   0.730   4.916  17.046 -0.1593 -0.2647  0.4683
 2976TIP3    H133123   0.801   4.921  17.110 -1.5175  0.5457  2.0079
 2976TIP3    H233124   0.762   4.966  16.971  0.2702  1.5983  1.8193
 2977TIP3   OH233125   2.881   6.013  18.002  1.0718  0.0096  0.1445
 2977TIP3    H133126   2.807   5.956  18.024  0.7207 -0.1416 -1.3512
 2977TIP3    H233127   2.864   6.042  17.913  3.2795 -0.7619 -0.5916
 2978TIP3   OH233128   0.665   5.949  16.084 -0.0187  0.5014  0.1879
 2978TIP3    H133129   0.571   5.947  16.071 -0.3459 -0.9067  2.1696
 2978TIP3    H233130   0.683   6.035  16.122 -0.4038  0.9929 -0.7342
 2979TIP3   OH233131   0.220   1.864  16.157 -0.1787 -0.4575 -0.1239
 2979TIP3    H133132   0.257   1.783  16.122 -1.0081 -0.7031 -0.4765
 2979TIP3    H233133   0.131   1.839  16.184 -0.2141  0.1866  0.3668
 2980TIP3   OH233134   0.219   3.415  19.042 -0.1534  0.6275 -0.2917
 2980TIP3    H133135   0.188   3.329  19.071  1.0159 -0.2817 -1.5955
 2980TIP3    H233136   0.274   3.396  18.965  0.6564  2.4778 -0.2250
 2981TIP3   OH233137   0.102   6.493  18.430  0.1718 -0.2409 -0.3116
 2981TIP3    H133138   0.109   6.405  18.467 -0.2826 -0.3395 -0.4508
 2981TIP3    H233139   0.099   6.552  18.505  0.0401 -0.3801 -0.2073
 2982TIP3   OH233140   1.105   5.255  18.328  0.5228  0.2973 -0.0416
 2982TIP3    H133141   1.055   5.265  18.246 -1.7472 -0.4894  1.1469
 2982TIP3    H233142   1.085   5.334  18.377 -0.8150 -0.6702  1.0402
 2983TIP3   OH233143   1.630   6.315  18.797 -0.0931  0.2618  0.2400
 2983TIP3    H133144   1.633   6.255  18.723  1.2003  0.5893 -0.0031
 2983TIP3    H233145   1.685   6.389  18.770  1.1479 -0.0130  1.8602
 2984TIP3   OH233146   3.634   4.380  19.486 -0.3071  0.0533 -0.2827
 2984TIP3    H133147   3.639   4.312  19.419  2.3525  0.3612 -0.4765
 2984TIP3    H233148   3.613   4.332  19.567  2.3135 -1.1885 -0.2531
 2985TIP3   OH233149   4.941   6.202  16.751 -0.2238 -0.0202  0.2661
 2985TIP3    H133150   4.906   6.221  16.664  1.9459  1.3856 -0.3859
 2985TIP3    H233151   5.021   6.152  16.733 -1.9528 -3.6646  1.7101
 2986TIP3   OH233152   2.843   5.743  16.835  0.1653 -0.0454  0.2674
 2986TIP3    H133153   2.876   5.666  16.788 -2.1310  0.3894 -2.3441
 2986TIP3    H233154   2.918   5.800  16.845  1.0808 -0.8475 -1.5906
 2987TIP3   OH233155   1.124   0.734  16.297  0.1888  0.4970 -0.1694
 2987TIP3    H133156   1.122   0.811  16.239  0.3210 -0.3175 -1.2885
 2987TIP3    H233157   1.069   0.669  16.252  0.7108 -0.3319  0.3710
 2988TIP3   OH233158   0.774   3.116  17.562  0.0834  0.4127  0.3517
 2988TIP3    H133159   0.713   3.103  17.635 -0.6464 -0.3078 -0.3607
 2988TIP3    H233160   0.854   3.071  17.590  0.6475  2.1275  1.6746
 2989TIP3   OH233161   4.124   2.330  18.520  0.1261 -0.0378  0.1945
 2989TIP3    H133162   4.068   2.273  18.467 -2.5631  1.2141  1.4866
 2989TIP3    H233163   4.116   2.296  18.609  0.2460  1.0320  0.6264
 2990TIP3   OH233164   6.066   1.018  16.343 -0.5542 -0.3877 -0.6164
 2990TIP3    H133165   6.131   1.053  16.282 -1.2414 -0.9753 -1.7321
 2990TIP3    H233166   6.099   0.931  16.367  0.9182  0.7445  1.7885
 2991TIP3   OH233167   4.297   5.016  15.921  0.3849  0.3445 -0.0503
 2991TIP3    H133168   4.277   4.924  15.899  0.4923  0.2302  0.3344
 2991TIP3    H233169   4.392   5.020  15.922  0.4476 -0.2053  2.6487
 2992TIP3   OH233170   0.889   5.259  15.928  0.1023  0.0571  0.2364
 2992TIP3    H133171   0.881   5.213  15.844 -1.4308  0.8607 -0.0829
 2992TIP3    H233172   0.982   5.251  15.950  0.3710 -0.9215 -1.0932
 2993TIP3   OH233173   4.749   2.790  19.350 -0.2627 -1.0434  0.0963
 2993TIP3    H133174   4.699   2.709  19.344 -0.8658 -0.6655 -0.1141
 2993TIP3    H233175   4.738   2.832  19.264  1.1840 -1.3866 -0.2828
 2994TIP3   OH233176   0.261   0.881  16.982  0.3056 -0.0863 -0.1321
 2994TIP3    H133177   0.300   0.836  16.907  2.1186 -0.0471  0.7228
 2994TIP3    H233178   0.239   0.811  17.043  0.2625 -0.0253 -0.0780
 2995TIP3   OH233179   0.063   3.893  16.214  0.2563 -0.2667 -0.2976
 2995TIP3    H133180   0.145   3.848  16.238  1.3238  2.0331  0.6521
 2995TIP3    H233181   0.011   3.825  16.172  2.6236 -1.8589 -0.9124
 2996TIP3   OH233182   2.493   0.584  18.362  0.0617 -0.6939 -0.4960
 2996TIP3    H133183   2.422   0.548  18.416  0.7982 -1.2292  0.1474
 2996TIP3    H233184   2.572   0.564  18.412  0.5538  1.2884 -0.4279
 2997TIP3   OH233185   0.273   2.134  18.377  0.8295  0.5140  0.1296
 2997TIP3    H133186   0.232   2.191  18.312  0.8205  0.2208 -0.1268
 2997TIP3    H233187   0.243   2.168  18.461 -0.8106 -0.3120 -0.0662
 2998TIP3   OH233188   1.151   1.705  19.845  0.5414 -0.0975  0.0711
 2998TIP3    H133189   1.140   1.796  19.815 -0.3741  0.7658  2.7147
 2998TIP3    H233190   1.064   1.666  19.833  0.6168 -0.2472  0.0241
 2999TIP3   OH233191   0.851   1.735  19.323 -0.6754 -0.4839  0.6776
 2999TIP3    H133192   0.884   1.813  19.278 -2.3636 -0.8112 -1.3222
 2999TIP3    H233193   0.784   1.769  19.382 -0.3917 -0.2866  0.8872
 3000TIP3   OH233194   0.481   4.887  18.010 -0.0277  0.2873  0.2909
 3000TIP3    H133195   0.478   4.904  17.916 -0.0189 -0.0143  0.2339
 3000TIP3    H233196   0.389   4.877  18.035  0.0431 -1.2598  0.0046
 3001TIP3   OH233197   3.303   0.900  17.864  0.3620  0.0432  0.1473
 3001TIP3    H133198   3.237   0.954  17.907  0.7305  0.3636  0.3129
 3001TIP3    H233199   3.352   0.860  17.935 -0.7571 -1.5912  0.0484
 3002TIP3   OH233200   3.824   3.643  16.836 -0.1825  0.0006  1.2978
 3002TIP3    H133201   3.880   3.605  16.904 -0.0159 -1.1506  0.5409
 3002TIP3    H233202   3.879   3.646  16.758 -0.4388  1.1167  1.1451
 3003TIP3   OH233203   0.589   2.594  18.011 -0.1415  0.3851  0.5446
 3003TIP3    H133204   0.665   2.537  18.021  0.9281  1.9417  1.7091
 3003TIP3    H233205   0.625   2.681  17.993 -1.6742  0.9975  0.2432
 3004TIP3   OH233206   2.873   2.297  19.209 -0.1715  1.5204  0.0715
 3004TIP3    H133207   2.838   2.317  19.296  0.6706  0.0032  0.7902
 3004TIP3    H233208   2.797   2.300  19.151 -0.8066  2.1678  0.9159
 3005TIP3   OH233209   0.088   6.454  16.109  0.4075  0.4673 -0.0812
 3005TIP3    H133210   0.056   6.397  16.039  2.1228  0.6684 -1.0959
 3005TIP3    H233211   0.170   6.414  16.137 -0.6331 -0.0463  2.4396
 3006TIP3   OH233212   0.674   0.879  18.853 -0.3283  0.0606 -0.2954
 3006TIP3    H133213   0.600   0.937  18.836  0.7690  0.9219 -2.5255
 3006TIP3    H233214   0.720   0.873  18.769  2.0084 -0.5950  0.9379
 3007TIP3   OH233215   1.865   1.518  19.590  0.1400 -0.1314 -0.1469
 3007TIP3    H133216   1.867   1.422  19.593 -0.4998 -0.2251 -1.7084
 3007TIP3    H233217   1.809   1.538  19.515 -0.2174  1.4828  0.5165
 3008TIP3   OH233218   4.955   1.478  17.329 -0.2764  0.3210  0.1544
 3008TIP3    H133219   5.044   1.484  17.293  0.7772 -0.8931  2.3704
 3008TIP3    H233220   4.965   1.500  17.422 -2.1874 -0.5298  0.6100
 3009TIP3   OH233221   1.525   1.636  18.762 -0.0002  0.0535 -0.2426
 3009TIP3    H133222   1.559   1.711  18.714 -0.1801 -0.5252 -1.3206
 3009TIP3    H233223   1.500   1.670  18.848 -1.0190  1.4297 -1.0570
 3010TIP3   OH233224   2.260   6.278  18.888  0.3084  0.2741  0.2289
 3010TIP3    H133225   2.336   6.337  18.884 -0.5157  1.3617  0.1596
 3010TIP3    H233226   2.286   6.210  18.951  0.2204  2.3191  2.6470
 3011TIP3   OH233227   5.918   5.554  18.780  1.2069 -0.3867  0.1029
 3011TIP3    H133228   6.006   5.574  18.748  1.3727 -1.1406  0.0633
 3011TIP3    H233229   5.859   5.600  18.720  1.5845  1.5883  1.1708
 3012TIP3   OH233230   4.767   1.705  17.930  0.5569  0.2489  0.4504
 3012TIP3    H133231   4.705   1.777  17.939 -0.6842 -0.3692 -2.0507
 3012TIP3    H233232   4.713   1.626  17.935  1.3925 -0.3779 -0.0950
 3013TIP3   OH233233   1.109   4.277  18.442 -0.1235 -0.3975 -0.1413
 3013TIP3    H133234   1.018   4.304  18.428 -0.0222  0.2284  0.3056
 3013TIP3    H233235   1.161   4.349  18.406  0.2034 -0.8774 -0.6392
 3014TIP3   OH233236   6.375   1.899  17.889  0.0723 -0.3959  0.9115
 3014TIP3    H133237   6.341   1.980  17.852  2.6148 -0.2652 -1.4285
 3014TIP3    H233238   6.298   1.855  17.924 -1.7502  1.8837  0.0692
 3015TIP3   OH233239   4.203   1.941  19.529  0.5588 -0.2509 -0.0850
 3015TIP3    H133240   4.112   1.940  19.561  0.3320 -2.5043 -0.6422
 3015TIP3    H233241   4.202   2.006  19.459 -0.2452  0.8229  0.8716
 3016TIP3   OH233242   3.582   2.883  17.070 -0.7913  0.3421  0.2578
 3016TIP3    H133243   3.579   2.859  16.978  1.1750 -1.7231  0.6394
 3016TIP3    H233244   3.665   2.929  17.081 -0.0649 -1.1001  1.2720
 3017TIP3   OH233245   1.615   3.723  18.853 -0.1930 -0.1385  0.0157
 3017TIP3    H133246   1.563   3.674  18.916 -0.3503 -2.4333 -1.7981
 3017TIP3    H233247   1.656   3.657  18.798  0.4598  1.7520 -1.9116
 3018TIP3   OH233248   1.807   4.118  18.857  0.0191 -0.1266 -0.2778
 3018TIP3    H133249   1.803   4.058  18.782  2.2733 -0.1622 -0.4337
 3018TIP3    H233250   1.775   4.067  18.931  0.2936 -0.9766 -0.7336
 3019TIP3   OH233251   0.280   0.377  19.190  0.0800 -0.8122  0.4464
 3019TIP3    H133252   0.231   0.307  19.233  0.9811 -0.8692  1.4181
 3019TIP3    H233253   0.256   0.456  19.239  0.7953 -0.8089  0.7996
 3020TIP3   OH233254   2.892   4.752  16.476  0.7570 -0.3020 -0.1580
 3020TIP3    H133255   2.967   4.780  16.424 -1.1451  6.9803 -0.0493
 3020TIP3    H233256   2.835   4.707  16.413  1.7565  1.5176 -2.5200
 3021TIP3   OH233257   1.678   3.873  17.571 -0.2427 -0.1335 -0.9115
 3021TIP3    H133258   1.739   3.821  17.519 -0.6458 -1.2544 -0.2960
 3021TIP3    H233259   1.605   3.814  17.588  0.2021 -0.0668  1.5701
 3022TIP3   OH233260   2.906   0.087  17.299 -0.1296 -0.0261  0.0778
 3022TIP3    H133261   2.943   0.084  17.211 -0.4796  0.1954 -0.0799
 3022TIP3    H233262   2.855   0.006  17.306 -1.3163  0.6574 -0.4708
 3023TIP3   OH233263   5.196   1.220  17.893 -0.8128  0.3428  0.6299
 3023TIP3    H133264   5.252   1.164  17.947 -0.0690  2.5964  2.3360
 3023TIP3    H233265   5.220   1.198  17.803  2.5767  0.8379  1.2568
 3024TIP3   OH233266   2.939   5.338  17.908  0.2422  0.0568  0.1490
 3024TIP3    H133267   2.910   5.252  17.879  1.5967 -0.6643  0.8265
 3024TIP3    H233268   2.947   5.389  17.828 -1.1190 -0.2535 -0.2065
 3025TIP3   OH233269   3.024   5.751  16.432  0.2760  0.2975  0.0596
 3025TIP3    H133270   3.042   5.836  16.472 -1.7872 -0.3081  2.5025
 3025TIP3    H233271   3.092   5.693  16.467  1.7779  0.8712 -1.7281
 3026TIP3   OH233272   2.481   3.887  18.123 -0.1932 -0.1203 -0.4420
 3026TIP3    H133273   2.468   3.831  18.200 -0.1230  0.6087  0.1110
 3026TIP3    H233274   2.436   3.841  18.052 -2.3765  0.3651  0.5485
 3027TIP3   OH233275   6.408   5.037  18.807  0.3765  0.2946 -0.1738
 3027TIP3    H133276   6.390   5.034  18.901 -0.1439  1.0212 -0.2396
 3027TIP3    H233277   6.429   5.129  18.789  1.0455  0.0526 -0.6705
 3028TIP3   OH233278   1.187   6.284  19.365 -0.2340  1.1334 -0.7385
 3028TIP3    H133279   1.124   6.355  19.355 -1.0483  0.4332 -0.7174
 3028TIP3    H233280   1.133   6.208  19.387  0.8030  1.0046  1.7301
 3029TIP3   OH233281   5.018   4.434  19.284 -0.5115  0.1493 -0.1402
 3029TIP3    H133282   4.946   4.388  19.327  0.0608  0.0110  0.6799
 3029TIP3    H233283   5.022   4.396  19.196 -1.6990  0.4458 -0.3364
 3030TIP3   OH233284   6.385   4.459  16.252  0.1721 -0.2166  0.6552
 3030TIP3    H133285   6.472   4.498  16.248 -0.5101  1.3382  0.4073
 3030TIP3    H233286   6.352   4.481  16.339 -0.1635 -0.3971  0.5751
 3031TIP3   OH233287   0.830   0.270  19.170 -0.1975 -0.1463 -0.4959
 3031TIP3    H133288   0.854   0.179  19.188 -1.0260 -0.3937 -0.5542
 3031TIP3    H233289   0.734   0.270  19.174 -0.1775  1.1845  1.7076
 3032TIP3   OH233290   3.662   4.885  19.018  0.3135  0.0294  0.2640
 3032TIP3    H133291   3.630   4.927  18.938 -0.3024  0.8040  0.8962
 3032TIP3    H233292   3.595   4.906  19.084 -0.1562 -2.1562  0.5647
 3033TIP3   OH233293   5.884   6.238  18.076  0.3436 -0.7238 -0.7646
 3033TIP3    H133294   5.949   6.274  18.136 -0.0552 -1.9307  0.4720
 3033TIP3    H233295   5.930   6.168  18.029  0.5037 -0.1514 -1.4731
 3034TIP3   OH233296   1.952   4.043  17.012  0.6609 -0.1286 -0.8243
 3034TIP3    H133297   1.953   3.979  17.083 -0.5266 -0.4257 -1.0503
 3034TIP3    H233298   1.868   4.087  17.021  0.4097 -0.2851 -2.1448
 3035TIP3   OH233299   6.602   5.275  15.555  0.3659  0.2330 -0.1033
 3035TIP3    H133300   6.609   5.246  15.464 -0.9832  0.7724 -0.3886
 3035TIP3    H233301   6.692   5.270  15.588  0.9441  0.4367 -1.5797
 3036TIP3   OH233302   1.053   6.031  18.492  0.0140 -0.4651  0.5933
 3036TIP3    H133303   1.056   6.122  18.522 -0.7477 -0.3366  0.3282
 3036TIP3    H233304   0.961   6.005  18.505 -0.2238 -0.5694 -1.0899
 3037TIP3   OH233305   4.196   5.914  18.401 -0.1152 -0.1428 -0.4494
 3037TIP3    H133306   4.175   5.882  18.313 -0.0242  1.3777 -1.0714
 3037TIP3    H233307   4.131   5.983  18.417  1.2142  1.1323 -0.2922
 3038TIP3   OH233308   2.437   1.232  15.678 -0.2667 -0.0673  0.5408
 3038TIP3    H133309   2.365   1.190  15.725 -2.4639  1.3574 -1.3368
 3038TIP3    H233310   2.394   1.282  15.608  2.6485 -0.0493 -1.3877
 3039TIP3   OH233311   4.437   6.118  17.611  0.2977  0.8374 -0.0755
 3039TIP3    H133312   4.502   6.186  17.625  0.1891  0.6836  1.2979
 3039TIP3    H233313   4.364   6.142  17.668 -0.5686  0.6274 -1.0623
 3040TIP3   OH233314   5.649   1.893  15.803 -0.3147  0.0948  0.4158
 3040TIP3    H133315   5.563   1.863  15.775 -0.2114 -0.2521  0.4721
 3040TIP3    H233316   5.657   1.863  15.893 -0.5480  1.0045  0.7557
 3041TIP3   OH233317   3.894   2.954  17.467  0.1105  0.0344  0.4722
 3041TIP3    H133318   3.828   2.906  17.518  0.5201 -1.8077 -0.6392
 3041TIP3    H233319   3.877   3.046  17.487 -0.5963 -0.5323  2.8487
 3042TIP3   OH233320   1.539   1.819  18.984  0.1677  0.0481  1.0630
 3042TIP3    H133321   1.491   1.807  19.066 -2.8527  0.1238 -0.5382
 3042TIP3    H233322   1.534   1.913  18.967  1.2208  0.1037  1.0230
 3043TIP3   OH233323   2.729   2.321  17.603 -0.1949  0.6747  0.2626
 3043TIP3    H133324   2.754   2.271  17.681  0.3371  0.4512 -0.0497
 3043TIP3    H233325   2.754   2.265  17.529 -0.3073  1.0687 -0.0761
 3044TIP3   OH233326   5.661   4.167  19.320  0.4667  0.1507 -0.2242
 3044TIP3    H133327   5.644   4.240  19.379 -0.8275 -1.0137  0.9303
 3044TIP3    H233328   5.746   4.133  19.348 -0.2035 -0.4963  1.1763
 3045TIP3   OH233329   3.328   0.576  19.036  0.3121  0.2683 -0.3108
 3045TIP3    H133330   3.415   0.566  19.077  0.4587  2.5165  0.0888
 3045TIP3    H233331   3.341   0.547  18.946  1.1573 -0.5608  0.0524
 3046TIP3   OH233332   5.891   6.214  18.642  0.1775 -0.3818  0.1936
 3046TIP3    H133333   5.960   6.206  18.576 -0.1231  1.2166 -0.3642
 3046TIP3    H233334   5.811   6.187  18.598  0.4141 -2.3595  0.8783
 3047TIP3   OH233335   4.096   1.781  18.472  0.1355  0.5063  0.0985
 3047TIP3    H133336   4.131   1.715  18.412  0.0880 -0.0129  0.6258
 3047TIP3    H233337   4.173   1.833  18.496  0.7642 -1.0989  1.8436
 3048TIP3   OH233338   6.211   5.436  17.285 -0.0442  0.2938 -0.3539
 3048TIP3    H133339   6.276   5.366  17.284 -1.7937 -1.4093  0.3800
 3048TIP3    H233340   6.131   5.395  17.317 -1.7820  2.0786 -2.1450
 3049TIP3   OH233341   6.492   3.296  18.666 -0.1177 -0.0165  0.4597
 3049TIP3    H133342   6.454   3.243  18.596 -0.1477  0.5936  0.0055
 3049TIP3    H233343   6.494   3.385  18.630  2.5927 -0.1343  0.0832
 3050TIP3   OH233344   6.067   2.593  19.508 -0.0092 -0.0424 -0.1059
 3050TIP3    H133345   6.040   2.505  19.482  2.0158 -0.3317 -1.4391
 3050TIP3    H233346   6.125   2.622  19.437  0.9096  1.5864  1.2497
 3051TIP3   OH233347   5.808   5.603  17.971  0.3138 -0.5629  0.0909
 3051TIP3    H133348   5.747   5.574  18.038  0.4587 -1.8239 -0.3072
 3051TIP3    H233349   5.859   5.525  17.949  1.6260  0.3098 -0.0528
 3052TIP3   OH233350   3.805   5.813  18.940  0.3628  0.2495  0.0661
 3052TIP3    H133351   3.805   5.883  19.005  0.0826  0.4606 -0.1557
 3052TIP3    H233352   3.874   5.837  18.879  0.5862  0.0822  0.2504
 3053TIP3   OH233353   2.094   6.427  17.848  0.8110  0.0230 -0.2581
 3053TIP3    H133354   2.139   6.394  17.770 -0.0360 -0.0741 -0.7183
 3053TIP3    H233355   2.145   6.394  17.922 -1.4324 -4.8630 -0.5066
 3054TIP3   OH233356   1.733   1.721  17.038 -0.1252 -0.7752 -0.0879
 3054TIP3    H133357   1.755   1.812  17.019  0.3286 -0.3814  2.0186
 3054TIP3    H233358   1.700   1.686  16.955 -0.3171  1.2894 -0.9444
 3055TIP3   OH233359   2.105   1.519  19.040  0.1647 -0.5072  0.1637
 3055TIP3    H133360   2.080   1.571  18.963 -1.9628 -3.1871 -1.1389
 3055TIP3    H233361   2.071   1.568  19.114  0.2655  1.0540 -0.7776
 3056TIP3   OH233362   2.046   0.180  17.168  0.7516  0.3715 -0.1711
 3056TIP3    H133363   1.997   0.214  17.243  0.3997  0.8236 -0.5900
 3056TIP3    H233364   2.094   0.105  17.202  0.2141  0.2723  0.3898
 3057TIP3   OH233365   4.745   4.356  19.461  0.4438 -0.6083  0.2074
 3057TIP3    H133366   4.653   4.347  19.433  0.7476 -2.7894 -0.2514
 3057TIP3    H233367   4.747   4.318  19.548  1.1210 -1.7298 -0.2765
 3058TIP3   OH233368   0.391   4.288  16.307 -0.1560 -0.1335 -0.3679
 3058TIP3    H133369   0.389   4.280  16.402  0.7985  2.4871 -0.0562
 3058TIP3    H233370   0.353   4.373  16.288  1.4061  0.2477 -2.1591
 3059TIP3   OH233371   0.608   4.653  18.348  0.6182 -0.1074  0.1217
 3059TIP3    H133372   0.565   4.673  18.432  1.6950 -0.8223  0.8619
 3059TIP3    H233373   0.701   4.646  18.370  0.6388 -3.2690 -0.5344
 3060TIP3   OH233374   4.901   0.681  16.142 -0.2892  0.0055  0.0331
 3060TIP3    H133375   4.935   0.685  16.052  0.3532 -0.2773  0.2577
 3060TIP3    H233376   4.823   0.626  16.135 -0.0684 -0.2714 -0.2994
 3061TIP3   OH233377   6.285   6.655  19.026 -0.5556 -0.1749 -1.1369
 3061TIP3    H133378   6.371   6.636  19.063  0.6732  0.9171 -3.2554
 3061TIP3    H233379   6.235   6.692  19.098 -0.5502 -4.0754  1.1434
 3062TIP3   OH233380   2.111   5.849  17.805  0.0959 -0.0637  0.1147
 3062TIP3    H133381   2.098   5.908  17.880 -1.2111 -0.2537  0.0604
 3062TIP3    H233382   2.108   5.907  17.729 -2.3594 -0.2699 -0.0232
 3063TIP3   OH233383   2.682   5.627  17.029 -0.3259 -0.4489  0.1550
 3063TIP3    H133384   2.729   5.683  16.967 -0.7271 -0.7112 -0.3904
 3063TIP3    H233385   2.701   5.666  17.115  0.9346 -0.5789 -0.0355
 3064TIP3   OH233386   2.123   2.953  17.000 -0.3569  0.0686 -0.6235
 3064TIP3    H133387   2.178   3.025  16.969 -0.3510 -0.5685 -2.1626
 3064TIP3    H233388   2.093   2.981  17.086  0.8378  1.2614 -0.5695
 3065TIP3   OH233389   1.993   5.285  16.764 -0.0667  0.4869 -0.2787
 3065TIP3    H133390   1.916   5.262  16.713  0.0686 -1.3846  0.3012
 3065TIP3    H233391   2.032   5.358  16.716 -1.3026  0.4091 -1.4634
 3066TIP3   OH233392   3.058   0.731  17.955  0.1949  0.4303 -0.2049
 3066TIP3    H133393   3.099   0.683  17.883 -1.3195  0.6183 -1.2376
 3066TIP3    H233394   3.092   0.820  17.947 -0.2513  0.5433 -0.9410
 3067TIP3   OH233395   5.208   4.652  17.278  0.0073 -0.5780  0.0931
 3067TIP3    H133396   5.235   4.560  17.271 -0.5439 -0.8177  0.9546
 3067TIP3    H233397   5.288   4.702  17.264  0.5359 -1.2271  0.7618
 3068TIP3   OH233398   2.058   0.485  16.686 -0.3539 -0.0873  0.2978
 3068TIP3    H133399   2.088   0.466  16.775 -0.1895  0.3256  0.3353
 3068TIP3    H233400   1.978   0.537  16.699  0.0719  0.6083  0.2195
 3069TIP3   OH233401   0.930   1.740  17.115  0.2614  0.8161 -0.0829
 3069TIP3    H133402   0.877   1.667  17.148  0.4247 -0.2897 -2.0532
 3069TIP3    H233403   0.875   1.780  17.047  1.2911  0.6638 -1.0304
 3070TIP3   OH233404   6.646   3.819  18.437  0.1658 -0.4782  0.0378
 3070TIP3    H133405   6.679   3.899  18.478 -1.5085 -0.9660  2.5552
 3070TIP3    H233406   6.716   3.755  18.450  0.2433 -0.2370  0.8366
 3071TIP3   OH233407   3.310   3.719  19.239 -0.2646 -0.4670 -0.3354
 3071TIP3    H133408   3.224   3.760  19.228 -0.2608  0.5255  2.5151
 3071TIP3    H233409   3.303   3.671  19.322  1.2730 -2.2650 -1.1636
 3072TIP3   OH233410   3.865   5.305  19.011 -0.2542 -0.2132  0.1241
 3072TIP3    H133411   3.782   5.296  19.058  0.8136  0.3107  2.2273
 3072TIP3    H233412   3.932   5.287  19.077  1.3256 -0.8858 -1.5775
 3073TIP3   OH233413   0.108   3.667  18.840 -0.3104 -0.4783 -0.0526
 3073TIP3    H133414   0.161   3.598  18.878  0.6093 -1.0000 -2.1359
 3073TIP3    H233415   0.085   3.724  18.914  0.7518 -1.7938  1.3469
 3074TIP3   OH233416   1.775   0.572  16.754 -0.1186 -0.3069 -0.4328
 3074TIP3    H133417   1.808   0.662  16.745 -1.3662  0.1421 -0.8036
 3074TIP3    H233418   1.728   0.556  16.671 -1.6331 -0.5388  0.4297
 3075TIP3   OH233419   6.483   5.022  17.799  0.1184 -0.1797 -0.5750
 3075TIP3    H133420   6.455   5.064  17.718  1.2462  1.5556 -0.1127
 3075TIP3    H233421   6.516   4.936  17.771  1.7239  0.8880 -2.1836
 3076TIP3   OH233422   3.602   0.673  16.508 -0.1836  0.1123  0.2574
 3076TIP3    H133423   3.580   0.596  16.456  0.6519 -0.7415  1.1328
 3076TIP3    H233424   3.563   0.746  16.459  0.6727 -0.6200 -1.6400
 3077TIP3   OH233425   4.582   6.646  17.240  0.2105 -0.1592  0.4935
 3077TIP3    H133426   4.607   6.554  17.248  0.4736  0.0559  2.9846
 3077TIP3    H233427   4.493   6.650  17.274 -0.3252  0.3401 -0.8766
 3078TIP3   OH233428   1.611   1.099  19.052  0.4241  0.8125  0.4654
 3078TIP3    H133429   1.607   1.158  19.127  0.2178  1.6601 -0.1967
 3078TIP3    H233430   1.650   1.019  19.087  0.1492  1.1171  1.5172
 3079TIP3   OH233431   1.731   1.761  16.718  0.4191 -0.3093  0.2538
 3079TIP3    H133432   1.743   1.672  16.750  2.3357  0.1406  0.9355
 3079TIP3    H233433   1.638   1.767  16.697  0.1406 -2.2774  0.7289
 3080TIP3   OH233434   3.973   6.335  18.998 -0.5185 -0.1728 -0.8373
 3080TIP3    H133435   4.024   6.255  19.009  2.3603  1.6894  0.6947
 3080TIP3    H233436   3.968   6.347  18.903  2.1449 -0.3956 -1.0872
 3081TIP3   OH233437   2.096   6.043  17.409  0.3455  0.0817  0.4169
 3081TIP3    H133438   2.043   6.061  17.331  0.6420 -0.1191  0.1630
 3081TIP3    H233439   2.033   6.037  17.481  0.2006  1.6568  0.4390
 3082TIP3   OH233440   1.936   0.163  18.352  0.3786 -0.6212  0.3989
 3082TIP3    H133441   1.848   0.199  18.361  0.0739 -1.7041  2.2234
 3082TIP3    H233442   1.994   0.239  18.357 -0.4124  0.0237 -0.0749
 3083TIP3   OH233443   2.198   6.357  16.156 -0.1903 -0.0841 -0.9785
 3083TIP3    H133444   2.175   6.450  16.155 -1.4198 -0.2839  1.4600
 3083TIP3    H233445   2.149   6.319  16.084 -2.2950  0.6614 -0.0113
 3084TIP3   OH233446   6.382   0.078  17.228  0.0431 -0.1380 -0.3329
 3084TIP3    H133447   6.414   0.024  17.301 -2.1756 -1.2415 -0.0879
 3084TIP3    H233448   6.374   0.166  17.265  0.1779 -0.4111  0.3685
 3085TIP3   OH233449   3.854   5.500  18.706  0.2107 -0.1500  0.4578
 3085TIP3    H133450   3.847   5.494  18.801 -0.4173  0.8423  0.4853
 3085TIP3    H233451   3.816   5.585  18.684  0.6700 -0.2111 -0.6483
 3086TIP3   OH233452   6.282   6.131  16.974  0.5935 -0.6408 -0.1731
 3086TIP3    H133453   6.202   6.089  17.006 -0.0912  0.6984 -0.0680
 3086TIP3    H233454   6.338   6.140  17.051  0.0617  0.1181  0.1341
 3087TIP3   OH233455   4.752   3.973  16.542 -0.1688  0.4838 -0.0528
 3087TIP3    H133456   4.793   3.914  16.479  1.6608  1.0076  0.5943
 3087TIP3    H233457   4.685   4.019  16.491 -0.3551 -0.7954 -1.0062
 3088TIP3   OH233458   4.679   5.330  16.948  0.1611  0.2852 -0.1395
 3088TIP3    H133459   4.611   5.269  16.920 -0.4615  1.2444 -0.7749
 3088TIP3    H233460   4.755   5.308  16.894 -0.1897  0.3333 -0.6594
 3089TIP3   OH233461   0.346   5.579  17.721  0.0224 -0.5503  0.1150
 3089TIP3    H133462   0.423   5.523  17.710 -0.4462 -1.0741 -0.5939
 3089TIP3    H233463   0.274   5.518  17.734 -0.6106 -0.1713 -1.3487
 3090TIP3   OH233464   5.379   5.553  18.700 -0.1711  0.3984 -0.0467
 3090TIP3    H133465   5.424   5.614  18.758 -0.1428  0.4095 -0.0809
 3090TIP3    H233466   5.344   5.486  18.758 -2.0247  1.5551  0.2418
 3091TIP3   OH233467   4.613   3.198  18.217  0.1633 -0.0637 -0.4963
 3091TIP3    H133468   4.570   3.163  18.295  0.1136  1.1132  0.0336
 3091TIP3    H233469   4.541   3.223  18.159  0.2053 -1.4496 -1.1803
 3092TIP3   OH233470   1.836   0.816  16.682 -0.2076 -0.6383 -0.4165
 3092TIP3    H133471   1.790   0.866  16.615  1.7805  2.3917  0.2297
 3092TIP3    H233472   1.926   0.851  16.680  0.4869 -1.9522  2.3244
 3093TIP3   OH233473   1.908   6.264  17.974  0.3997  0.0645  0.3002
 3093TIP3    H133474   1.963   6.186  17.967  1.3280  0.5499  1.8203
 3093TIP3    H233475   1.960   6.333  17.933  0.8394  0.4710  1.5190
 3094TIP3   OH233476   1.732   0.374  16.149  0.2399 -0.1238 -0.1116
 3094TIP3    H133477   1.819   0.360  16.186 -0.0873 -0.6680  0.4783
 3094TIP3    H233478   1.745   0.369  16.055  0.3533 -3.6785 -0.0419
 3095TIP3   OH233479   6.418   3.997  18.399 -0.1977  0.0810  0.1712
 3095TIP3    H133480   6.502   3.952  18.410 -1.0576 -1.2836  1.5878
 3095TIP3    H233481   6.379   3.957  18.322  0.8864  1.5297 -1.2070
 3096TIP3   OH233482   2.911   4.743  19.201  0.3787  0.4860  0.1207
 3096TIP3    H133483   2.927   4.699  19.284 -0.9144  3.0801  1.8775
 3096TIP3    H233484   2.823   4.715  19.175 -0.7877  2.4812  1.6637
 3097TIP3   OH233485   0.058   0.912  17.867 -0.3924 -0.1685  0.4330
 3097TIP3    H133486  -0.028   0.924  17.906 -1.0347 -0.2835 -0.8899
 3097TIP3    H233487   0.111   0.872  17.936 -2.1910 -2.7896  0.4057
 3098TIP3   OH233488   4.217   2.535  16.856  0.1878 -0.8764  0.0105
 3098TIP3    H133489   4.214   2.601  16.925 -0.1081 -0.1597 -0.6667
 3098TIP3    H233490   4.202   2.584  16.775 -0.5124 -1.8321 -0.4717
 3099TIP3   OH233491   1.734   0.523  18.320 -0.5084 -0.6480  0.6378
 3099TIP3    H133492   1.694   0.504  18.405 -1.2965  0.5772  0.5703
 3099TIP3    H233493   1.669   0.493  18.256 -0.3055 -0.7589  0.4821
 3100TIP3   OH233494   5.237   6.320  16.642 -0.2904  0.3420  1.0194
 3100TIP3    H133495   5.301   6.351  16.578 -1.4234  0.6516  0.0021
 3100TIP3    H233496   5.276   6.241  16.679  0.6541  0.4990  0.3777
 3101TIP3   OH233497   4.688   5.921  15.913  0.2772 -0.1016 -0.3013
 3101TIP3    H133498   4.735   6.002  15.935  0.7306 -0.5333  0.3760
 3101TIP3    H233499   4.728   5.891  15.832 -0.2058  0.5916 -0.8061
 3102TIP3   OH233500   6.434   1.656  18.716  0.1769  0.0392 -0.2646
 3102TIP3    H133501   6.409   1.575  18.762 -0.3146 -0.5583 -1.5288
 3102TIP3    H233502   6.481   1.707  18.781  0.0045 -1.0299  0.7306
 3103TIP3   OH233503   6.501   5.618  18.694 -0.2784 -0.0633  0.1724
 3103TIP3    H133504   6.586   5.594  18.731 -0.2839  0.9777  0.9016
 3103TIP3    H233505   6.445   5.633  18.770  0.0521  3.3566 -0.1105
 3104TIP3   OH233506   1.679   3.991  17.238 -0.4325 -0.4520  0.4458
 3104TIP3    H133507   1.707   3.976  17.328 -1.8049 -0.2408  0.9262
 3104TIP3    H233508   1.718   3.919  17.189  0.2876 -0.5980  1.2018
 3105TIP3   OH233509   1.081   1.875  16.452 -0.2258  0.0096  0.0634
 3105TIP3    H133510   1.176   1.862  16.454 -0.3388 -0.8356  0.2030
 3105TIP3    H233511   1.069   1.965  16.481  0.5596  0.2603 -0.3502
 3106TIP3   OH233512   3.638   6.584  18.748  0.0942 -0.2886  0.4163
 3106TIP3    H133513   3.693   6.663  18.742 -0.7335  0.2319 -0.9397
 3106TIP3    H233514   3.680   6.530  18.815  1.6962  0.5218  0.1195
 3107TIP3   OH233515   0.094   6.574  18.982 -0.0858 -0.0299 -0.5346
 3107TIP3    H133516   0.051   6.619  19.054  0.0544 -0.8162  0.0554
 3107TIP3    H233517   0.024   6.525  18.939 -0.1377  0.2983 -0.8291
 3108TIP3   OH233518   0.428   2.511  17.338 -0.2177 -0.3464  0.0248
 3108TIP3    H133519   0.349   2.463  17.367 -0.8230  0.3146 -0.4999
 3108TIP3    H233520   0.486   2.508  17.414 -0.6622 -1.0296  0.3536
 3109TIP3   OH233521   3.581   5.885  16.069 -0.4661 -0.6488  0.1382
 3109TIP3    H133522   3.534   5.857  16.147 -0.9108 -1.3513 -0.3645
 3109TIP3    H233523   3.530   5.850  15.996  0.3351 -0.6459 -0.4459
 3110TIP3   OH233524   5.790   6.083  17.802  0.0352 -0.4643  0.4959
 3110TIP3    H133525   5.798   6.178  17.802 -2.9296 -0.1114  0.4931
 3110TIP3    H233526   5.829   6.055  17.719  0.1016  0.8638  0.0564
 3111TIP3   OH233527   3.223   5.320  17.339 -0.0921 -0.2871 -0.1046
 3111TIP3    H133528   3.187   5.406  17.362 -2.3602 -1.5748  1.5572
 3111TIP3    H233529   3.284   5.299  17.409 -1.8457 -1.2809  1.1824
 3112TIP3   OH233530   1.644   4.381  17.452 -0.5028 -0.0313  0.2009
 3112TIP3    H133531   1.683   4.297  17.477  0.7050  0.5197  0.2601
 3112TIP3    H233532   1.619   4.421  17.535  0.3703  0.3293  0.3028
 3113TIP3   OH233533   1.273   3.461  17.130 -0.4912  0.4436 -0.1616
 3113TIP3    H133534   1.254   3.401  17.058 -1.9131  0.7526 -0.0728
 3113TIP3    H233535   1.278   3.548  17.089  0.5555  0.3979 -0.1451
 3114TIP3   OH233536   0.883   2.337  19.118  0.2104 -0.1130  0.1068
 3114TIP3    H133537   0.798   2.296  19.106 -0.8654  2.0847 -0.1370
 3114TIP3    H233538   0.870   2.400  19.188  1.8000 -0.1017  0.4316
 3115TIP3   OH233539   0.202   1.731  18.069  0.0706 -0.2090  0.3652
 3115TIP3    H133540   0.136   1.698  18.008  2.0591 -0.2350 -1.8917
 3115TIP3    H233541   0.261   1.783  18.015  1.3108  0.7198  2.4940
 3116TIP3   OH233542   2.147   1.098  19.549 -0.5081 -0.2076  0.2033
 3116TIP3    H133543   2.207   1.115  19.476 -0.1499  0.4035  0.6335
 3116TIP3    H233544   2.147   1.003  19.558  2.2601 -0.1624  1.7067
 3117TIP3   OH233545   3.778   2.056  17.883  0.3928  0.2350 -0.4388
 3117TIP3    H133546   3.690   2.092  17.871  0.3119  0.5670  0.9860
 3117TIP3    H233547   3.816   2.107  17.954  1.2412 -0.7884 -0.1253
 3118TIP3   OH233548   1.495   4.381  15.632 -0.0614  0.1159  0.1774
 3118TIP3    H133549   1.531   4.429  15.706  0.3235 -0.5721  0.4459
 3118TIP3    H233550   1.442   4.312  15.672  0.3165 -0.3884 -0.1723
 3119TIP3   OH233551   2.025   0.766  19.389 -0.5853 -0.2900 -0.2733
 3119TIP3    H133552   1.960   0.713  19.343 -0.1966  0.0463 -1.2539
 3119TIP3    H233553   2.040   0.841  19.331  1.0131 -0.5987 -0.3187
 3120TIP3   OH233554   4.494   6.569  19.211  0.3528 -0.1112  0.7223
 3120TIP3    H133555   4.541   6.502  19.261  0.1136  0.3079  1.5162
 3120TIP3    H233556   4.401   6.546  19.221  0.2457  0.5994  1.3743
 3121TIP3   OH233557   0.257   4.832  17.344 -0.1197 -0.3205 -0.3293
 3121TIP3    H133558   0.320   4.811  17.274 -2.3124 -1.2038 -2.1784
 3121TIP3    H233559   0.308   4.824  17.425  2.5705  0.8127 -1.7555
 3122TIP3   OH233560   4.305   3.508  18.077  0.0035  0.0323 -0.4005
 3122TIP3    H133561   4.313   3.412  18.078 -0.5131 -0.0159  1.0988
 3122TIP3    H233562   4.211   3.524  18.077  0.0890  0.5406 -0.5183
 3123TIP3   OH233563   0.210   5.058  18.017  0.2719  0.6206 -0.2199
 3123TIP3    H133564   0.172   4.971  18.030  0.8409  0.7264  3.0677
 3123TIP3    H233565   0.256   5.053  17.933  1.1621 -2.5797  0.3478
 3124TIP3   OH233566   0.435   4.282  17.048 -0.5313  1.0810  0.4010
 3124TIP3    H133567   0.375   4.348  17.013 -0.3689  1.0252  0.0173
 3124TIP3    H233568   0.518   4.328  17.058  0.1363  0.4469 -1.7639
 3125TIP3   OH233569   5.532   0.341  18.365 -0.0938 -0.4194 -0.1637
 3125TIP3    H133570   5.524   0.283  18.441  0.6774 -0.8518 -0.3989
 3125TIP3    H233571   5.564   0.424  18.401  1.7550 -1.0820 -0.1639
 3126TIP3   OH233572   1.094   4.934  16.256  0.0226  0.3021  0.0818
 3126TIP3    H133573   1.166   4.973  16.207  0.4963  0.5812  0.9680
 3126TIP3    H233574   1.064   4.862  16.201 -0.0477  1.1330 -1.0134
 3127TIP3   OH233575   4.346   4.552  17.320  0.0598 -0.5193 -0.2756
 3127TIP3    H133576   4.272   4.612  17.313  0.1299 -0.3684  0.2208
 3127TIP3    H233577   4.422   4.608  17.329  0.2713 -0.6709 -1.0295
 3128TIP3   OH233578   2.172   1.728  18.475  0.2047  0.7044 -0.2664
 3128TIP3    H133579   2.177   1.694  18.386  1.1463  0.4944 -0.1427
 3128TIP3    H233580   2.086   1.770  18.479 -0.4961 -0.5901 -0.7999
 3129TIP3   OH233581   2.068   4.600  18.561  0.3445  0.2097  0.2715
 3129TIP3    H133582   2.150   4.646  18.547  0.1663  0.1624 -1.0646
 3129TIP3    H233583   2.005   4.645  18.505  0.3059 -1.9922 -1.6161
 3130TIP3   OH233584   5.433   1.445  18.528  0.5697  0.4703  0.1050
 3130TIP3    H133585   5.474   1.511  18.472  1.3683  0.2396  0.4137
 3130TIP3    H233586   5.427   1.367  18.472  0.7974  0.4267  0.1398
 3131TIP3   OH233587   0.908   2.759  18.097  0.4455 -0.5397  0.0609
 3131TIP3    H133588   0.891   2.664  18.099  0.4037 -0.5443 -0.3405
 3131TIP3    H233589   0.905   2.781  18.004 -1.6350  0.2403  0.2540
 3132TIP3   OH233590   4.722   1.654  17.174 -0.1470 -0.3159  0.3940
 3132TIP3    H133591   4.696   1.735  17.216 -0.2667 -0.1978  0.0981
 3132TIP3    H233592   4.688   1.585  17.231  0.2076 -0.1601  0.7978
 3133TIP3   OH233593   1.670   4.738  16.051 -0.1349  0.1353  0.1739
 3133TIP3    H133594   1.608   4.678  16.008 -0.3637  1.0721 -0.8519
 3133TIP3    H233595   1.624   4.768  16.129 -0.5114 -0.0690  0.0328
 3134TIP3   OH233596   2.243   4.348  17.428  0.3896  0.2971  0.0803
 3134TIP3    H133597   2.164   4.295  17.425  0.3117  0.2427  1.8247
 3134TIP3    H233598   2.212   4.436  17.449  0.5975  0.8755 -1.8758
 3135TIP3   OH233599   5.546   3.674  18.479 -0.9741  0.3388  0.0011
 3135TIP3    H133600   5.521   3.628  18.560  0.4704 -2.1665 -0.8527
 3135TIP3    H233601   5.472   3.662  18.420 -0.4154 -1.4662 -0.3869
 3136TIP3   OH233602   0.763   5.209  18.981  0.3900  0.3644  0.0639
 3136TIP3    H133603   0.739   5.302  18.981  0.4349  0.3792  1.2274
 3136TIP3    H233604   0.684   5.165  18.950  0.4567  0.7957 -0.7695
 3137TIP3   OH233605   1.327   0.902  15.952 -0.1829  0.3472  0.4657
 3137TIP3    H133606   1.361   0.959  16.020 -1.4321  1.3771  0.2712
 3137TIP3    H233607   1.403   0.853  15.921  0.5051  0.2633  2.1940
 3138TIP3   OH233608   5.974   1.518  17.939  0.7562  0.0580  0.5648
 3138TIP3    H133609   5.913   1.462  17.988  0.6737 -0.0930  0.2946
 3138TIP3    H233610   5.918   1.585  17.899  0.7218 -0.2830  0.0368
 3139TIP3   OH233611   2.189   6.499  17.267  0.5160 -0.6393 -0.0914
 3139TIP3    H133612   2.152   6.452  17.341 -1.7481  1.4409  0.2040
 3139TIP3    H233613   2.215   6.584  17.303 -0.0693  0.1828 -1.5433
 3140TIP3   OH233614   2.238   2.327  19.028 -0.0925 -0.3058  0.5131
 3140TIP3    H133615   2.176   2.400  19.031  0.7640  0.4367  0.5868
 3140TIP3    H233616   2.188   2.252  19.061 -1.9451 -0.5010 -2.3731
 3141TIP3   OH233617   1.017   3.292  18.565  0.0971 -0.6982  0.1461
 3141TIP3    H133618   1.023   3.316  18.473 -0.3698 -0.0348  0.2812
 3141TIP3    H233619   1.070   3.213  18.573  1.7020  0.2855 -0.3066
 3142TIP3   OH233620   1.887   1.310  19.283  0.2181 -0.2017  0.1338
 3142TIP3    H133621   1.856   1.308  19.374 -1.5831  0.2044 -0.4437
 3142TIP3    H233622   1.978   1.340  19.290  0.5484 -1.4155  1.8849
 3143TIP3   OH233623   2.275   2.625  18.046  0.5200 -0.3680  0.0050
 3143TIP3    H133624   2.350   2.574  18.016  0.4972 -0.2221 -0.2948
 3143TIP3    H233625   2.204   2.602  17.986  0.6976  0.5628 -0.5769
 3144TIP3   OH233626   0.343   4.661  18.210  0.2680  0.0059 -0.4579
 3144TIP3    H133627   0.304   4.576  18.188 -0.0896  0.2389 -0.7440
 3144TIP3    H233628   0.397   4.644  18.287  1.3079 -0.7690 -1.3453
 3145TIP3   OH233629   1.807   0.889  17.279  0.3407  0.3056  0.3753
 3145TIP3    H133630   1.808   0.845  17.193  0.2014  1.1672 -0.0746
 3145TIP3    H233631   1.857   0.969  17.265 -1.5432  1.5627  0.4874
 3146TIP3   OH233632   1.850   2.363  19.259 -0.2787  0.5144  0.0387
 3146TIP3    H133633   1.901   2.368  19.178 -2.4981 -0.2378 -1.5003
 3146TIP3    H233634   1.848   2.269  19.279  0.6118  0.7351  1.2550
 3147TIP3   OH233635   6.610   1.165  17.204 -0.3090  0.0364  0.1187
 3147TIP3    H133636   6.664   1.103  17.157  1.4613  1.5786  0.0279
 3147TIP3    H233637   6.567   1.113  17.272  0.7764 -1.3460 -0.2253
 3148TIP3   OH233638   1.719   2.059  18.761  0.0604 -0.2048  0.2333
 3148TIP3    H133639   1.802   2.104  18.777 -1.5423  3.0845  0.1427
 3148TIP3    H233640   1.659   2.093  18.828 -1.7181 -1.0070 -0.8505
 3149TIP3   OH233641   5.439   2.016  18.946  0.7388 -0.3456 -0.2272
 3149TIP3    H133642   5.529   2.018  18.980  0.5469 -0.6094  0.3061
 3149TIP3    H233643   5.431   2.097  18.895  0.5580  0.8681  1.6089
 3150TIP3   OH233644   6.547   4.785  17.656 -0.2915  0.4352 -0.1283
 3150TIP3    H133645   6.466   4.798  17.607  0.8570  2.2504 -1.6883
 3150TIP3    H233646   6.583   4.703  17.622  0.2096  1.3883 -2.0034
 3151TIP3   OH233647   6.250   2.998  18.079  0.1555 -0.4845 -0.2510
 3151TIP3    H133648   6.314   2.961  18.140  0.9123  1.8987  0.4850
 3151TIP3    H233649   6.240   2.931  18.011  2.4637 -1.4544  0.2911
 3152TIP3   OH233650   5.226   2.103  17.671  0.3169 -0.1876 -0.3070
 3152TIP3    H133651   5.290   2.034  17.653 -0.6477 -1.5902  1.2370
 3152TIP3    H233652   5.142   2.057  17.672 -0.4228  1.1303  0.1616
 3153TIP3   OH233653   3.450   6.678  19.071  0.0026  0.5082  0.1171
 3153TIP3    H133654   3.368   6.636  19.095 -0.5453  0.2091 -2.0682
 3153TIP3    H233655   3.428   6.736  18.998  1.7156  0.4103 -0.5384
 3154TIP3   OH233656   6.627   2.161  17.625  0.0030  0.6801 -0.3891
 3154TIP3    H133657   6.717   2.159  17.656  0.1224  0.1876 -0.7645
 3154TIP3    H233658   6.588   2.237  17.669  0.4023  0.4845  0.3105
 3155TIP3   OH233659   3.867   0.602  16.622  0.1830  0.3656  0.2484
 3155TIP3    H133660   3.787   0.639  16.585 -0.1461  1.4697  1.9442
 3155TIP3    H233661   3.898   0.540  16.556 -0.9298  1.4418 -1.3628
 3156TIP3   OH233662   6.163   1.133  17.514 -0.1765 -0.4345  0.0745
 3156TIP3    H133663   6.251   1.109  17.542 -0.4496 -0.2466  1.1372
 3156TIP3    H233664   6.105   1.084  17.573 -0.7733 -0.1683 -0.2840
 3157TIP3   OH233665   2.607   5.941  19.206 -1.1361  0.2275 -0.3341
 3157TIP3    H133666   2.540   5.930  19.274  0.9031  0.6186  1.8873
 3157TIP3    H233667   2.627   5.852  19.178 -1.9985  0.0540 -0.4359
 3158TIP3   OH233668   1.228   4.627  16.274 -0.5678  0.1965  0.4467
 3158TIP3    H133669   1.313   4.610  16.315  0.3541  2.1738 -0.5145
 3158TIP3    H233670   1.175   4.665  16.343 -0.6978 -1.0352  1.0521
 3159TIP3   OH233671   2.627   0.033  16.868  0.2320 -0.3193  0.3554
 3159TIP3    H133672   2.688  -0.040  16.873  1.3791  0.6004  0.1632
 3159TIP3    H233673   2.638   0.080  16.950  2.4682  1.8669 -1.0449
 3160TIP3   OH233674   0.267   3.740  16.519  0.1608  0.4172 -0.0537
 3160TIP3    H133675   0.177   3.754  16.489 -0.2042  0.0014  0.8159
 3160TIP3    H233676   0.316   3.816  16.486 -0.5590  0.7671 -0.3258
 3161TIP3   OH233677   4.491   2.873  17.564 -0.5359  0.3730 -0.1528
 3161TIP3    H133678   4.515   2.799  17.619  1.8661  0.2522 -1.2666
 3161TIP3    H233679   4.567   2.930  17.565 -1.2487  1.4205 -1.6423
 3162TIP3   OH233680   2.336   5.378  18.329 -0.3111  0.6218  0.1126
 3162TIP3    H133681   2.431   5.372  18.317 -0.4606  0.4685 -1.1972
 3162TIP3    H233682   2.300   5.321  18.260 -1.3535  0.8578  0.4432
 3163TIP3   OH233683   6.720   5.214  18.685  1.0467  0.1611 -0.1432
 3163TIP3    H133684   6.812   5.228  18.664  0.4788  1.0121 -2.2798
 3163TIP3    H233685   6.704   5.122  18.662  1.5600 -0.2842  1.1771
 3164TIP3   OH233686   0.991   0.494  17.624 -0.7229 -0.8286 -0.1053
 3164TIP3    H133687   1.050   0.531  17.689 -0.3058 -1.1600 -0.2918
 3164TIP3    H233688   1.000   0.399  17.634 -1.8009 -0.8930  0.3851
 3165TIP3   OH233689   2.649   6.336  19.118 -0.4390 -0.0383  0.2463
 3165TIP3    H133690   2.622   6.335  19.026 -0.5528  0.7873  0.2598
 3165TIP3    H233691   2.700   6.256  19.129 -3.5271 -2.1596  0.4224
 3166TIP3   OH233692   3.279   1.636  18.272  0.0602  0.2114  0.3692
 3166TIP3    H133693   3.193   1.676  18.281  0.3652  0.8305  0.5818
 3166TIP3    H233694   3.283   1.608  18.180 -0.3176  0.2894  0.3284
 3167TIP3   OH233695   2.423   0.276  17.124 -0.0249  0.2292  0.8114
 3167TIP3    H133696   2.449   0.359  17.086  0.1843 -0.7467 -1.3467
 3167TIP3    H233697   2.342   0.295  17.171 -0.0719  1.5945  0.2149
 3168TIP3   OH233698   0.228   4.202  15.721 -0.1162 -0.2453  0.2440
 3168TIP3    H133699   0.178   4.159  15.651  1.7274 -0.6156 -0.8974
 3168TIP3    H233700   0.189   4.289  15.728  0.2840  0.1795 -1.9901
 3169TIP3   OH233701   5.296   4.988  18.275  0.3499 -0.5377  0.4866
 3169TIP3    H133702   5.312   4.898  18.246  0.4771  0.0650 -1.4619
 3169TIP3    H233703   5.213   5.012  18.234  0.1032  0.1157  1.3335
 3170TIP3   OH233704   0.714   6.375  16.410  0.3528 -0.2981 -0.4072
 3170TIP3    H133705   0.759   6.415  16.336  1.9580  0.1973  0.7629
 3170TIP3    H233706   0.625   6.410  16.407  0.5122  0.0458 -1.8191
 3171TIP3   OH233707   5.534   5.462  17.480 -0.4056  0.1210  0.1701
 3171TIP3    H133708   5.484   5.528  17.432  0.8374  0.8597 -0.1502
 3171TIP3    H233709   5.472   5.430  17.546 -1.9926 -0.5884 -1.5721
 3172TIP3   OH233710   3.308   5.680  18.409 -0.2293 -0.4235  0.2010
 3172TIP3    H133711   3.283   5.706  18.498 -0.8500 -0.2415 -0.0209
 3172TIP3    H233712   3.228   5.646  18.370 -0.0522 -0.1645 -0.4107
 3173TIP3   OH233713   4.003   3.490  19.220  0.2421 -0.4622 -0.2981
 3173TIP3    H133714   4.064   3.453  19.157 -1.2171 -0.4017 -1.8083
 3173TIP3    H233715   3.955   3.557  19.171 -1.1149 -0.5845  0.8059
 3174TIP3   OH233716   1.995   3.458  17.507 -0.6671 -0.4194  0.1379
 3174TIP3    H133717   1.940   3.385  17.477 -0.0854 -0.7997 -0.0029
 3174TIP3    H233718   2.084   3.424  17.504 -0.0039  1.2460 -2.8844
 3175TIP3   OH233719   3.013   5.397  17.649  0.4340 -0.1085  0.0840
 3175TIP3    H133720   3.039   5.305  17.653  0.8236  0.0169  0.4838
 3175TIP3    H233721   2.939   5.398  17.588  1.4961 -0.4238 -1.2336
 3176TIP3   OH233722   0.858   5.707  17.499 -0.2069 -0.4006 -0.5743
 3176TIP3    H133723   0.771   5.727  17.463 -0.8613 -0.4168  0.9217
 3176TIP3    H233724   0.919   5.750  17.439 -1.2303 -0.5689 -1.7763
 3177TIP3   OH233725   0.684   3.749  19.548 -0.2981  0.2464  0.4644
 3177TIP3    H133726   0.626   3.707  19.484  0.2870  0.4002 -0.1722
 3177TIP3    H233727   0.649   3.838  19.556 -0.1191  0.3600  0.0321
 3178TIP3   OH233728   4.619   0.808  16.438  0.3343  0.1065 -0.1737
 3178TIP3    H133729   4.635   0.844  16.351  2.3942 -0.1844  0.0357
 3178TIP3    H233730   4.666   0.867  16.497 -0.2076 -0.2633  0.6387
 3179TIP3   OH233731   0.016   4.616  16.513 -0.2977  0.0425  0.1796
 3179TIP3    H133732  -0.040   4.549  16.550 -0.3981  0.2964  0.4872
 3179TIP3    H233733   0.044   4.669  16.588 -0.8996  0.8593 -0.1624
 3180TIP3   OH233734   5.078   2.387  19.289 -0.0723 -0.0055 -0.8707
 3180TIP3    H133735   5.022   2.464  19.296 -1.0467 -0.6123 -1.7104
 3180TIP3    H233736   5.119   2.394  19.203  0.5780  0.0546 -0.5630
 3181TIP3   OH233737   4.840   2.977  17.148 -0.5246 -0.1843 -0.3765
 3181TIP3    H133738   4.789   2.910  17.194 -1.1904 -1.0172 -2.2478
 3181TIP3    H233739   4.931   2.952  17.163 -0.6088  0.7150  2.1091
 3182TIP3   OH233740   1.817   3.242  16.901  0.1176  0.7237 -0.2520
 3182TIP3    H133741   1.895   3.225  16.849 -0.1649  0.9338 -0.7538
 3182TIP3    H233742   1.748   3.192  16.858 -0.4752  2.1699 -1.0766
 3183TIP3   OH233743   1.682   5.364  15.978  0.0721  0.6100 -0.9146
 3183TIP3    H133744   1.644   5.400  15.897 -1.0505  0.9439 -0.2540
 3183TIP3    H233745   1.678   5.269  15.966  0.0650  0.6552 -1.3105
 3184TIP3   OH233746   5.596   3.529  16.933 -0.7876  0.4935 -0.0682
 3184TIP3    H133747   5.636   3.574  16.858  0.0965 -0.7244 -0.3615
 3184TIP3    H233748   5.585   3.597  16.999  2.5369  0.8374  0.3410
 3185TIP3   OH233749   2.411   0.814  17.179  0.1219 -0.4827  0.3314
 3185TIP3    H133750   2.458   0.774  17.106 -0.4131  0.8278 -0.7927
 3185TIP3    H233751   2.379   0.897  17.143 -1.5342 -0.5402  1.5823
 3186TIP3   OH233752   1.337   5.664  17.731  0.0909 -0.4239  0.1187
 3186TIP3    H133753   1.291   5.682  17.649 -1.6018  0.1698  1.1585
 3186TIP3    H233754   1.306   5.577  17.758  0.7055 -0.6550  0.1095
 3187TIP3   OH233755   4.306   5.349  16.445 -0.2115 -0.0351  0.3479
 3187TIP3    H133756   4.261   5.341  16.361 -0.7969  6.0894 -0.3579
 3187TIP3    H233757   4.397   5.366  16.421  0.0805 -0.4350  1.1429
 3188TIP3   OH233758   2.949   1.489  18.668  0.8555 -0.5054  0.1664
 3188TIP3    H133759   2.870   1.472  18.720  0.7252 -0.0919  0.1066
 3188TIP3    H233760   2.978   1.402  18.640  0.0990 -0.6211 -0.2902
 3189TIP3   OH233761   1.240   4.507  18.328  0.2335  0.0764 -0.7022
 3189TIP3    H133762   1.208   4.598  18.329  0.0707  0.0161  0.3572
 3189TIP3    H233763   1.335   4.516  18.321  0.3172  0.3766  0.5623
 3190TIP3   OH233764   0.898   4.136  17.143  0.5386 -0.2090  0.2158
 3190TIP3    H133765   0.819   4.106  17.187 -0.5151  2.7351  0.5605
 3190TIP3    H233766   0.970   4.107  17.199 -0.4236 -1.1013  1.0144
 3191TIP3   OH233767   4.838   5.696  18.091 -0.5202 -0.2745 -0.7841
 3191TIP3    H133768   4.754   5.698  18.046 -1.7191 -1.2774  1.2424
 3191TIP3    H233769   4.826   5.754  18.167 -0.3567 -2.3917  0.9659
 3192TIP3   OH233770   3.984   6.512  17.606  0.5610 -0.2587 -1.2162
 3192TIP3    H133771   3.923   6.586  17.603 -0.1266 -0.7638 -0.2671
 3192TIP3    H233772   4.055   6.542  17.663  0.2697 -0.3377 -0.8104
 3193TIP3   OH233773   0.212   6.722  17.097  0.1417 -0.3526 -0.0423
 3193TIP3    H133774   0.198   6.649  17.158 -1.0382 -0.4872 -0.4597
 3193TIP3    H233775   0.218   6.681  17.011 -1.1881  0.0696 -0.3612
 3194TIP3   OH233776   0.793   1.257  18.593 -0.6749 -0.0099  0.2375
 3194TIP3    H133777   0.856   1.291  18.530 -1.2330  0.1430 -0.2538
 3194TIP3    H233778   0.725   1.215  18.539 -0.7247 -0.6422  0.7749
 3195TIP3   OH233779   1.930   1.885  18.484 -0.7599 -0.0561  0.1828
 3195TIP3    H133780   1.897   1.887  18.574  0.2268  1.7326  0.5534
 3195TIP3    H233781   1.852   1.877  18.430 -1.4390 -0.2805  1.1665
 3196TIP3   OH233782   1.581   2.202  16.569 -0.3368  0.0451 -0.3134
 3196TIP3    H133783   1.643   2.169  16.633 -0.1153  0.4762 -0.2968
 3196TIP3    H233784   1.495   2.195  16.611 -0.2407 -0.0814 -0.1415
 3197TIP3   OH233785   1.990   1.784  16.848 -0.6043 -0.2614  0.6309
 3197TIP3    H133786   2.030   1.859  16.893 -0.0530  0.5156 -1.0649
 3197TIP3    H233787   1.897   1.806  16.842 -0.3244  0.7276 -0.5812
 3198TIP3   OH233788   4.475   6.562  16.360 -0.1070 -0.0114 -0.0326
 3198TIP3    H133789   4.496   6.632  16.298  1.1900 -2.1691 -2.2153
 3198TIP3    H233790   4.560   6.534  16.393 -0.4736 -1.4724 -0.2864
 3199TIP3   OH233791   1.318   1.111  18.465 -0.0496  0.2057  0.4270
 3199TIP3    H133792   1.387   1.144  18.407  0.4469  0.9863  1.4206
 3199TIP3    H233793   1.348   1.023  18.489 -0.5182 -0.3234 -0.8883
 3200TIP3   OH233794   4.731   6.564  16.658  0.6412 -0.2076 -0.0647
 3200TIP3    H133795   4.754   6.531  16.571  0.6298  0.7808 -0.4528
 3200TIP3    H233796   4.648   6.520  16.678 -0.1662  0.6885 -1.2376
 3201TIP3   OH233797   2.129   3.208  17.678 -0.1465  0.2660 -0.2575
 3201TIP3    H133798   2.192   3.143  17.707  1.1067  0.2936 -2.6053
 3201TIP3    H233799   2.090   3.243  17.758  1.7853 -0.7864  1.2084
 3202TIP3   OH233800   3.377   3.096  17.467  0.3013  0.6786 -0.2079
 3202TIP3    H133801   3.400   3.152  17.541 -0.0434  0.0847  0.3635
 3202TIP3    H233802   3.395   3.149  17.390  2.5547  0.6113  0.2212
 3203TIP3   OH233803   4.161   2.769  16.732  0.3882 -0.1811 -0.4712
 3203TIP3    H133804   4.086   2.816  16.766  0.1059 -1.4625  0.8014
 3203TIP3    H233805   4.205   2.831  16.674 -1.4259  0.7137 -0.9557
 3204TIP3   OH233806   0.572   0.625  19.255  0.2054 -0.7995  0.5735
 3204TIP3    H133807   0.497   0.593  19.305 -0.3141 -2.3347 -1.0770
 3204TIP3    H233808   0.645   0.570  19.282 -0.0874 -1.6654 -0.3145
 3205TIP3   OH233809   5.095   6.634  16.574 -0.9622  0.5091  0.4933
 3205TIP3    H133810   5.144   6.612  16.653  1.5371 -0.6427 -1.2462
 3205TIP3    H233811   5.015   6.582  16.579  0.8530 -2.4409  0.5920
 3206TIP3   OH233812   0.957   1.506  16.288 -0.0948  0.0672  0.6410
 3206TIP3    H133813   0.924   1.512  16.198 -0.5136 -2.5361  0.5448
 3206TIP3    H233814   0.894   1.556  16.340 -2.4382 -2.0542  0.0051
 3207TIP3   OH233815   4.276   0.058  18.474 -0.1397  0.2959 -0.0178
 3207TIP3    H133816   4.365   0.031  18.451  0.9540  2.4981  1.2573
 3207TIP3    H233817   4.257   0.013  18.556 -0.6387 -0.9475 -0.7909
 3208TIP3   OH233818   5.801   1.879  19.320  0.0520  0.2528  0.7707
 3208TIP3    H133819   5.771   1.796  19.284 -1.1318  0.6440  0.8247
 3208TIP3    H233820   5.889   1.861  19.352 -0.0227 -0.8591  0.3778
 3209TIP3   OH233821   2.418   6.353  17.308 -0.0475 -0.1204  0.7209
 3209TIP3    H133822   2.450   6.310  17.228  0.8765  0.5521  0.7127
 3209TIP3    H233823   2.388   6.439  17.278 -1.1653 -0.4428  0.8632
 3210TIP3   OH233824   1.109   0.942  16.581 -0.1474 -0.9071 -0.0760
 3210TIP3    H133825   1.123   0.993  16.661 -1.0369  1.2681 -1.2097
 3210TIP3    H233826   1.193   0.898  16.566  0.4282 -0.3785  1.3691
 3211TIP3   OH233827   5.997   1.835  18.724 -0.0330 -0.2546 -0.0500
 3211TIP3    H133828   6.066   1.803  18.665  0.1214 -1.9369  0.9905
 3211TIP3    H233829   5.916   1.803  18.686 -0.0509 -0.1573 -0.0933
 3212TIP3   OH233830   3.911   0.936  15.844 -0.4976 -0.0153  0.3003
 3212TIP3    H133831   3.955   1.014  15.809 -0.0798  0.1455  1.1581
 3212TIP3    H233832   3.825   0.935  15.800 -0.0300  0.2221 -0.6441
 3213TIP3   OH233833   4.967   5.325  18.285  0.3008  0.1398 -0.0406
 3213TIP3    H133834   4.967   5.415  18.253 -0.1422  0.6102  1.2316
 3213TIP3    H233835   4.985   5.272  18.207  2.4541  1.4279 -0.5090
 3214TIP3   OH233836   2.611   2.495  19.116  0.2880 -0.1492 -0.0183
 3214TIP3    H133837   2.554   2.449  19.177 -1.5051  1.1487 -0.6540
 3214TIP3    H233838   2.613   2.438  19.038  0.3659 -0.4828  0.2230
 3215TIP3   OH233839   2.600   5.116  15.706 -0.0766 -0.3926  0.5768
 3215TIP3    H133840   2.546   5.194  15.696 -0.4174 -0.5391  1.2350
 3215TIP3    H233841   2.538   5.044  15.712  0.2068 -0.6124  0.9107
 3216TIP3   OH233842   2.441   6.456  16.945  0.1471  0.2035  0.2798
 3216TIP3    H133843   2.462   6.459  16.851 -0.3590 -0.1940  0.1485
 3216TIP3    H233844   2.418   6.365  16.961 -1.3282  0.5829  0.4392
 3217TIP3   OH233845   2.899   4.793  17.777 -0.1527  0.4053  0.5164
 3217TIP3    H133846   2.813   4.755  17.798 -0.6584  0.7763 -0.7453
 3217TIP3    H233847   2.881   4.886  17.763 -0.0617  0.1288 -2.0879
 3218TIP3   OH233848   2.481   0.313  17.856  0.4842 -0.0210  0.1353
 3218TIP3    H133849   2.545   0.281  17.793  0.6655 -0.9233  0.7554
 3218TIP3    H233850   2.425   0.372  17.806 -0.1645 -1.6698 -1.1750
 3219TIP3   OH233851   0.333   1.117  17.045 -0.4294 -0.1597  0.3629
 3219TIP3    H133852   0.334   1.024  17.026  1.3592 -0.1966  0.4611
 3219TIP3    H233853   0.389   1.127  17.121 -0.4627  1.0157  0.2547
 3220TIP3   OH233854   4.205   1.493  18.071 -0.3660  0.2141  0.5530
 3220TIP3    H133855   4.209   1.551  17.995 -0.0416  2.3166  2.0684
 3220TIP3    H233856   4.121   1.513  18.113 -0.9507 -1.5636  0.3075
 3221TIP3   OH233857   5.961   4.394  16.752 -0.3148  0.3181  0.1203
 3221TIP3    H133858   5.978   4.358  16.839  0.2411  1.2433  0.4035
 3221TIP3    H233859   6.034   4.364  16.698  0.4276  1.4304  0.4848
 3222TIP3   OH233860   6.596   2.138  19.058 -0.5747 -0.4152 -0.1793
 3222TIP3    H133861   6.677   2.185  19.040 -0.7686 -0.7984 -2.2226
 3222TIP3    H233862   6.605   2.109  19.149  0.9983  0.6483  0.0373
 3223TIP3   OH233863   5.383   2.293  18.827  0.8480  0.0661  0.0686
 3223TIP3    H133864   5.476   2.311  18.841  0.5412  2.4828 -0.6140
 3223TIP3    H233865   5.351   2.368  18.777 -1.3038 -1.1299 -0.4818
 3224TIP3   OH233866   1.484   0.742  19.471 -0.2046  0.2920 -0.1096
 3224TIP3    H133867   1.488   0.805  19.399  0.1471 -0.1416 -0.4822
 3224TIP3    H233868   1.394   0.746  19.502  0.0092  1.5467  0.3931
 3225TIP3   OH233869   2.968   4.174  18.277  0.4090  0.2047  0.0357
 3225TIP3    H133870   2.882   4.169  18.317 -0.6386  1.8585 -1.8310
 3225TIP3    H233871   3.024   4.122  18.335 -1.7439 -0.7027  1.4571
 3226TIP3   OH233872   1.124   3.961  16.637 -0.1847 -0.6179 -0.1474
 3226TIP3    H133873   1.205   3.975  16.588  0.0597 -1.4349  0.0240
 3226TIP3    H233874   1.056   3.955  16.569 -0.2379  0.8326 -0.2598
 3227TIP3   OH233875   2.492   6.201  17.075 -0.8819 -0.2037 -0.2152
 3227TIP3    H133876   2.505   6.116  17.118 -0.9270 -0.2388 -0.2699
 3227TIP3    H233877   2.460   6.178  16.988  1.1597 -0.2088 -1.0150
 3228TIP3   OH233878   6.492   4.508  16.659 -0.6553  0.2054  0.3569
 3228TIP3    H133879   6.488   4.417  16.631  0.0334 -0.1238  1.2858
 3228TIP3    H233880   6.436   4.555  16.597 -2.1749 -1.0488  0.7375
 3229TIP3   OH233881   3.269   6.072  18.011  0.6076 -0.2188  0.1005
 3229TIP3    H133882   3.339   6.101  18.071 -2.0876  2.3007  2.3308
 3229TIP3    H233883   3.254   6.147  17.954 -2.9103  1.1083  2.4290
 3230TIP3   OH233884   6.643   2.279  16.502  0.0616  0.2657 -0.5600
 3230TIP3    H133885   6.657   2.205  16.443 -0.6336 -0.5725  0.2920
 3230TIP3    H233886   6.564   2.322  16.469 -1.5560 -1.4191  0.8799
 3231TIP3   OH233887   1.207   3.884  18.000  0.2589 -0.0839  0.5025
 3231TIP3    H133888   1.197   3.816  18.067  0.6683 -1.2985 -0.6168
 3231TIP3    H233889   1.299   3.910  18.005  0.8632 -1.7157 -0.9354
 3232TIP3   OH233890   1.036   1.213  18.342  0.1886  0.4417  0.7046
 3232TIP3    H133891   1.127   1.239  18.325 -0.1672  1.3971  0.1628
 3232TIP3    H233892   1.042   1.156  18.418  1.2305  0.6437  0.7981
 3233TIP3   OH233893   2.917   1.314  17.630  0.1336  0.6097 -0.2404
 3233TIP3    H133894   2.973   1.348  17.700 -0.8450  0.6296  0.5544
 3233TIP3    H233895   2.968   1.328  17.550  1.0479  1.0895  0.4061
 3234TIP3   OH233896   2.267   6.152  17.805 -0.4212 -0.3427 -0.1923
 3234TIP3    H133897   2.300   6.100  17.731 -0.6880 -0.7662 -0.0195
 3234TIP3    H233898   2.295   6.104  17.883  1.9384  1.3563  0.0857
 3235TIP3   OH233899   0.375   3.232  19.674 -0.6085  0.2486 -0.2199
 3235TIP3    H133900   0.435   3.304  19.693  0.6157 -0.4812 -1.1738
 3235TIP3    H233901   0.427   3.153  19.688 -1.4192 -0.4106 -0.8445
 3236TIP3   OH233902   0.051   2.114  18.037 -0.2386  0.3398 -0.2637
 3236TIP3    H133903   0.079   2.047  18.100 -0.2057 -0.3349 -0.9794
 3236TIP3    H233904  -0.011   2.069  17.980 -1.4990  1.3745  0.2520
 3237TIP3   OH233905   2.119   4.767  16.321  0.2514 -0.3396  0.3788
 3237TIP3    H133906   2.162   4.687  16.352  2.8815  0.8692  0.1390
 3237TIP3    H233907   2.093   4.812  16.401  0.0071 -0.7822  0.5559
 3238TIP3   OH233908   5.297   5.824  18.963 -0.0109 -0.2584  0.3220
 3238TIP3    H133909   5.292   5.920  18.959 -0.9177 -0.1430  2.5126
 3238TIP3    H233910   5.389   5.804  18.942  0.2992  1.1276  0.2411
 3239TIP3   OH233911   6.574   5.650  15.881 -0.3028 -0.1329  0.2126
 3239TIP3    H133912   6.504   5.715  15.888 -1.2912 -1.0592 -0.8115
 3239TIP3    H233913   6.603   5.656  15.790  1.5815  0.8345  0.8231
 3240TIP3   OH233914   2.996   4.222  18.720 -0.4747  0.1471  0.1779
 3240TIP3    H133915   3.082   4.256  18.694 -0.6992  0.0156 -0.7823
 3240TIP3    H233916   2.991   4.136  18.679 -0.9990  0.0896  0.3583
 3241TIP3   OH233917   4.589   3.008  19.452  0.0468 -0.4837  0.4111
 3241TIP3    H133918   4.644   3.086  19.459 -0.5393 -0.1760  2.1339
 3241TIP3    H233919   4.650   2.938  19.428  0.8328  0.2253  0.2883
 3242TIP3   OH233920   4.230   4.981  16.552  0.1998 -0.1247  0.0825
 3242TIP3    H133921   4.264   4.987  16.463 -0.5282 -1.5770 -0.3275
 3242TIP3    H233922   4.140   5.014  16.546  0.5303  0.8903  0.5400
 3243TIP3   OH233923   5.469   2.603  18.150 -0.5090 -0.1930 -0.1266
 3243TIP3    H133924   5.383   2.610  18.191 -0.9907  0.7034 -1.2222
 3243TIP3    H233925   5.476   2.511  18.126 -0.3829 -0.6525  1.5382
 3244TIP3   OH233926   2.999   6.683  17.990 -0.1717 -0.1249  0.2101
 3244TIP3    H133927   3.045   6.724  18.063  1.9338  0.1521 -1.1945
 3244TIP3    H233928   2.989   6.752  17.925  0.3130 -0.9501 -0.7823
 3245TIP3   OH233929   1.341   6.622  18.072 -0.1862  0.2852 -0.3760
 3245TIP3    H133930   1.327   6.716  18.068 -1.6697  0.0444 -1.8343
 3245TIP3    H233931   1.257   6.584  18.047  0.6167 -1.4292 -0.6268
 3246TIP3   OH233932   4.781   3.990  18.223 -0.0242  0.4364  0.0366
 3246TIP3    H133933   4.789   3.910  18.275 -0.8551  0.3721  0.0819
 3246TIP3    H233934   4.747   3.960  18.138  2.3501  0.4021 -0.9632
 3247TIP3   OH233935   2.640   4.668  19.108 -0.4130 -0.0075  0.3372
 3247TIP3    H133936   2.589   4.587  19.108 -3.0425  1.4645 -2.2698
 3247TIP3    H233937   2.651   4.691  19.016  1.7064  1.7951  0.9290
 3248TIP3   OH233938   2.934   6.351  18.575 -0.3476  0.2699  0.3611
 3248TIP3    H133939   2.966   6.431  18.532 -1.0965  0.8141  0.7850
 3248TIP3    H233940   2.849   6.335  18.534 -0.3211 -0.1541  0.4737
 3249TIP3   OH233941   5.253   4.177  19.036  0.3896 -0.5506 -0.1155
 3249TIP3    H133942   5.193   4.240  18.996  1.6779  0.8275  0.0148
 3249TIP3    H233943   5.330   4.178  18.980  1.2792 -0.3686  1.0726
 3250TIP3   OH233944   1.725   5.609  17.066 -0.6195 -0.3651 -1.0268
 3250TIP3    H133945   1.756   5.527  17.028  0.8398 -1.4850  2.2190
 3250TIP3    H233946   1.803   5.664  17.070 -0.3657 -0.7647  1.2528
 3251TIP3   OH233947   4.200   3.131  17.015  1.2312  0.1422 -0.6585
 3251TIP3    H133948   4.195   3.221  16.983 -0.2463 -0.0696 -1.1188
 3251TIP3    H233949   4.143   3.130  17.092  0.8869 -0.4986 -0.9137
 3252TIP3   OH233950   5.833   5.175  15.438 -0.2861  0.6729 -0.2171
 3252TIP3    H133951   5.796   5.237  15.376 -2.1083 -0.5542 -0.4249
 3252TIP3    H233952   5.785   5.188  15.519  0.6363  0.8202  0.3268
 3253TIP3   OH233953   2.023   0.811  18.108 -0.4176 -0.4262 -0.0222
 3253TIP3    H133954   2.084   0.857  18.166 -0.8362  0.0348  0.0535
 3253TIP3    H233955   2.005   0.728  18.153 -1.2201  0.1912  0.8045
 3254TIP3   OH233956   3.180   3.936  17.861  0.3295 -0.1923 -0.5136
 3254TIP3    H133957   3.117   3.913  17.930 -0.8827  0.2953 -1.4235
 3254TIP3    H233958   3.225   3.854  17.842 -0.6182 -0.7514 -0.4248
 3255TIP3   OH233959   5.516   2.374  17.646 -0.2458 -0.3517 -0.0886
 3255TIP3    H133960   5.591   2.327  17.609  0.1647  0.2572 -0.0537
 3255TIP3    H233961   5.481   2.315  17.713  1.8972  0.4360  1.8688
 3256TIP3   OH233962   3.838   3.765  17.482  0.2097  0.4901  0.6626
 3256TIP3    H133963   3.874   3.796  17.565  1.5867  0.7293  0.0014
 3256TIP3    H233964   3.822   3.844  17.432  0.7161  0.2988  0.1820
 3257TIP3   OH233965   1.486   5.881  18.711 -0.5682 -0.2650 -0.0553
 3257TIP3    H133966   1.508   5.800  18.665  1.3811 -0.8474  1.6911
 3257TIP3    H233967   1.550   5.944  18.679 -0.9065  0.0624 -0.0824
 3258TIP3   OH233968   6.652   1.409  16.846  0.0172  0.4985  0.3078
 3258TIP3    H133969   6.597   1.480  16.879  2.4684  2.2875  0.8455
 3258TIP3    H233970   6.701   1.380  16.923 -0.5932 -1.5398 -0.0086
 3259TIP3   OH233971   0.061   0.218  19.273  0.2309 -0.4939  0.3992
 3259TIP3    H133972   0.025   0.214  19.184  0.4445 -0.7867  0.3217
 3259TIP3    H233973  -0.008   0.183  19.329  0.8509 -2.3105  0.1082
 3260TIP3   OH233974   1.900   4.853  16.169 -0.6481 -0.4634 -0.6836
 3260TIP3    H133975   1.951   4.815  16.241  1.1972  1.2632 -0.9718
 3260TIP3    H233976   1.838   4.785  16.144  0.9851 -2.3966  0.2720
 3261TIP3   OH233977   0.216   3.188  17.897 -0.2144 -0.2660  0.5421
 3261TIP3    H133978   0.141   3.235  17.861  0.1843  0.7909  1.0292
 3261TIP3    H233979   0.288   3.252  17.894  0.7377 -1.3328 -0.1632
 3262TIP3   OH233980   5.312   5.948  16.176  0.1731  0.3184 -0.2515
 3262TIP3    H133981   5.399   5.961  16.214 -0.7833 -0.4529  2.3764
 3262TIP3    H233982   5.263   6.026  16.202 -0.1230  0.4773 -1.2311
 3263TIP3   OH233983   3.707   2.772  17.579  0.1868 -0.0605  0.1547
 3263TIP3    H133984   3.688   2.737  17.666  1.0255 -1.3926 -0.1573
 3263TIP3    H233985   3.768   2.708  17.541  1.6080  1.6451 -0.5602
 3264TIP3   OH233986   4.256   3.914  18.690 -0.6865 -1.0704 -0.0054
 3264TIP3    H133987   4.231   3.971  18.617  2.5394 -0.4650 -0.7891
 3264TIP3    H233988   4.351   3.903  18.681 -0.1173 -1.0918  4.0057
 3265TIP3   OH233989   2.492   2.789  16.348  0.1698 -0.1808 -0.3241
 3265TIP3    H133990   2.493   2.800  16.253  1.8622 -0.8546 -0.4179
 3265TIP3    H233991   2.491   2.695  16.362  0.2274 -0.0901  0.3236
 3266TIP3   OH233992   3.144   1.016  19.111  0.7807  0.5047 -0.0431
 3266TIP3    H133993   3.165   1.012  19.204 -0.2891  1.1182  0.2460
 3266TIP3    H233994   3.177   1.101  19.082  1.9581 -0.0722 -0.4688
 3267TIP3   OH233995   3.476   3.515  16.995  0.4719  0.1199  0.4693
 3267TIP3    H133996   3.520   3.497  16.912  1.7810  1.1772  0.9102
 3267TIP3    H233997   3.433   3.600  16.982 -1.8144 -1.0210 -0.0598
 3268TIP3   OH233998   1.532   1.083  16.446 -0.4070 -0.3719  0.2800
 3268TIP3    H133999   1.511   1.166  16.405 -0.4951  0.0625  1.1839
 3268TIP3    H234000   1.448   1.041  16.462 -0.3417 -0.9068 -0.6948
 3269TIP3   OH234001   2.657   3.686  18.959 -0.2503  0.4404  0.6288
 3269TIP3    H134002   2.616   3.684  18.873  1.1572 -1.3146 -0.0690
 3269TIP3    H234003   2.654   3.778  18.985 -0.3285  1.0870 -1.4847
 3270TIP3   OH234004   5.277   0.686  19.191 -0.3877 -0.4772 -0.2714
 3270TIP3    H134005   5.262   0.752  19.258 -1.7354 -1.7312  0.7361
 3270TIP3    H234006   5.242   0.725  19.111  1.1811  1.0112 -0.2736
 3271TIP3   OH234007   6.152   5.752  16.045 -0.6242 -0.5338 -0.2709
 3271TIP3    H134008   6.154   5.696  16.122  1.1623  0.2846  0.3421
 3271TIP3    H234009   6.233   5.732  15.998  0.1257  1.5242  0.0243
 3272TIP3   OH234010   5.053   3.371  16.999 -0.7483 -0.2804  0.0781
 3272TIP3    H134011   5.140   3.409  17.012 -0.8310 -0.6320  2.0801
 3272TIP3    H234012   5.052   3.342  16.908  0.2767  2.0157 -0.7272
 3273TIP3   OH234013   6.283   4.966  18.334  0.0198 -0.0302 -0.0072
 3273TIP3    H134014   6.343   5.038  18.312  1.7891 -0.9544  1.5372
 3273TIP3    H234015   6.240   4.994  18.414 -1.0296  0.2569 -0.6496
 3274TIP3   OH234016   1.244   2.563  19.096  0.1564  0.1004  0.3759
 3274TIP3    H134017   1.326   2.599  19.131  0.3781  2.2807 -2.0659
 3274TIP3    H234018   1.208   2.634  19.042 -1.4140 -2.0933 -1.6551
 3275TIP3   OH234019   6.154   2.254  17.007  0.3309 -0.2882  0.1175
 3275TIP3    H134020   6.188   2.256  17.097  0.9090  0.0243 -0.1001
 3275TIP3    H234021   6.066   2.219  17.015  0.1531  0.3028  0.8801
 3276TIP3   OH234022   5.155   2.392  17.676  0.2079  0.0504  0.8609
 3276TIP3    H134023   5.169   2.425  17.587 -2.5786  0.3618  0.4556
 3276TIP3    H234024   5.153   2.297  17.666 -1.5733  0.1157  0.2718
 3277TIP3   OH234025   5.945   2.325  19.269 -0.2921 -0.5503  0.1452
 3277TIP3    H134026   5.962   2.247  19.217  0.2325 -1.0543  1.0641
 3277TIP3    H234027   6.014   2.386  19.244  0.6369 -1.2049  1.0669
 3278TIP3   OH234028   4.592   2.420  17.936 -0.0678 -0.0997 -0.0739
 3278TIP3    H134029   4.684   2.426  17.963 -0.1475  0.4404  0.1065
 3278TIP3    H234030   4.549   2.491  17.985 -0.4055  0.2304 -0.8367
 3279TIP3   OH234031   4.712   3.039  17.507  0.3649  0.4218  0.1719
 3279TIP3    H134032   4.674   3.095  17.439 -0.0476 -2.3583 -2.0948
 3279TIP3    H234033   4.806   3.047  17.495  0.3313  1.0444  0.2732
 3280TIP3   OH234034   4.337   4.772  17.547  0.4995 -0.2360  0.0755
 3280TIP3    H134035   4.267   4.771  17.482  0.9155 -2.3938 -0.4076
 3280TIP3    H234036   4.297   4.738  17.627  1.1494 -2.5015 -0.4787
 3281TIP3   OH234037   4.185   0.819  18.500 -0.1831 -0.4405  0.3866
 3281TIP3    H134038   4.248   0.811  18.428 -0.7784 -2.0397 -0.0138
 3281TIP3    H234039   4.142   0.903  18.485 -0.2500 -0.7098 -1.1155
 3282TIP3   OH234040   6.178   4.587  17.936  0.5834 -0.1259 -0.0000
 3282TIP3    H134041   6.118   4.521  17.970  0.4511 -0.4786 -0.8800
 3282TIP3    H234042   6.179   4.656  18.002  2.5885 -2.0554  2.1739
 3283TIP3   OH234043   6.093   6.342  17.551 -0.4805  0.4952  0.3363
 3283TIP3    H134044   6.003   6.360  17.524 -0.6651  0.9655  1.2217
 3283TIP3    H234045   6.114   6.258  17.511 -1.1811  0.5583 -0.1821
 3284TIP3   OH234046   4.788   4.983  16.820 -0.2574 -0.3047 -0.5056
 3284TIP3    H134047   4.751   4.901  16.786 -0.5575 -0.5946  0.5125
 3284TIP3    H234048   4.773   5.046  16.749 -0.2722 -1.0534 -1.1894
 3285TIP3   OH234049   6.090   6.334  16.092 -0.1711 -0.3427  0.1786
 3285TIP3    H134050   6.013   6.336  16.035  1.0884  0.6754 -1.5850
 3285TIP3    H234051   6.125   6.246  16.081 -0.2234 -0.3154 -0.2227
 3286TIP3   OH234052   6.744   6.140  16.466 -0.6766 -0.2702 -0.1376
 3286TIP3    H134053   6.651   6.129  16.488 -0.6864  0.6248  0.3277
 3286TIP3    H234054   6.749   6.227  16.427  0.0811 -0.0321  0.4705
 3287TIP3   OH234055   4.725   3.759  17.055 -0.2057 -0.0717  0.3132
 3287TIP3    H134056   4.698   3.738  16.965  0.9891  1.6252 -0.5039
 3287TIP3    H234057   4.782   3.687  17.081 -1.9178 -1.4477  0.3936
 3288TIP3   OH234058   2.400   5.787  17.029  0.1881 -0.0496  0.0087
 3288TIP3    H134059   2.363   5.814  16.944  1.2089  0.3815 -0.3167
 3288TIP3    H234060   2.477   5.735  17.006  0.6294  0.3000  0.6713
 3289TIP3   OH234061   4.952   1.992  19.228  0.2678 -0.8303  0.2209
 3289TIP3    H134062   4.992   1.967  19.311  0.3460 -0.7304  0.2122
 3289TIP3    H234063   5.025   2.002  19.168  0.1894 -1.2443  0.0487
 3290TIP3   OH234064   1.563   6.671  19.246  0.8611 -0.2441  0.0855
 3290TIP3    H134065   1.561   6.677  19.151 -1.5290 -1.0973  0.0119
 3290TIP3    H234066   1.586   6.579  19.264 -0.7416 -0.6664  0.2113
 3291TIP3   OH234067   4.464   4.694  16.010  0.4183 -0.0776 -0.2274
 3291TIP3    H134068   4.376   4.714  16.042  0.7224  0.3061  0.3921
 3291TIP3    H234069   4.482   4.761  15.945 -0.1052 -0.7116 -1.0467
 3292TIP3   OH234070   4.244   5.133  19.282 -0.8760  0.0754 -1.1234
 3292TIP3    H134071   4.207   5.073  19.217 -1.2646 -0.9099 -0.0282
 3292TIP3    H234072   4.290   5.076  19.343 -1.7027  0.8351  0.2522
 3293TIP3   OH234073   1.515   3.878  18.322 -0.3090 -0.1021 -0.0351
 3293TIP3    H134074   1.484   3.968  18.326  1.7446  0.7681 -1.7990
 3293TIP3    H234075   1.449   3.827  18.369 -1.1201  2.3967  1.7214
 3294TIP3   OH234076   5.582   1.324  16.220  0.7536  0.2576  0.2465
 3294TIP3    H134077   5.577   1.400  16.279  1.7999  0.4018  0.1610
 3294TIP3    H234078   5.493   1.287  16.222 -0.2893  2.4750 -1.0310
 3295TIP3   OH234079   0.580   3.773  17.679  0.2921  0.8841 -0.0208
 3295TIP3    H134080   0.488   3.792  17.661  0.4313  1.2384 -0.3707
 3295TIP3    H234081   0.589   3.787  17.774 -0.1957  0.0387  0.1678
 3296TIP3   OH234082   2.371   4.619  17.315 -0.3751 -0.0758  0.4038
 3296TIP3    H134083   2.349   4.537  17.271 -0.3807  0.3923 -0.4719
 3296TIP3    H234084   2.459   4.604  17.350 -0.6279 -0.6752  0.8008
 3297TIP3   OH234085   2.838   1.071  16.790  0.4036  0.1268  0.5007
 3297TIP3    H134086   2.871   1.140  16.847  0.7462 -0.9301  1.6338
 3297TIP3    H234087   2.746   1.093  16.776  0.6086  1.0277  0.4805
 3298TIP3   OH234088   2.110   1.343  16.594  0.2900  0.4937  0.0462
 3298TIP3    H134089   2.065   1.294  16.662  1.8615 -0.7450  0.2438
 3298TIP3    H234090   2.083   1.434  16.609  0.7401  0.3002  2.4564
 3299TIP3   OH234091   4.207   0.581  17.837  0.2236  0.0011 -0.1186
 3299TIP3    H134092   4.138   0.642  17.815 -0.8986 -1.2203 -0.1242
 3299TIP3    H234093   4.282   0.636  17.862 -0.5565  1.3405 -0.6690
 3300TIP3   OH234094   2.353   5.768  16.744 -0.1289  0.4119 -0.5764
 3300TIP3    H134095   2.392   5.694  16.697 -1.8946  0.0533 -1.5559
 3300TIP3    H234096   2.398   5.845  16.708 -0.3796  0.0192 -1.7927
 3301TIP3   OH234097   6.227   1.650  19.192 -0.0203 -0.0926  0.3068
 3301TIP3    H134098   6.239   1.702  19.113 -0.1428  0.2321  0.4976
 3301TIP3    H234099   6.133   1.638  19.199  0.0838 -1.4910 -0.4645
 3302TIP3   OH234100   3.181   0.080  15.369 -0.4591  0.1721 -0.2095
 3302TIP3    H134101   3.087   0.099  15.367 -0.9659 -2.0470 -1.5011
 3302TIP3    H234102   3.192   0.010  15.305  1.9935 -0.0912  0.4078
 3303TIP3   OH234103   6.736   5.642  16.530  0.1704  0.0853  0.4985
 3303TIP3    H134104   6.770   5.553  16.521 -1.1658 -0.6667  2.3242
 3303TIP3    H234105   6.778   5.677  16.608 -1.8736 -0.2523  1.8073
 3304TIP3   OH234106   2.686   2.010  18.021  0.0461 -0.0213  0.2075
 3304TIP3    H134107   2.634   2.089  18.032 -0.6551 -0.4423  0.0222
 3304TIP3    H234108   2.621   1.941  18.002  0.4131 -1.0672  2.4163
 3305TIP3   OH234109   6.728   5.251  17.442 -0.9767  0.0595  0.6878
 3305TIP3    H134110   6.739   5.162  17.476 -0.9704 -0.0303  0.4590
 3305TIP3    H234111   6.760   5.245  17.352 -0.9654  0.2969  0.6765
 3306TIP3   OH234112   5.427   0.379  16.891  0.6973  0.0439 -0.2076
 3306TIP3    H134113   5.460   0.402  16.978  1.3280  0.1119 -0.4566
 3306TIP3    H234114   5.487   0.310  16.861  1.2153  0.8601 -1.0757
 3307TIP3   OH234115   3.095   5.062  18.577 -0.0192 -0.1768 -0.3305
 3307TIP3    H134116   3.046   5.050  18.496  1.1396 -0.3603 -1.0350
 3307TIP3    H234117   3.039   5.117  18.631 -0.1217  1.3764 -1.9191
 3308TIP3   OH234118   3.892   1.901  17.558 -0.0224 -0.2977  0.3000
 3308TIP3    H134119   3.827   1.967  17.534  2.1084  1.6254 -0.5852
 3308TIP3    H234120   3.887   1.836  17.488 -1.0350 -0.2467  0.3053
 3309TIP3   OH234121   3.891   0.777  18.168 -0.2165 -0.0815  0.5045
 3309TIP3    H134122   3.928   0.702  18.121 -0.6376 -0.9061  1.4428
 3309TIP3    H234123   3.816   0.741  18.215 -0.3416  0.9058  1.0890
 3310TIP3   OH234124   2.600   0.984  17.040 -0.2846 -0.3183  0.0408
 3310TIP3    H134125   2.584   1.000  17.133  0.3503 -1.0933  0.2970
 3310TIP3    H234126   2.673   0.922  17.039  0.5386  0.6285 -1.0020
 3311TIP3   OH234127   6.479   5.785  18.476  1.2592  0.1319  0.3440
 3311TIP3    H134128   6.565   5.818  18.448  0.8817  0.8963  0.0409
 3311TIP3    H234129   6.495   5.745  18.561  2.1861 -1.0139 -0.3322
 3312TIP3   OH234130   4.220   2.568  17.649  0.1680 -0.5156  0.4317
 3312TIP3    H134131   4.291   2.632  17.658 -0.0737 -0.5491  3.8100
 3312TIP3    H234132   4.208   2.559  17.554  3.1228  1.1603 -0.2427
 3313TIP3   OH234133   6.085   3.603  17.591 -0.1787  0.1770  0.0569
 3313TIP3    H134134   6.037   3.535  17.637 -2.4289  0.6527 -1.4303
 3313TIP3    H234135   6.088   3.676  17.654 -0.0068 -0.3905  0.7244
 3314TIP3   OH234136   0.223   2.186  16.763 -0.0604  0.4764 -0.4597
 3314TIP3    H134137   0.138   2.166  16.802 -0.1396  0.7274 -0.5017
 3314TIP3    H234138   0.262   2.101  16.746 -0.0739  0.3584  0.0646
 3315TIP3   OH234139   0.335   5.005  18.634  0.3512  0.8151  0.4355
 3315TIP3    H134140   0.263   4.969  18.686  2.1198 -3.0872  0.4963
 3315TIP3    H234141   0.293   5.030  18.551 -1.0880 -1.8930  0.2321
 3316TIP3   OH234142   4.953   5.346  17.380  0.4123  0.5945 -0.0786
 3316TIP3    H134143   4.902   5.377  17.305  2.8377  2.8455 -0.9676
 3316TIP3    H234144   4.964   5.252  17.364 -4.6128 -0.4856  1.0486
 3317TIP3   OH234145   0.637   0.460  16.529 -0.2512  0.2077 -0.5311
 3317TIP3    H134146   0.659   0.482  16.438  1.8078 -1.7264 -0.5941
 3317TIP3    H234147   0.544   0.440  16.527 -0.4133  0.9818 -2.0529
 3318TIP3   OH234148   5.749   6.331  18.855 -0.4997  0.6220  0.1257
 3318TIP3    H134149   5.805   6.294  18.786 -0.4453 -0.2158  0.6092
 3318TIP3    H234150   5.806   6.338  18.931 -0.3547  2.2673 -0.1091
 3319TIP3   OH234151   1.528   0.810  15.791 -0.4171 -0.0631 -0.4418
 3319TIP3    H134152   1.619   0.836  15.804 -0.6193  0.7917 -0.6962
 3319TIP3    H234153   1.494   0.872  15.726 -1.1638 -0.4100 -0.3923
 3320TIP3   OH234154   5.024   4.395  17.998 -0.0395  0.3749 -0.2771
 3320TIP3    H134155   4.971   4.463  17.956  0.3324  1.3362  0.7418
 3320TIP3    H234156   5.047   4.433  18.083  1.5027 -0.3990 -0.3194
 3321TIP3   OH234157   2.179   1.779  17.736  0.5487 -0.1659  0.4147
 3321TIP3    H134158   2.216   1.777  17.824  0.2127 -0.0962  0.5612
 3321TIP3    H234159   2.228   1.712  17.688  1.9416  1.0018  0.1553
 3322TIP3   OH234160   2.687   5.353  16.457  0.3809  0.4469  0.1613
 3322TIP3    H134161   2.780   5.363  16.476  1.1320 -1.1194 -2.1976
 3322TIP3    H234162   2.682   5.350  16.361 -2.2664  1.6703  0.1576
 3323TIP3   OH234163   3.550   4.748  18.306  0.5756 -0.2686  0.1998
 3323TIP3    H134164   3.550   4.680  18.239 -0.0439 -1.1803  1.0938
 3323TIP3    H234165   3.633   4.737  18.353  0.9893  0.3408 -0.3740
 3324TIP3   OH234166   0.822   2.372  16.078 -0.4714  0.1958 -0.4399
 3324TIP3    H134167   0.837   2.292  16.028 -1.8462 -0.7157  0.5253
 3324TIP3    H234168   0.892   2.375  16.143 -0.5253 -0.3418 -0.3562
 3325TIP3   OH234169   0.534   6.145  17.783 -0.3572 -0.2077 -0.2458
 3325TIP3    H134170   0.497   6.191  17.708  0.2903  0.4451 -0.1799
 3325TIP3    H234171   0.580   6.070  17.745 -0.4741 -0.1778 -0.4504
 3326TIP3   OH234172   2.582   1.716  16.412 -0.1288 -0.8028 -0.3680
 3326TIP3    H134173   2.560   1.737  16.503 -1.4712  2.5645 -1.2861
 3326TIP3    H234174   2.672   1.685  16.415  0.2064  0.1594  2.0308
 3327TIP3   OH234175   5.845   2.253  18.588  0.3343  0.6046 -0.2312
 3327TIP3    H134176   5.879   2.184  18.645  0.5009  1.1226  0.3116
 3327TIP3    H234177   5.922   2.303  18.561  0.1894  0.7311 -0.4156
 3328TIP3   OH234178   2.643   6.240  18.523  0.4516  0.1815 -0.6068
 3328TIP3    H134179   2.695   6.204  18.595  0.1775 -1.0047 -0.9930
 3328TIP3    H234180   2.676   6.196  18.445 -0.2372  0.4060 -1.0306
 3329TIP3   OH234181   0.286   2.738  19.024  0.4460 -0.7484 -0.3730
 3329TIP3    H134182   0.234   2.679  19.079 -0.0557 -0.2391 -0.2840
 3329TIP3    H234183   0.352   2.682  18.983 -1.8700 -2.0101 -2.6958
 3330TIP3   OH234184   6.511   2.488  18.251  0.2780  0.1458  0.0409
 3330TIP3    H134185   6.595   2.522  18.283 -0.1350  0.6953  0.5914
 3330TIP3    H234186   6.532   2.406  18.208  1.3052  1.0420 -1.2232
 3331TIP3   OH234187   0.443   3.662  17.298 -0.0472 -0.1778 -0.0938
 3331TIP3    H134188   0.536   3.683  17.290 -0.0688  0.1040  0.3795
 3331TIP3    H234189   0.431   3.586  17.241  0.3803  0.0540 -0.5004
 3332TIP3   OH234190   3.392   3.682  18.672 -0.1561 -0.2798 -0.1552
 3332TIP3    H134191   3.391   3.605  18.616 -1.6152 -1.1440  0.9859
 3332TIP3    H234192   3.359   3.651  18.756  2.1711  0.9157  1.2915
 3333TIP3   OH234193   1.836   1.983  19.491  0.4086 -0.0559  0.2374
 3333TIP3    H134194   1.855   1.936  19.572  2.4054 -1.2345 -0.8496
 3333TIP3    H234195   1.751   2.024  19.507 -1.1896 -3.4714  1.5197
 3334TIP3   OH234196   5.325   1.860  16.833  0.1001  0.9006  0.5788
 3334TIP3    H134197   5.414   1.851  16.798  0.4471  2.0787  1.0872
 3334TIP3    H234198   5.338   1.893  16.922 -0.8480  0.9716  0.6982
 3335TIP3   OH234199   5.338   2.705  17.175  0.0803 -0.0212  0.2429
 3335TIP3    H134200   5.407   2.772  17.183  0.1478 -0.1956  1.1773
 3335TIP3    H234201   5.356   2.644  17.246  0.6785 -1.6655 -1.2385
 3336TIP3   OH234202   1.429   0.151  18.257  0.5516  0.0687 -0.5963
 3336TIP3    H134203   1.510   0.154  18.308  0.4008 -0.2417 -0.3320
 3336TIP3    H234204   1.378   0.081  18.298 -0.5230  1.3162  0.2577
 3337TIP3   OH234205   3.102   2.569  18.801  0.2788  0.0065 -0.0119
 3337TIP3    H134206   3.008   2.586  18.790 -0.0081 -1.8406 -0.7569
 3337TIP3    H234207   3.132   2.639  18.858 -1.2819  1.3940 -0.8026
 3338TIP3   OH234208   1.647   6.202  19.078 -0.0970  0.1344 -0.2734
 3338TIP3    H134209   1.570   6.196  19.021  0.0756 -1.6653 -0.3778
 3338TIP3    H234210   1.721   6.205  19.018  0.0770 -1.6284 -0.1977
 3339TIP3   OH234211   1.417   4.223  17.326  0.3130 -0.3529 -0.2077
 3339TIP3    H134212   1.448   4.189  17.241 -0.0057  2.3937 -1.5331
 3339TIP3    H234213   1.482   4.289  17.350 -1.3855  1.3441 -0.0872
 3340TIP3   OH234214   0.870   4.923  18.317 -0.1353 -0.2951  0.0572
 3340TIP3    H134215   0.955   4.967  18.323  0.0229 -0.6524  0.4655
 3340TIP3    H234216   0.853   4.917  18.223  0.0282  0.2804 -0.0146
 3341TIP3   OH234217   5.951   6.637  18.027  0.0329 -0.5630  0.0640
 3341TIP3    H134218   5.991   6.652  18.113  0.5349  0.4579 -0.3266
 3341TIP3    H234219   5.867   6.596  18.046  0.5645 -1.2533  0.9891
 3342TIP3   OH234220   2.874   6.076  18.352  0.2485 -0.6341  0.2905
 3342TIP3    H134221   2.903   5.992  18.316  1.3456 -0.0905 -0.1562
 3342TIP3    H234222   2.876   6.062  18.447 -1.6763 -1.7576  0.2125
 3343TIP3   OH234223   0.214   6.066  17.148  0.2452 -0.5512  0.2730
 3343TIP3    H134224   0.136   6.031  17.106  0.9209 -2.2056  0.3191
 3343TIP3    H234225   0.191   6.072  17.241 -0.3329  0.5119  0.0821
 3344TIP3   OH234226   5.775   2.219  17.614 -0.1600  0.9901  0.1756
 3344TIP3    H134227   5.744   2.143  17.564 -0.3809  0.0941  1.6042
 3344TIP3    H234228   5.834   2.181  17.680 -1.1588  1.9029  1.6416
 3345TIP3   OH234229   2.252   4.391  18.737  0.0585  0.2000 -0.0449
 3345TIP3    H134230   2.298   4.408  18.655 -1.1127  4.4485 -0.0535
 3345TIP3    H234231   2.189   4.463  18.745 -0.8797 -0.8000  3.9256
 3346TIP3   OH234232   3.379   6.503  18.730 -0.0379 -0.4968  0.5184
 3346TIP3    H134233   3.465   6.543  18.722  0.3615 -1.0131  1.8505
 3346TIP3    H234234   3.374   6.439  18.658  0.6699 -0.4257  0.4089
 3347TIP3   OH234235   1.913   5.733  17.424 -0.7873 -0.0925 -0.3119
 3347TIP3    H134236   1.919   5.810  17.368  1.4234  0.6694  0.8592
 3347TIP3    H234237   1.821   5.706  17.417 -0.8924  0.6500 -3.2843
 3348TIP3   OH234238   6.134   5.128  16.998 -0.0870 -0.2622  0.2426
 3348TIP3    H134239   6.198   5.106  17.066 -0.6309  1.3505  1.3328
 3348TIP3    H234240   6.049   5.113  17.039 -0.4464  1.9353  0.4213
 3349TIP3   OH234241   4.494   5.456  18.146 -0.1946  0.2740 -0.3165
 3349TIP3    H134242   4.485   5.499  18.231  0.7742 -0.1358  0.0017
 3349TIP3    H234243   4.558   5.510  18.099 -2.9276  2.2964 -1.9795
 3350TIP3   OH234244   2.095   2.547  19.368 -0.0252  0.2228 -0.4903
 3350TIP3    H134245   2.155   2.478  19.395  0.5465 -0.0450 -2.3259
 3350TIP3    H234246   2.110   2.617  19.431  2.7195  0.4212 -1.2348
 3351TIP3   OH234247   1.836   3.209  18.800  0.0186 -0.1069 -0.1007
 3351TIP3    H134248   1.842   3.183  18.708  0.8355 -2.0107  0.4526
 3351TIP3    H234249   1.812   3.302  18.797  0.3597 -0.0444 -2.2268
 3352TIP3   OH234250   1.780   3.036  18.584  0.3535  1.0591 -0.3104
 3352TIP3    H134251   1.689   3.062  18.598  0.6458  0.6406  3.7227
 3352TIP3    H234252   1.774   2.953  18.537 -1.4885  0.3479  1.0353
 3353TIP3   OH234253   6.677   1.477  19.077  0.4718 -1.0523  0.2672
 3353TIP3    H134254   6.625   1.398  19.060 -0.7624 -0.1678 -0.1608
 3353TIP3    H234255   6.624   1.527  19.139  0.3097  0.3355 -0.9471
 3354TIP3   OH234256   3.093   3.173  17.820 -0.3156  0.1619 -0.1682
 3354TIP3    H134257   3.018   3.159  17.878  0.5609 -1.1031  0.7134
 3354TIP3    H234258   3.122   3.085  17.796  2.0495  0.5105  1.0936
 3355TIP3   OH234259   2.823   4.852  19.534  0.2382  0.2500 -0.7195
 3355TIP3    H134260   2.915   4.873  19.513  1.0567 -1.6201  0.6887
 3355TIP3    H234261   2.787   4.933  19.570  2.3545  0.1897  1.8003
 3356TIP3   OH234262   1.373   4.429  19.399  0.0810  0.1327 -0.0002
 3356TIP3    H134263   1.344   4.421  19.308 -0.2363 -1.0168  0.1867
 3356TIP3    H234264   1.415   4.345  19.418  0.5669  0.5469  0.7671
 3357TIP3   OH234265   4.759   0.968  19.112  0.1940 -0.0926  0.1096
 3357TIP3    H134266   4.719   1.054  19.103  0.3967 -0.0664 -0.6286
 3357TIP3    H234267   4.688   0.912  19.145  0.6338  0.8100  2.8521
 3358TIP3   OH234268   6.515   1.381  18.765  0.6017 -0.2509  0.2969
 3358TIP3    H134269   6.509   1.287  18.746 -0.8347 -0.5182  1.8293
 3358TIP3    H234270   6.520   1.385  18.861  1.0983  1.2242  0.2227
 3359TIP3   OH234271   1.371   1.812  19.520  0.1191 -0.6487 -0.1233
 3359TIP3    H134272   1.290   1.850  19.487  0.0832  0.2281  0.9186
 3359TIP3    H234273   1.392   1.864  19.598  0.4911 -2.2929  0.9022
 3360TIP3   OH234274   4.774   2.296  17.463  0.9794  0.4203 -0.1223
 3360TIP3    H134275   4.815   2.373  17.502  0.8245  1.1252 -1.2889
 3360TIP3    H234276   4.693   2.283  17.512  2.0656 -0.3781  1.5475
 3361TIP3   OH234277   4.361   2.908  16.958 -0.1373  0.3413  0.3248
 3361TIP3    H134278   4.303   2.833  16.968 -0.3385  0.6788  1.9758
 3361TIP3    H234279   4.302   2.983  16.948  0.0535  0.2631 -2.0355
 3362TIP3   OH234280   3.550   4.572  18.093 -0.5598  0.3379  0.0633
 3362TIP3    H134281   3.539   4.584  17.999  0.6395 -2.6128 -0.5521
 3362TIP3    H234282   3.484   4.507  18.117  1.2691 -1.4500  0.5275
 3363TIP3   OH234283   2.734   4.876  18.666 -0.4826  0.3850  0.2038
 3363TIP3    H134284   2.801   4.923  18.715  1.2540 -1.0969 -0.6165
 3363TIP3    H234285   2.724   4.926  18.585  1.4350 -0.6024 -0.7138
 3364TIP3   OH234286   3.299   0.329  17.041  0.5846 -0.4462 -0.5324
 3364TIP3    H134287   3.284   0.348  17.134  0.5320 -0.9722 -0.4354
 3364TIP3    H234288   3.383   0.371  17.021  0.0519  0.6512 -0.5403
 3365TIP3   OH234289   3.214   4.063  17.639 -0.6643 -0.7923  0.3650
 3365TIP3    H134290   3.141   4.024  17.589 -1.0673 -1.2582  1.2983
 3365TIP3    H234291   3.209   4.021  17.724  0.2301 -0.2448  0.6921
 3366TIP3   OH234292   4.220   3.788  17.457 -0.4860  0.3265  0.2984
 3366TIP3    H134293   4.248   3.811  17.368 -0.8023  0.7451  0.3040
 3366TIP3    H234294   4.236   3.694  17.464  1.4312  0.6183  0.4829
 3367TIP3   OH234295   5.729   3.524  18.816 -0.7263  0.4401  0.1323
 3367TIP3    H134296   5.687   3.441  18.838  0.4433 -0.2399 -0.1217
 3367TIP3    H234297   5.696   3.585  18.881 -0.6962 -0.5061  1.0674
 3368TIP3   OH234298   1.805   4.705  18.425 -0.1791  0.1042 -0.9016
 3368TIP3    H134299   1.826   4.784  18.474  0.3402  0.2665 -1.3879
 3368TIP3    H234300   1.733   4.730  18.368 -1.2365 -0.2559  0.2220
 3369TIP3   OH234301   0.039   1.002  17.070  0.2982  0.3864  0.9170
 3369TIP3    H134302  -0.009   0.942  17.013 -0.7748  0.0446  2.1282
 3369TIP3    H234303   0.126   0.964  17.078 -0.1610 -0.6493  1.0958
 3370TIP3   OH234304   3.289   6.279  17.786  0.0336  0.6043 -0.0349
 3370TIP3    H134305   3.232   6.264  17.711 -0.2877 -0.6299  0.4275
 3370TIP3    H234306   3.359   6.215  17.776  1.2644  1.9626 -0.4802
 3371TIP3   OH234307   5.630   5.657  16.631  0.6030 -0.2005 -0.8307
 3371TIP3    H134308   5.576   5.736  16.633 -1.9721 -1.8856  0.0235
 3371TIP3    H234309   5.608   5.610  16.711  1.0201 -2.4571 -1.9583
 3372TIP3   OH234310   5.165   0.753  18.485 -1.1370 -0.7421  0.0118
 3372TIP3    H134311   5.169   0.847  18.467  1.5090  0.0758  3.8150
 3372TIP3    H234312   5.251   0.720  18.459 -1.2350 -1.6469  0.7689
 3373TIP3   OH234313   5.911   0.470  17.645 -0.0576 -0.1976 -0.4416
 3373TIP3    H134314   5.872   0.556  17.660  0.4001  0.4710 -2.6857
 3373TIP3    H234315   5.864   0.412  17.705 -1.5549  1.3108 -0.0724
 3374TIP3   OH234316   5.908   1.485  18.261  0.1076  0.3809  0.0280
 3374TIP3    H134317   5.872   1.398  18.281  1.7688 -0.0213  1.4923
 3374TIP3    H234318   5.863   1.511  18.181 -1.1641 -1.3941  0.0971
 3375TIP3   OH234319   6.377   3.713  17.630  0.6133  0.1919  0.0299
 3375TIP3    H134320   6.314   3.756  17.688  1.8405  0.8446  0.9136
 3375TIP3    H234321   6.400   3.780  17.566  3.3411  1.3803  2.0315
 3376TIP3   OH234322   1.538   1.073  17.481  0.0903 -0.1199  0.1804
 3376TIP3    H134323   1.450   1.049  17.452 -1.2400  1.9163  2.2212
 3376TIP3    H234324   1.551   1.020  17.561  0.6344 -0.2510  0.0068
 3377TIP3   OH234325   2.843   0.841  17.068  0.1083 -0.4112  0.1101
 3377TIP3    H134326   2.908   0.903  17.036 -1.8413  1.5484 -0.3225
 3377TIP3    H234327   2.862   0.831  17.161 -0.2437  1.8393  0.4671
 3378TIP3   OH234328   5.962   1.935  18.386  0.2025  0.1953 -0.4240
 3378TIP3    H134329   6.054   1.911  18.393  0.5089  1.5078  0.2460
 3378TIP3    H234330   5.915   1.859  18.422  1.2272  1.2282  3.6318
 3379TIP3   OH234331   1.720   5.332  18.137  0.0452  0.4442  0.2929
 3379TIP3    H134332   1.728   5.420  18.099  0.8995  0.3593  0.2351
 3379TIP3    H234333   1.704   5.347  18.230  0.7268  0.6702  0.3812
 3380TIP3   OH234334   0.453   2.041  17.311 -0.0667  0.1403 -0.4582
 3380TIP3    H134335   0.543   2.011  17.297 -0.2063 -0.1388 -0.7567
 3380TIP3    H234336   0.462   2.135  17.327  0.3649 -0.0276  0.3781
 3381TIP3   OH234337   6.234   0.279  18.096  0.3299  0.4098  0.6205
 3381TIP3    H134338   6.201   0.226  18.024  4.2336 -1.8801  0.2470
 3381TIP3    H234339   6.206   0.233  18.175  1.2091 -0.6054  0.3584
 3382TIP3   OH234340   0.397   5.767  17.524 -0.5347 -0.3063  0.4123
 3382TIP3    H134341   0.370   5.848  17.567 -1.2798 -0.6701  0.6508
 3382TIP3    H234342   0.379   5.698  17.589 -1.4127 -0.8329 -0.3556
 3383TIP3   OH234343   1.467   4.171  19.002  0.0746 -0.7250  0.8895
 3383TIP3    H134344   1.399   4.117  18.961  0.9653 -1.3982  0.2368
 3383TIP3    H234345   1.422   4.250  19.031 -0.8686 -0.8866 -0.0798
 3384TIP3   OH234346   2.611   4.853  17.746  0.1975  0.0275  0.3236
 3384TIP3    H134347   2.581   4.763  17.731  0.8834 -0.4010  1.3648
 3384TIP3    H234348   2.660   4.875  17.667 -1.3100  0.1014 -0.6345
 3385TIP3   OH234349   5.513   5.578  16.861  0.2142 -0.0044  0.5037
 3385TIP3    H134350   5.547   5.539  16.941  0.5347  0.8435  0.7972
 3385TIP3    H234351   5.504   5.671  16.882  2.3902  0.6644 -1.1164
 3386TIP3   OH234352   3.969   0.069  18.948  0.1255  0.5860  0.4605
 3386TIP3    H134353   4.051   0.055  18.997  0.9221  2.4557 -0.2142
 3386TIP3    H234354   3.902   0.027  19.001  1.3061  0.4146  1.8982
 3387TIP3   OH234355   1.457   3.731  17.669  0.1795  0.1152  0.1554
 3387TIP3    H134356   1.499   3.688  17.743 -0.0979 -0.2174  0.1194
 3387TIP3    H234357   1.389   3.670  17.640 -0.9540  1.0274  0.7926
 3388TIP3   OH234358   2.036   1.086  17.216  0.3201 -0.3018 -0.6278
 3388TIP3    H134359   1.996   1.161  17.172 -1.5886 -1.0641 -0.2860
 3388TIP3    H234360   2.122   1.077  17.174 -0.3745  0.5977 -2.3438
 3389TIP3   OH234361   2.798   2.404  19.470  0.3004  0.1124 -0.1827
 3389TIP3    H134362   2.865   2.404  19.538  0.4340 -1.2413 -0.2903
 3389TIP3    H234363   2.802   2.491  19.432  2.0532  0.0253 -0.2424
 3390TIP3   OH234364   0.433   2.795  17.676 -0.0931 -0.3208  0.2778
 3390TIP3    H134365   0.417   2.881  17.637  1.2673 -0.1598  0.0207
 3390TIP3    H234366   0.393   2.800  17.763  0.3903  0.7377  0.4452
 3391TIP3   OH234367   3.216   1.492  17.055  0.1625  0.8439  0.3945
 3391TIP3    H134368   3.247   1.434  16.986  1.4028 -2.2133  3.2721
 3391TIP3    H234369   3.127   1.516  17.028  0.8881  0.5893 -2.6148
 3392TIP3   OH234370   6.450   1.083  17.899 -0.0439  0.2081  0.4356
 3392TIP3    H134371   6.531   1.095  17.948  0.0172  0.1156  0.3576
 3392TIP3    H234372   6.462   1.133  17.819  0.6353 -1.1789 -0.3753
 3393TIP3   OH234373   5.958   5.785  17.812 -0.1610  0.9420  0.4568
 3393TIP3    H134374   5.882   5.763  17.867  0.6581 -3.4078  0.1855
 3393TIP3    H234375   6.032   5.786  17.872  0.3050 -0.8071 -0.0183
 3394TIP3   OH234376   6.424   3.541  15.704 -0.0621  0.0781 -0.5690
 3394TIP3    H134377   6.402   3.501  15.788 -1.5582 -1.5333 -1.6551
 3394TIP3    H234378   6.417   3.635  15.720  1.4224 -0.0927  1.5272
 3395TIP3   OH234379   5.202   6.110  17.491 -0.8120  0.3260 -0.6559
 3395TIP3    H134380   5.207   6.018  17.517  0.9753  0.8353  1.0481
 3395TIP3    H234381   5.263   6.117  17.417 -2.3080 -0.1715 -1.9852
 3396TIP3   OH234382   0.490   1.702  17.129  0.0574 -0.3540 -0.4057
 3396TIP3    H134383   0.528   1.788  17.149 -0.6417  0.2399 -1.5084
 3396TIP3    H234384   0.494   1.654  17.212  1.3213  0.3975  0.0033
 3397TIP3   OH234385   5.206   6.604  15.741 -0.0628  0.3290 -0.8886
 3397TIP3    H134386   5.199   6.670  15.810 -1.3887 -0.2853 -0.4126
 3397TIP3    H234387   5.119   6.600  15.703  0.5064  0.2412 -2.2411
 3398TIP3   OH234388   2.676   0.257  17.674  0.0461 -0.5334  0.2081
 3398TIP3    H134389   2.726   0.333  17.704 -0.3554 -0.2218  0.0966
 3398TIP3    H234390   2.662   0.273  17.581 -0.2885 -0.5972  0.2454
 3399TIP3   OH234391   6.569   3.209  16.510 -0.4757  0.1009 -0.0935
 3399TIP3    H134392   6.531   3.267  16.576 -0.2667  0.3070 -0.1532
 3399TIP3    H234393   6.656   3.245  16.494 -1.2210  1.2618 -1.9333
 3400TIP3   OH234394   2.434   3.914  17.342 -0.3328  0.2041 -0.2180
 3400TIP3    H134395   2.528   3.916  17.358  0.1791 -2.0301 -2.2908
 3400TIP3    H234396   2.394   3.924  17.428  1.7243  2.2040  0.5956
 3401TIP3   OH234397   2.687   5.785  15.964  0.1198 -0.4057 -0.1591
 3401TIP3    H134398   2.692   5.824  15.877  1.8124  3.8319  1.5899
 3401TIP3    H234399   2.692   5.690  15.948 -0.3954  0.1027 -4.6086
 3402TIP3   OH234400   1.757   2.324  19.748  0.2762  0.3374 -0.3747
 3402TIP3    H134401   1.779   2.337  19.656  1.0095 -0.6648 -0.3568
 3402TIP3    H234402   1.829   2.364  19.796 -2.0053  4.6548 -0.0306
 3403TIP3   OH234403   3.077   4.633  17.654 -0.2900 -0.8496  0.4348
 3403TIP3    H134404   3.039   4.605  17.570 -0.7908  2.6780 -0.6715
 3403TIP3    H234405   3.010   4.689  17.692  1.5204  0.8899  1.2129
 3404TIP3   OH234406   0.266   0.249  16.865 -0.2614 -0.0264 -0.3545
 3404TIP3    H134407   0.324   0.308  16.817 -0.7236 -0.7374 -1.8499
 3404TIP3    H234408   0.301   0.161  16.847 -0.2329 -0.2901  0.9286
 3405TIP3   OH234409   0.492   6.489  18.190 -0.6568 -0.1707  0.1144
 3405TIP3    H134410   0.460   6.420  18.132 -0.2030  1.0087 -1.6029
 3405TIP3    H234411   0.453   6.570  18.156  0.5337  0.7064  0.7575
 3406TIP3   OH234412   0.144   3.316  17.577  0.5115 -0.4094 -0.3946
 3406TIP3    H134413   0.219   3.259  17.594  0.5893 -0.3335 -0.4845
 3406TIP3    H234414   0.099   3.275  17.502  1.5850  0.6359 -1.6476
 3407TIP3   OH234415   3.282   2.100  16.441 -0.3142 -0.0838  0.6008
 3407TIP3    H134416   3.244   2.149  16.368  1.2781  1.1336  0.5320
 3407TIP3    H234417   3.339   2.035  16.400 -1.6925 -1.4438  0.7246
 3408TIP3   OH234418   4.641   2.367  16.587 -0.4922  0.2023  0.0561
 3408TIP3    H134419   4.634   2.459  16.612 -0.9632  0.7952 -2.0303
 3408TIP3    H234420   4.551   2.334  16.594 -0.1078 -0.5374  2.1527
 3409TIP3   OH234421   5.896   0.613  18.033  0.0186 -0.1411  0.5755
 3409TIP3    H134422   5.835   0.687  18.035 -0.9675 -0.9373  1.8842
 3409TIP3    H234423   5.841   0.537  18.055  0.9392 -1.3225 -0.9775
 3410TIP3   OH234424   4.039   5.296  19.212 -0.3699 -0.0603 -0.2312
 3410TIP3    H134425   4.020   5.367  19.273 -0.8227  0.1911 -0.6521
 3410TIP3    H234426   4.122   5.259  19.242 -0.7068 -0.1050  0.6781
 3411TIP3   OH234427   4.614   5.130  17.340 -0.0636 -0.5998  0.3587
 3411TIP3    H134428   4.523   5.110  17.359 -0.1081 -1.1028 -0.3748
 3411TIP3    H234429   4.656   5.133  17.427 -0.7790 -0.3027  0.7015
 3412TIP3   OH234430   1.317   0.581  17.089  0.2399 -1.0242 -0.1679
 3412TIP3    H134431   1.227   0.575  17.121 -0.1133 -0.3786 -0.9823
 3412TIP3    H234432   1.365   0.514  17.138 -0.2485 -0.0793  1.6801
 3413TIP3   OH234433   2.411   0.587  18.085  0.0166  0.1434  0.3201
 3413TIP3    H134434   2.344   0.521  18.066 -0.4036  0.0735  1.9649
 3413TIP3    H234435   2.428   0.579  18.178  0.6168  1.7739  0.3857
 3414TIP3   OH234436   1.716   5.777  15.448  0.4352  0.0658  0.1097
 3414TIP3    H134437   1.703   5.775  15.542  1.4176 -0.4884  0.2509
 3414TIP3    H234438   1.720   5.684  15.422 -1.6819  0.1824 -0.7687
 3415TIP3   OH234439   5.830   3.825  17.701  0.8997 -0.4888 -0.0943
 3415TIP3    H134440   5.784   3.853  17.780 -1.5186 -2.5468 -0.6530
 3415TIP3    H234441   5.884   3.900  17.677  0.0733  0.9863  2.2841
 3416TIP3   OH234442   4.968   6.071  17.840 -0.2856  0.3914  0.2392
 3416TIP3    H134443   5.057   6.104  17.854  0.0213  0.7946 -2.2260
 3416TIP3    H234444   4.945   6.101  17.752 -2.0703 -1.4987 -0.0090
 3417TIP3   OH234445   3.903   3.218  19.235 -0.3510 -0.7507  0.4145
 3417TIP3    H134446   3.810   3.217  19.213 -0.4176 -1.1492  0.6895
 3417TIP3    H234447   3.926   3.311  19.240 -0.7278 -0.6505  0.3263
 3418TIP3   OH234448   0.957   0.945  18.254  0.1240 -0.3348 -0.5884
 3418TIP3    H134449   0.864   0.938  18.276  0.2273  1.8311  0.8488
 3418TIP3    H234450   0.976   1.039  18.261  2.9382 -0.9179  1.5431
 3419TIP3   OH234451   0.037   1.843  18.960 -0.1690 -0.3004 -0.1085
 3419TIP3    H134452   0.028   1.837  19.055 -1.0076  2.1921  0.0380
 3419TIP3    H234453  -0.017   1.771  18.926  1.4404 -2.2728  1.2318
 3420TIP3   OH234454   3.570   1.260  16.991 -0.5023 -0.2469  0.3255
 3420TIP3    H134455   3.497   1.217  17.036 -1.9638  2.1665  0.4420
 3420TIP3    H234456   3.533   1.341  16.958  1.7023  0.1803 -1.3167
 3421TIP3   OH234457   2.757   6.571  18.117 -0.1984  0.2961 -0.0359
 3421TIP3    H134458   2.733   6.644  18.175 -0.5852  0.1979 -0.0659
 3421TIP3    H234459   2.829   6.605  18.064  1.0237 -0.0390  1.3650
 3422TIP3   OH234460   4.821   1.383  16.260  0.1253  0.5024  0.1262
 3422TIP3    H134461   4.765   1.312  16.291  2.1270 -1.0768  0.3778
 3422TIP3    H234462   4.796   1.394  16.168 -0.1619 -0.6252  0.0460
 3423TIP3   OH234463   4.957   4.626  16.755  0.4205  0.4680  0.8198
 3423TIP3    H134464   5.024   4.594  16.695  0.2758  1.1983  0.2596
 3423TIP3    H234465   4.875   4.591  16.721  0.1124  2.2742 -0.4593
 3424TIP3   OH234466   3.003   4.427  18.180 -0.1290 -0.0688 -0.9149
 3424TIP3    H134467   2.987   4.489  18.251  1.1358 -0.2705 -0.4163
 3424TIP3    H234468   3.015   4.343  18.224 -1.2623 -0.5717 -1.5420
 3425TIP3   OH234469   1.638   6.197  17.921 -0.0167 -0.0482  0.1546
 3425TIP3    H134470   1.589   6.250  17.858 -1.3355 -1.0435  0.3023
 3425TIP3    H234471   1.730   6.223  17.907 -0.5895  2.3008  0.2781
 3426TIP3   OH234472   0.736   1.914  17.650 -0.0910 -0.6247 -0.2977
 3426TIP3    H134473   0.728   1.997  17.604 -0.8874 -0.8277 -0.5518
 3426TIP3    H234474   0.770   1.937  17.737 -2.4057  0.2767  0.4558
 3427TIP3   OH234475   4.278   6.667  18.724 -0.1608 -0.4186 -0.7454
 3427TIP3    H134476   4.243   6.606  18.788 -1.4073 -0.4774 -1.4462
 3427TIP3    H234477   4.316   6.738  18.776 -0.5085 -0.8029  0.0478
 3428TIP3   OH234478   0.713   6.340  17.471  0.1283  0.6495 -0.6342
 3428TIP3    H134479   0.630   6.322  17.515  0.2399  2.0220  0.1999
 3428TIP3    H234480   0.769   6.266  17.493 -0.3693  0.4850  0.1156
 3429TIP3   OH234481   6.653   0.816  16.952  0.2573 -0.1268  0.3198
 3429TIP3    H134482   6.668   0.753  17.022 -0.6282 -0.3395  0.3339
 3429TIP3    H234483   6.558   0.824  16.947  0.0067 -2.7227 -3.0935
 3430TIP3   OH234484   5.452   6.351  17.892  0.0899 -0.1794 -0.8418
 3430TIP3    H134485   5.501   6.311  17.964  0.1659  0.3039 -0.6210
 3430TIP3    H234486   5.466   6.292  17.818  0.4226 -0.4196 -0.5918
 3431TIP3   OH234487   3.127   4.381  16.401 -0.0129  0.7004  0.0521
 3431TIP3    H134488   3.196   4.443  16.376 -0.8243  0.9411 -1.7956
 3431TIP3    H234489   3.053   4.404  16.345 -0.7172 -1.2193  0.1128
 3432TIP3   OH234490   0.862   4.308  16.667 -0.0651  0.9121  0.5684
 3432TIP3    H134491   0.890   4.253  16.740  0.0897 -1.8042 -1.4165
 3432TIP3    H234492   0.853   4.248  16.593 -2.0857  3.2069 -1.2156
 3433TIP3   OH234493   0.408   6.188  16.469 -0.0266  0.2742  0.0044
 3433TIP3    H134494   0.421   6.170  16.376  1.6965  2.2524 -0.1987
 3433TIP3    H234495   0.335   6.250  16.472 -0.7509 -0.5578  0.0891
 3434TIP3   OH234496   4.923   3.374  17.540  0.0780 -0.1860 -0.6940
 3434TIP3    H134497   5.013   3.350  17.559  0.5814  0.8991 -1.6313
 3434TIP3    H234498   4.901   3.325  17.460 -0.4849 -1.1358  0.0138
 3435TIP3   OH234499   3.936   3.239  19.751  0.4975  0.6927 -0.2808
 3435TIP3    H134500   4.019   3.191  19.748  0.9333  1.4540 -0.8973
 3435TIP3    H234501   3.869   3.171  19.763  1.2175  0.0863  0.4065
 3436TIP3   OH234502   4.883   3.333  17.872 -0.1485  0.1460 -0.6557
 3436TIP3    H134503   4.931   3.402  17.917 -1.1385 -0.2276  1.0397
 3436TIP3    H234504   4.947   3.261  17.865  1.1802  1.4148 -3.2278
 3437TIP3   OH234505   6.219   6.312  15.843  0.3742 -0.1168  0.7099
 3437TIP3    H134506   6.158   6.357  15.902  0.7577  1.0746  0.2278
 3437TIP3    H234507   6.284   6.379  15.821 -0.1755 -0.2760 -1.6699
 3438TIP3   OH234508   0.104   0.591  17.440  0.6101 -0.2375  0.2471
 3438TIP3    H134509   0.072   0.632  17.521  1.1645  1.9104 -0.5413
 3438TIP3    H234510   0.196   0.617  17.436  1.0808 -1.8909 -0.1587
 3439TIP3   OH234511   6.146   1.303  16.649 -0.1532 -0.7539  0.2279
 3439TIP3    H134512   6.213   1.342  16.593 -1.0108  0.1669 -0.1780
 3439TIP3    H234513   6.076   1.277  16.589 -0.3444 -1.3203  0.6903
 3440TIP3   OH234514   2.650   6.208  17.495 -0.8783 -0.1573  0.4211
 3440TIP3    H134515   2.709   6.140  17.462 -1.6852 -0.7635  0.1926
 3440TIP3    H234516   2.600   6.235  17.418  0.5743  1.9222  0.1247
 3441TIP3   OH234517   6.382   4.507  18.537  0.4168  0.2548  0.4046
 3441TIP3    H134518   6.423   4.421  18.528  0.4379  0.3494 -0.4459
 3441TIP3    H234519   6.386   4.525  18.631  1.7508 -0.0199  0.4237
 3442TIP3   OH234520   6.582   0.094  18.628 -0.1971  0.0149 -0.6664
 3442TIP3    H134521   6.549   0.116  18.715  0.2443  1.6527 -0.8809
 3442TIP3    H234522   6.676   0.113  18.632  0.4012 -2.5826 -0.6977
 3443TIP3   OH234523   6.175   2.880  18.666  0.4450 -0.1696  0.3392
 3443TIP3    H134524   6.098   2.900  18.719  0.9312  0.3041  0.8674
 3443TIP3    H234525   6.162   2.789  18.638 -1.9078  0.8390 -2.2901
 3444TIP3   OH234526   6.399   0.347  16.886 -0.5468  0.1501 -0.1333
 3444TIP3    H134527   6.336   0.284  16.923 -0.8302  0.6601  0.2775
 3444TIP3    H234528   6.464   0.293  16.842  0.1335 -0.5338  1.6186
 3445TIP3   OH234529   3.234   3.213  16.429  0.9873  0.1768 -0.3735
 3445TIP3    H134530   3.219   3.132  16.381 -0.9065  0.0168  0.4018
 3445TIP3    H234531   3.193   3.281  16.375  2.9389  0.7304 -1.2338
 3446TIP3   OH234532   5.598   4.623  18.619 -0.2375  0.2308  0.2034
 3446TIP3    H134533   5.693   4.635  18.625 -0.0378 -1.2018  0.2704
 3446TIP3    H234534   5.562   4.711  18.625  1.1117  0.8392 -0.2825
 3447TIP3   OH234535   6.336   2.373  17.611  0.2719 -0.1604  0.0169
 3447TIP3    H134536   6.357   2.385  17.519 -0.8176  0.2061 -0.1967
 3447TIP3    H234537   6.241   2.361  17.613  0.4940 -2.0787  0.9074
 3448TIP3   OH234538   0.853   0.211  16.467 -0.6309 -0.3204  0.4294
 3448TIP3    H134539   0.853   0.131  16.414 -0.9867 -0.6379  0.8990
 3448TIP3    H234540   0.819   0.278  16.408 -0.6051 -0.5778  0.1163
 3449TIP3   OH234541   3.587   1.291  16.250 -0.4632  0.2848 -0.3523
 3449TIP3    H134542   3.543   1.220  16.298 -0.2129  0.7616  0.6021
 3449TIP3    H234543   3.676   1.259  16.236 -0.4362  0.2813 -0.1820
 3450TIP3   OH234544   0.958   1.339  18.091  0.2143 -0.3529 -0.0795
 3450TIP3    H134545   0.985   1.278  18.159  1.2512 -1.9854 -1.8628
 3450TIP3    H234546   1.009   1.419  18.108 -2.2976  0.7808  3.2155
 3451TIP3   OH234547   0.418   0.561  18.047 -0.0739 -0.4706  0.1360
 3451TIP3    H134548   0.473   0.625  18.001 -0.9417  1.0233  1.1196
 3451TIP3    H234549   0.338   0.556  17.995 -0.3520 -0.1130  0.5325
 3452TIP3   OH234550   1.920   3.874  16.424 -0.0164  0.1882  0.2886
 3452TIP3    H134551   1.901   3.963  16.395 -0.1832  0.3206  0.7911
 3452TIP3    H234552   1.862   3.818  16.373 -0.6502  0.4597  0.7035
 3453TIP3   OH234553   0.804   6.086  17.520  0.2315  0.1986  0.0430
 3453TIP3    H134554   0.861   6.028  17.469  0.5370  0.8404 -0.3638
 3453TIP3    H234555   0.861   6.122  17.588  0.0167 -0.0555  0.3593
 3454TIP3   OH234556   4.672   5.730  18.886  0.0848 -0.0817  0.3253
 3454TIP3    H134557   4.699   5.650  18.841 -0.2664  0.0256 -0.0824
 3454TIP3    H234558   4.742   5.747  18.949 -0.5897 -1.5738  1.5282
 3455TIP3   OH234559   4.900   2.049  17.376 -0.6729 -0.0485  0.6000
 3455TIP3    H134560   4.864   2.031  17.289 -0.1224  0.3757  0.2823
 3455TIP3    H234561   4.852   2.126  17.407  0.0483  0.6101  0.1125
 3456TIP3   OH234562   6.181   5.597  17.801 -0.1692 -0.0929  0.2464
 3456TIP3    H134563   6.154   5.560  17.717 -0.5355 -1.6211  0.9852
 3456TIP3    H234564   6.254   5.541  17.829  1.0813  1.4412  0.1929
 3457TIP3   OH234565   2.834   5.586  16.569  0.1740 -0.1667  0.1433
 3457TIP3    H134566   2.901   5.518  16.577 -0.4882 -0.8418  0.0802
 3457TIP3    H234567   2.879   5.659  16.527  0.8686 -0.6074  0.1023
 3458TIP3   OH234568   6.027   4.415  19.034  0.4966 -0.3023  0.3029
 3458TIP3    H134569   5.983   4.487  18.988  1.8270 -0.1003 -0.7134
 3458TIP3    H234570   5.956   4.360  19.066 -0.5463 -0.6188 -2.2661
 3459TIP3   OH234571   2.143   0.742  17.369  0.0098 -0.8035 -0.0862
 3459TIP3    H134572   2.186   0.723  17.286 -0.9042 -1.7827 -0.3599
 3459TIP3    H234573   2.050   0.737  17.350 -0.3426  2.6618  0.1737
 3460TIP3   OH234574   5.644   2.257  16.696 -0.5860  0.5064 -0.3093
 3460TIP3    H134575   5.626   2.227  16.607 -0.9251  0.7378 -0.3191
 3460TIP3    H234576   5.558   2.277  16.733 -0.9579 -3.6172  1.5366
 3461TIP3   OH234577   6.680   3.226  17.882  0.0160 -0.2421  0.4654
 3461TIP3    H134578   6.670   3.133  17.862  2.6529 -0.2240 -1.4735
 3461TIP3    H234579   6.650   3.234  17.973 -0.1651 -2.9990  0.7348
 3462TIP3   OH234580   3.682   4.642  19.162 -0.9389  0.0622 -0.0209
 3462TIP3    H134581   3.688   4.575  19.093 -1.1453  0.5061 -0.4788
 3462TIP3    H234582   3.677   4.724  19.114 -0.6887  0.4054  0.5446
 3463TIP3   OH234583   0.837   0.947  16.838  0.2532  0.1631  0.0937
 3463TIP3    H134584   0.836   1.006  16.763  1.4023  1.3851  1.0005
 3463TIP3    H234585   0.902   0.881  16.816  1.1480  0.9531  0.3055
 3464TIP3   OH234586   3.934   0.088  18.471  0.3482  0.3403 -0.0215
 3464TIP3    H134587   3.963   0.010  18.423 -0.2127 -0.6623  1.2463
 3464TIP3    H234588   3.967   0.161  18.418  0.4634 -0.7326 -1.4925
 3465TIP3   OH234589   3.439   0.292  18.041  0.4261  0.1870 -0.3335
 3465TIP3    H134590   3.472   0.338  17.963  2.3474 -1.2947 -0.4885
 3465TIP3    H234591   3.393   0.216  18.006 -0.7321  0.7383 -0.0394
 3466TIP3   OH234592   4.054   4.647  19.140  0.0984  1.1369 -0.1658
 3466TIP3    H134593   3.991   4.718  19.129  0.2965  1.3454  0.0095
 3466TIP3    H234594   4.021   4.596  19.214  0.2789  1.4077  0.1046
 3467TIP3   OH234595   5.134   6.461  18.241 -0.0093 -0.0566 -0.3521
 3467TIP3    H134596   5.194   6.514  18.189 -1.2947  1.2094 -0.6398
 3467TIP3    H234597   5.050   6.469  18.195 -0.7556 -0.4302  0.9079
 3468TIP3   OH234598   0.839   4.503  17.655 -0.0636 -0.9200 -0.4864
 3468TIP3    H134599   0.902   4.468  17.719  0.1614 -0.4592 -0.4503
 3468TIP3    H234600   0.893   4.552  17.593 -0.6069  2.3459  1.3694
 3469TIP3   OH234601   4.023   5.710  19.154 -0.6899  0.1570  0.0827
 3469TIP3    H134602   4.059   5.772  19.218 -0.7285  1.2613 -0.9306
 3469TIP3    H234603   3.969   5.764  19.097  0.6800 -0.4745 -1.9127
 3470TIP3   OH234604   1.813   1.129  17.594  0.1801 -0.1281 -0.8429
 3470TIP3    H134605   1.832   1.043  17.555  1.4020  0.9784 -2.8276
 3470TIP3    H234606   1.720   1.143  17.577 -0.6134 -1.9098  1.4140
 3471TIP3   OH234607   2.366   3.480  18.590  0.4956  0.0927 -0.1610
 3471TIP3    H134608   2.295   3.537  18.561  0.5654 -0.1931 -0.9128
 3471TIP3    H234609   2.430   3.482  18.519  0.2235 -1.3741 -0.4766
 3472TIP3   OH234610   0.207   5.433  16.449  0.2916  0.5418 -0.5352
 3472TIP3    H134611   0.214   5.515  16.400  1.4499  0.5851 -0.3316
 3472TIP3    H234612   0.288   5.429  16.500  0.3320 -0.8099 -0.6776
 3473TIP3   OH234613   3.149   5.588  17.356  0.2299 -0.0150  0.5868
 3473TIP3    H134614   3.206   5.628  17.421  0.4663 -0.4101  0.6250
 3473TIP3    H234615   3.060   5.604  17.389  0.3585 -2.0578  2.1800
 3474TIP3   OH234616   5.128   2.107  18.319 -0.0984  0.2119  0.1126
 3474TIP3    H134617   5.151   2.143  18.233 -0.4377  0.0021 -0.0713
 3474TIP3    H234618   5.204   2.124  18.374  0.4734 -0.4287 -0.4688
 3475TIP3   OH234619   1.525   2.900  16.297  0.0344 -0.4196  0.3935
 3475TIP3    H134620   1.617   2.875  16.307  0.0612 -0.3009  0.4431
 3475TIP3    H234621   1.518   2.934  16.208 -0.0275 -0.7111  0.2861
 3476TIP3   OH234622   0.721   4.957  18.542  0.2505  0.5268 -0.3735
 3476TIP3    H134623   0.627   4.953  18.525  0.1970  0.7754 -0.1390
 3476TIP3    H234624   0.761   4.947  18.455 -0.0609  3.3309 -0.9454
 3477TIP3   OH234625   5.922   4.036  16.907 -0.0949 -0.2564  0.7408
 3477TIP3    H134626   5.908   4.116  16.958 -0.6620  0.0331  0.1484
 3477TIP3    H234627   5.884   3.967  16.960 -1.1116  0.1087  0.5122
 3478TIP3   OH234628   2.118   2.408  16.919 -0.4528  0.2173 -0.0072
 3478TIP3    H134629   2.110   2.366  16.834 -0.7550  0.6129 -0.1761
 3478TIP3    H234630   2.122   2.502  16.900  0.2033  0.2677  0.3712
 3479TIP3   OH234631   5.136   5.623  18.945  0.0304 -0.1942  0.3170
 3479TIP3    H134632   5.193   5.694  18.976 -1.2918  0.1318  2.1416
 3479TIP3    H234633   5.097   5.658  18.865  0.3003  0.6757  0.5465
 3480TIP3   OH234634   6.568   1.621  17.101  0.6693 -0.1625  0.7642
 3480TIP3    H134635   6.559   1.599  17.194 -1.0536 -2.2301  0.1863
 3480TIP3    H234636   6.493   1.678  17.082  0.0217 -1.1265  0.3159
 3481TIP3   OH234637   2.903   1.244  17.011  0.3766  0.3255  0.4414
 3481TIP3    H134638   2.920   1.338  16.999 -0.7292  0.6575  1.3047
 3481TIP3    H234639   2.828   1.241  17.070  0.0753 -1.1052  0.0168
 3482TIP3   OH234640   3.304   1.555  17.479 -0.0732  0.2596  0.3356
 3482TIP3    H134641   3.296   1.643  17.443  1.2506 -0.2156 -1.2276
 3482TIP3    H234642   3.268   1.498  17.411 -0.7839 -0.4394  1.2673
 3483TIP3   OH234643   0.579   1.637  19.071  0.0262 -0.1558  0.1083
 3483TIP3    H134644   0.560   1.657  18.979 -1.3677 -1.8897 -0.0457
 3483TIP3    H234645   0.623   1.552  19.067 -1.0750 -0.7901  1.0956
 3484TIP3   OH234646   0.219   6.043  15.769  0.1796 -0.1304 -0.0384
 3484TIP3    H134647   0.149   6.056  15.705 -2.7020  0.1221  2.9317
 3484TIP3    H234648   0.221   5.948  15.783  0.2944 -0.1137  0.0596
 3485TIP3   OH234649   1.499   5.778  17.525  0.1114  0.1769  0.4900
 3485TIP3    H134650   1.568   5.720  17.493  0.0961 -0.1587  1.0569
 3485TIP3    H234651   1.460   5.731  17.599 -1.9890 -0.4825 -0.9494
 3486TIP3   OH234652   4.704   5.921  19.382  0.4567 -0.0344 -0.0670
 3486TIP3    H134653   4.794   5.927  19.352  1.6733 -1.5236  2.8123
 3486TIP3    H234654   4.674   5.836  19.351  0.1253  0.3453 -0.7966
 3487TIP3   OH234655   0.224   4.775  17.999  0.0702 -0.2482  0.3102
 3487TIP3    H134656   0.131   4.751  18.006 -0.0102  0.3541  1.7787
 3487TIP3    H234657   0.263   4.739  18.079  1.0825 -0.3759 -0.2291
 3488TIP3   OH234658   2.438   1.762  16.195 -0.2525  0.4403  0.6248
 3488TIP3    H134659   2.492   1.771  16.273  1.4658 -1.2778 -0.2876
 3488TIP3    H234660   2.415   1.669  16.192 -1.0316  0.6470 -0.4424
 3489TIP3   OH234661   6.632   5.061  19.042 -0.4203 -0.0135 -0.1796
 3489TIP3    H134662   6.680   5.130  19.088 -0.6037  2.5876 -3.5529
 3489TIP3    H234663   6.545   5.098  19.026 -0.9645 -1.5487 -1.0083
 3490TIP3   OH234664   1.599   2.076  17.785  0.1997  0.4528 -0.5486
 3490TIP3    H134665   1.630   1.997  17.741  2.0126  0.8054  0.0024
 3490TIP3    H234666   1.663   2.090  17.855  0.0626  2.5507 -0.8022
 3491TIP3   OH234667   1.235   3.485  17.988  0.8220  0.1768 -0.0655
 3491TIP3    H134668   1.290   3.498  17.911  1.2942  1.5421  0.4712
 3491TIP3    H234669   1.293   3.447  18.054  1.0064  1.0657  0.3075
 3492TIP3   OH234670   4.626   4.484  16.095  0.0057 -0.1978  0.1974
 3492TIP3    H134671   4.560   4.541  16.058  0.3054  1.1913  1.6813
 3492TIP3    H234672   4.709   4.529  16.079  0.2487 -0.1878  1.3880
 3493TIP3   OH234673   5.393   4.835  17.261  0.1711 -0.1564  0.4046
 3493TIP3    H134674   5.400   4.857  17.169 -0.4630  0.1710  0.4264
 3493TIP3    H234675   5.372   4.918  17.305 -0.6930 -0.5061  0.6840
 3494TIP3   OH234676   3.193   5.122  19.009 -0.6978 -0.2805 -0.4708
 3494TIP3    H134677   3.152   5.038  19.024  1.6484 -1.6906 -1.3947
 3494TIP3    H234678   3.167   5.176  19.083 -2.2015 -1.8329  0.1735
 3495TIP3   OH234679   6.201   2.880  19.408  0.0952  0.2966  0.2094
 3495TIP3    H134680   6.108   2.884  19.431 -0.4862  0.5277 -1.9669
 3495TIP3    H234681   6.229   2.971  19.402  0.4813  0.2283  0.8530
 3496TIP3   OH234682   3.217   0.799  17.639  0.0210  0.1940 -0.2193
 3496TIP3    H134683   3.263   0.844  17.710  1.2495 -0.0921 -0.8000
 3496TIP3    H234684   3.255   0.836  17.559 -0.8893  0.0566 -0.7322
 3497TIP3   OH234685   4.088   0.180  18.165  0.5095  0.0159 -0.3073
 3497TIP3    H134686   4.059   0.101  18.210  0.5559  0.1125 -0.1070
 3497TIP3    H234687   4.068   0.251  18.226  2.6929 -0.0629  0.5952
 3498TIP3   OH234688   5.463   2.809  19.399 -0.3368 -0.6658  0.3146
 3498TIP3    H134689   5.392   2.810  19.334 -1.1352 -0.0323  1.1735
 3498TIP3    H234690   5.497   2.720  19.396  0.7164 -0.2730 -2.0949
 3499TIP3   OH234691   4.909   4.985  17.057 -0.0149  0.3268 -0.1505
 3499TIP3    H134692   4.847   4.999  16.986  0.2105  0.9753 -0.2249
 3499TIP3    H234693   4.910   4.890  17.070 -0.1241  0.2102 -0.9590
 3500TIP3   OH234694   2.145   0.748  18.724  0.4766 -0.8332 -0.4408
 3500TIP3    H134695   2.237   0.772  18.724  0.4602 -0.6960  0.7571
 3500TIP3    H234696   2.099   0.829  18.746  0.2671 -1.4315  1.4566
 3501TIP3   OH234697   5.534   2.894  17.195  0.1221 -0.1572  0.0746
 3501TIP3    H134698   5.503   2.982  17.172  0.3592  0.3760  1.6825
 3501TIP3    H234699   5.579   2.864  17.116 -2.1715  0.0844 -1.4311
 3502TIP3   OH234700   0.713   6.413  18.568 -0.5368 -0.4493  0.4747
 3502TIP3    H134701   0.722   6.449  18.657 -0.0106 -1.1369  0.7128
 3502TIP3    H234702   0.626   6.439  18.540  0.2704  2.1925  0.0940
 3503TIP3   OH234703   1.553   5.226  17.944  0.1334  0.1737 -0.1346
 3503TIP3    H134704   1.476   5.249  17.995  0.3746  1.0156 -0.1337
 3503TIP3    H234705   1.621   5.286  17.975  1.0765 -1.2211  0.5836
 3504TIP3   OH234706   4.483   4.311  19.453 -0.7057  0.8135  0.6243
 3504TIP3    H134707   4.429   4.323  19.375 -2.3111 -0.3215  1.5092
 3504TIP3    H234708   4.434   4.248  19.506  1.6730 -0.5788  1.3074
 3505TIP3   OH234709   2.801   1.573  17.248  0.3290  0.1263  0.2783
 3505TIP3    H134710   2.760   1.555  17.333 -0.5347 -3.1317 -0.6924
 3505TIP3    H234711   2.734   1.621  17.199 -0.5301 -1.0098  0.3099
 3506TIP3   OH234712   5.676   1.156  18.309 -0.2545 -0.1166 -0.5991
 3506TIP3    H134713   5.638   1.072  18.283 -1.6876  0.1756  0.4370
 3506TIP3    H234714   5.771   1.141  18.307 -0.4425 -1.3511 -1.7015
 3507TIP3   OH234715   1.093   5.675  18.177  0.0956  0.4289 -0.3355
 3507TIP3    H134716   1.165   5.725  18.140 -0.1550  1.6907  0.7745
 3507TIP3    H234717   1.044   5.642  18.102  1.2571  0.4002 -1.0872
 3508TIP3   OH234718   1.306   4.754  17.427 -0.1862 -0.1961 -0.6354
 3508TIP3    H134719   1.269   4.841  17.416 -1.0406 -0.4187  0.3756
 3508TIP3    H234720   1.350   4.736  17.343 -0.1459  1.1180 -0.9105
 3509TIP3   OH234721   5.776   6.194  16.141 -0.0116  0.0266  0.2788
 3509TIP3    H134722   5.756   6.118  16.087  0.3100 -0.4607  0.8318
 3509TIP3    H234723   5.808   6.260  16.080 -0.1576 -0.3371 -0.1893
 3510TIP3   OH234724   4.776   4.756  19.135 -0.0493 -0.6579 -0.0846
 3510TIP3    H134725   4.684   4.776  19.152 -0.0773 -1.8909  1.4227
 3510TIP3    H234726   4.775   4.704  19.055 -0.5407  0.2303 -0.6749
 3511TIP3   OH234727   4.044   3.282  18.882 -0.1551 -0.1240  0.1479
 3511TIP3    H134728   4.086   3.308  18.964 -1.7990  0.7249  0.7680
 3511TIP3    H234729   4.083   3.197  18.860  0.5604 -0.1936  1.6065
 3512TIP3   OH234730   1.940   3.581  19.323  0.2512 -1.0136  0.3442
 3512TIP3    H134731   1.971   3.617  19.240 -0.0612 -0.7497  0.3399
 3512TIP3    H234732   1.915   3.490  19.302 -1.4859 -0.4529 -0.2708
 3513TIP3   OH234733   1.671   0.815  18.304 -0.4763  0.2068 -0.6338
 3513TIP3    H134734   1.595   0.768  18.270  0.0173 -0.6201 -0.6220
 3513TIP3    H234735   1.715   0.752  18.361 -0.6951  1.2211  0.6879
 3514TIP3   OH234736   2.743   0.138  17.969 -0.0563 -0.1750 -0.5383
 3514TIP3    H134737   2.756   0.157  18.062 -0.1432 -0.3843 -0.4838
 3514TIP3    H234738   2.665   0.082  17.967 -0.9993  1.0917 -0.8552
 3515TIP3   OH234739   0.040   6.577  17.251  0.4111  0.0334  0.2564
 3515TIP3    H134740  -0.036   6.552  17.305 -1.2325  0.3258 -1.7896
 3515TIP3    H234741   0.057   6.501  17.196  0.4361  0.5983 -0.5351
 3516TIP3   OH234742   5.951   4.947  16.548  0.3301 -0.1436 -0.2985
 3516TIP3    H134743   5.892   5.003  16.498  0.4110 -0.4079 -0.7009
 3516TIP3    H234744   5.987   4.886  16.483 -0.9750 -1.7158  0.3797
 3517TIP3   OH234745   1.041   0.005  16.709 -0.5794  0.3353 -0.3367
 3517TIP3    H134746   1.097  -0.015  16.634  0.2286  0.5197  0.1973
 3517TIP3    H234747   1.073   0.089  16.742 -1.5983  0.7531 -0.3998
 3518TIP3   OH234748   2.267   1.959  18.600 -0.7258 -0.0131 -0.6591
 3518TIP3    H134749   2.255   1.865  18.591 -0.2307 -0.0188 -1.3138
 3518TIP3    H234750   2.217   1.983  18.678 -1.5199 -0.6885 -0.9590
 3519TIP3   OH234751   2.133   0.770  17.864  0.4511 -0.2227  0.4322
 3519TIP3    H134752   2.094   0.790  17.949  1.0683  0.5789  0.5421
 3519TIP3    H234753   2.099   0.838  17.805 -2.5032 -2.5339 -0.7985
 3520TIP3   OH234754   1.677   0.621  16.484 -0.1867 -0.0942 -0.0387
 3520TIP3    H134755   1.664   0.701  16.432 -1.5391  0.2538  0.7645
 3520TIP3    H234756   1.600   0.568  16.466  1.3662 -1.9209 -1.6694
 3521TIP3   OH234757   6.317   2.048  16.910  0.2982 -0.1055  0.1003
 3521TIP3    H134758   6.254   2.065  16.840 -1.8956 -3.0407  1.1201
 3521TIP3    H234759   6.301   2.117  16.975 -0.1547  0.5613 -0.7054
 3522TIP3   OH234760   0.158   0.087  16.297  0.1772 -0.4548  0.6453
 3522TIP3    H134761   0.215   0.148  16.250  0.7673 -0.8801  0.8059
 3522TIP3    H234762   0.173   0.107  16.389 -0.7360  0.1566  0.6682
 3523TIP3   OH234763   5.199   0.388  16.747 -0.3426  0.3489 -0.7213
 3523TIP3    H134764   5.279   0.385  16.799  0.2075 -0.4906 -1.5633
 3523TIP3    H234765   5.151   0.309  16.772 -0.3858  0.2830 -1.0056
 3524TIP3   OH234766   1.673   4.168  17.839 -0.4739 -0.5201  0.0346
 3524TIP3    H134767   1.606   4.221  17.883  0.0758  0.8108 -0.6872
 3524TIP3    H234768   1.723   4.129  17.911  0.2707  1.4390  0.6540
 3525TIP3   OH234769   5.901   3.144  17.636  0.1542 -0.6829 -0.6254
 3525TIP3    H134770   5.825   3.132  17.579  0.2235  0.2946 -0.9424
 3525TIP3    H234771   5.934   3.055  17.651 -3.1997 -1.6874  2.5414
 3526TIP3   OH234772   4.093   2.574  18.356  0.7542 -0.1496  0.0906
 3526TIP3    H134773   4.076   2.654  18.405  3.2233 -0.1670  1.1326
 3526TIP3    H234774   4.111   2.508  18.423  0.7810 -1.0636 -0.7844
 3527TIP3   OH234775   5.033   1.815  17.407 -0.4610 -0.1094  0.1174
 3527TIP3    H134776   4.969   1.765  17.458  0.7551 -0.6438  1.2126
 3527TIP3    H234777   4.992   1.899  17.391 -2.2491 -1.1447 -1.0600
 3528TIP3   OH234778   0.006   0.615  17.157  0.1320  0.1077  0.4836
 3528TIP3    H134779   0.051   0.648  17.234 -0.3882 -1.9098  1.7355
 3528TIP3    H234780   0.070   0.561  17.112 -0.4463 -1.3439  1.3186
 3529TIP3   OH234781   2.275   6.594  18.604 -0.2540  0.7669 -0.0110
 3529TIP3    H134782   2.345   6.558  18.550  2.3078  0.4119  3.2286
 3529TIP3    H234783   2.262   6.683  18.571  1.0174  0.4985 -1.3361
 3530TIP3   OH234784   1.646   3.967  19.013  0.2022 -0.0716  0.6098
 3530TIP3    H134785   1.619   3.908  18.942  0.4121 -1.2512  1.4945
 3530TIP3    H234786   1.576   4.032  19.017  0.5108  0.4229 -1.1153
 3531TIP3   OH234787   4.624   1.625  19.284 -0.0983 -0.5020 -0.3509
 3531TIP3    H134788   4.687   1.678  19.235 -0.3043 -0.3120 -0.4105
 3531TIP3    H234789   4.598   1.680  19.358  0.3542 -0.8605  0.0808
 3532TIP3   OH234790   2.238   1.963  18.119 -0.0554 -0.2859  0.2320
 3532TIP3    H134791   2.191   1.881  18.100  1.8698 -1.1431 -1.2502
 3532TIP3    H234792   2.173   2.019  18.161 -1.9128 -1.9796 -0.2144
 3533TIP3   OH234793   1.446   4.138  18.337  1.0491  0.3892  0.2483
 3533TIP3    H134794   1.510   4.206  18.363 -1.1841  2.0032  1.9511
 3533TIP3    H234795   1.372   4.187  18.303 -0.7899 -1.1434  1.8409
 3534TIP3   OH234796   4.102   0.501  17.518  0.0760 -0.6455  0.0283
 3534TIP3    H134797   4.142   0.416  17.536  0.7441 -0.3253  0.0745
 3534TIP3    H234798   4.100   0.546  17.603  1.0695 -0.0549 -0.2390
 3535TIP3   OH234799   4.099   1.981  16.381  0.1818  0.2394 -0.1940
 3535TIP3    H134800   4.039   1.934  16.323 -0.4630  0.4398  0.2986
 3535TIP3    H234801   4.174   1.922  16.389  0.1777  0.1038 -1.0275
 3536TIP3   OH234802   1.635   0.031  16.855  0.1183 -0.2444  0.2512
 3536TIP3    H134803   1.562   0.031  16.918  1.1104 -1.8124  1.4899
 3536TIP3    H234804   1.712   0.048  16.909  0.7489  0.8686 -0.9595
 3537TIP3   OH234805   2.028   1.019  19.001  0.3559  0.0923 -0.3015
 3537TIP3    H134806   1.997   1.010  19.091 -2.0303 -1.4845 -1.1731
 3537TIP3    H234807   2.092   0.949  18.990  0.7439  0.3651  0.1659
 3538TIP3   OH234808   4.992   5.302  16.088 -0.2251  0.0904  0.3493
 3538TIP3    H134809   4.913   5.303  16.141  0.4943  0.5487  1.4515
 3538TIP3    H234810   4.992   5.216  16.046 -1.5159  0.2527 -0.0171
 3539TIP3   OH234811   1.660   2.579  17.578 -0.4191  0.7142  0.1698
 3539TIP3    H134812   1.582   2.526  17.559 -1.9089  2.5111  0.8795
 3539TIP3    H234813   1.731   2.516  17.589 -1.2062 -0.8809 -2.9155
 3540TIP3   OH234814   2.090   3.596  19.067  0.0989  0.2350  0.2608
 3540TIP3    H134815   2.102   3.502  19.056 -1.5766 -0.0716  0.8265
 3540TIP3    H234816   2.079   3.629  18.977 -2.6445 -0.6386  0.2009
 3541TIP3   OH234817   3.449   2.098  19.411  0.4752  0.3086 -0.3861
 3541TIP3    H134818   3.439   2.095  19.316 -0.8337  1.4586 -0.3360
 3541TIP3    H234819   3.543   2.109  19.425  0.7213 -0.1830 -1.5277
 3542TIP3   OH234820   0.476   2.524  16.409  0.1426  0.2889  0.1880
 3542TIP3    H134821   0.437   2.575  16.339 -0.4278  0.5109  0.6589
 3542TIP3    H234822   0.465   2.433  16.382 -2.5081  0.2174  1.1803
 3543TIP3   OH234823   3.817   3.293  16.925 -0.7975 -0.0396  0.0750
 3543TIP3    H134824   3.786   3.342  16.849 -0.3426 -0.8245 -0.6310
 3543TIP3    H234825   3.820   3.202  16.896  1.8485 -0.0630  0.1932
 3544TIP3   OH234826   5.485   1.004  16.724  0.8599 -0.3489  0.4169
 3544TIP3    H134827   5.579   0.994  16.737  1.4639  1.6330 -1.7204
 3544TIP3    H234828   5.468   1.096  16.745 -0.2684 -0.2506 -0.7736
 3545TIP3   OH234829   0.160   1.854  18.649 -0.3991  0.2819 -0.1713
 3545TIP3    H134830   0.189   1.888  18.564 -3.4924 -1.6498 -2.2014
 3545TIP3    H234831   0.112   1.926  18.689  0.3998  0.9474 -0.3773
 3546TIP3   OH234832   3.903   5.665  16.859  0.1338  0.0076  0.8122
 3546TIP3    H134833   3.863   5.732  16.914  0.0254  1.5781 -1.0599
 3546TIP3    H234834   3.850   5.587  16.873 -1.1951  0.9721  1.3159
 3547TIP3   OH234835   4.844   4.537  17.831  0.1489  0.1336  0.3825
 3547TIP3    H134836   4.916   4.597  17.812 -0.9089  1.4105  0.2641
 3547TIP3    H234837   4.798   4.527  17.748  0.6918 -1.4089  0.2351
 3548TIP3   OH234838   0.076   4.882  18.701  0.1875 -0.6049 -0.0069
 3548TIP3    H134839   0.010   4.911  18.638 -1.5813 -0.4063  1.8294
 3548TIP3    H234840   0.075   4.787  18.695 -1.8449 -0.7471  1.3961
 3549TIP3   OH234841   3.470   5.685  16.999 -0.0898 -0.2526 -0.3545
 3549TIP3    H134842   3.556   5.646  16.983  0.1788 -0.5119  1.4468
 3549TIP3    H234843   3.430   5.627  17.064 -1.0679  0.6102 -0.1620
 3550TIP3   OH234844   0.832   1.263  16.395  0.7415 -0.6235 -0.4237
 3550TIP3    H134845   0.856   1.355  16.406  0.8793 -0.7025 -0.0416
 3550TIP3    H234846   0.737   1.264  16.382  0.7283 -0.4353 -0.3140
 3551TIP3   OH234847   1.333   6.018  17.534 -0.3198  0.1667  0.8132
 3551TIP3    H134848   1.379   5.935  17.549  0.7695  0.6524  0.2932
 3551TIP3    H234849   1.282   6.003  17.454  0.2462  0.1300  0.4494
 3552TIP3   OH234850   6.135   5.424  19.419 -0.3434  0.8118 -0.2459
 3552TIP3    H134851   6.067   5.357  19.429 -0.4841  0.9587 -0.2168
 3552TIP3    H234852   6.089   5.500  19.385 -0.9627  2.2035  3.3159
 3553TIP3   OH234853   1.754   5.105  17.727  0.4801 -0.1110  0.7236
 3553TIP3    H134854   1.687   5.080  17.791  0.5227 -0.4668  0.6311
 3553TIP3    H234855   1.739   5.198  17.711  0.0321 -0.1815  0.7325
 3554TIP3   OH234856   4.816   1.776  16.014  0.1988  0.2456  0.6639
 3554TIP3    H134857   4.780   1.864  16.013 -2.4638 -0.7370  1.4902
 3554TIP3    H234858   4.828   1.754  15.921 -2.0766  0.4378  0.2622
 3555TIP3   OH234859   3.415   4.512  16.494 -0.5355 -0.0311  0.5549
 3555TIP3    H134860   3.449   4.429  16.461 -0.6386  0.9783 -2.5069
 3555TIP3    H234861   3.473   4.578  16.454 -1.1751  1.4293  1.9281
 3556TIP3   OH234862   2.961   2.101  16.148 -0.4118  0.0120 -0.0138
 3556TIP3    H134863   3.055   2.101  16.132 -0.2998 -0.2810  0.6101
 3556TIP3    H234864   2.924   2.052  16.075  0.0689 -1.1597  0.5036
 3557TIP3   OH234865   0.975   6.377  16.290  0.1552  0.3505 -0.1697
 3557TIP3    H134866   0.962   6.380  16.195  0.4578 -0.2100 -0.2311
 3557TIP3    H234867   0.957   6.467  16.320 -1.5561  0.1748 -0.5535
 3558TIP3   OH234868   1.241   1.815  18.728 -0.2898  0.2555 -1.0694
 3558TIP3    H134869   1.331   1.800  18.756 -0.0991 -1.3382 -2.3696
 3558TIP3    H234870   1.243   1.899  18.683  0.2831  0.7825 -0.0850
 3559TIP3   OH234871   3.632   3.881  17.637 -0.0686  0.1366  0.7790
 3559TIP3    H134872   3.579   3.846  17.565 -1.5497 -0.5072  2.1185
 3559TIP3    H234873   3.706   3.820  17.644 -0.2430 -0.1459  0.2167
 3560TIP3   OH234874   4.727   5.669  17.166  0.1144 -0.4190  0.4271
 3560TIP3    H134875   4.650   5.666  17.110  0.6015  3.3342 -0.7075
 3560TIP3    H234876   4.789   5.607  17.126 -1.5702 -2.1227  0.3147
 3561TIP3   OH234877   3.455   2.391  18.812  0.1716  0.1779 -0.2607
 3561TIP3    H134878   3.375   2.395  18.760  0.9578  1.7236 -1.4215
 3561TIP3    H234879   3.431   2.340  18.890 -2.1858  1.3306 -0.1525
 3562TIP3   OH234880   0.445   2.655  18.240 -0.2198  0.2749 -0.1998
 3562TIP3    H134881   0.519   2.673  18.298 -0.1119 -2.7405  0.7513
 3562TIP3    H234882   0.484   2.629  18.157 -0.2491 -0.1089 -0.0926
 3563TIP3   OH234883   5.055   3.064  17.888 -0.3431 -0.1527 -0.4093
 3563TIP3    H134884   5.056   2.990  17.950  0.7022  0.2723  0.1029
 3563TIP3    H234885   5.123   3.043  17.824  1.0234  1.0190  0.5755
 3564TIP3   OH234886   1.332   5.558  19.079  0.1110 -0.1590  0.1943
 3564TIP3    H134887   1.359   5.629  19.021 -1.3098 -1.2648 -1.9373
 3564TIP3    H234888   1.388   5.568  19.156 -0.5324  3.7084  0.3602
 3565TIP3   OH234889   1.342   0.100  19.310 -0.1407  0.6499  0.0651
 3565TIP3    H134890   1.309   0.059  19.230 -0.0901  0.8850 -0.0758
 3565TIP3    H234891   1.424   0.054  19.328 -2.0568 -2.2983  2.2658
 3566TIP3   OH234892   2.136   0.616  15.358  0.3329 -0.3153 -0.2585
 3566TIP3    H134893   2.183   0.637  15.439 -0.7245 -2.5522  1.0376
 3566TIP3    H234894   2.205   0.598  15.294  1.3400 -2.6307  1.3380
 3567TIP3   OH234895   0.397   1.652  17.653 -0.2203  0.3225  0.5279
 3567TIP3    H134896   0.422   1.744  17.659  0.4470  0.1801  0.0508
 3567TIP3    H234897   0.334   1.649  17.581  0.0168  0.3559  0.3184
 3568TIP3   OH234898   3.918   4.863  19.042 -0.2309  0.4541 -0.0448
 3568TIP3    H134899   3.824   4.877  19.049 -0.7082 -1.4619 -1.6422
 3568TIP3    H234900   3.929   4.815  18.960  2.1813  0.8809 -0.0506
 3569TIP3   OH234901   6.559   4.571  18.749 -0.4122 -0.2387  0.1443
 3569TIP3    H134902   6.473   4.540  18.779 -1.2051  0.6044 -1.1417
 3569TIP3    H234903   6.620   4.541  18.816 -1.8142 -0.1836  1.5136
 3570TIP3   OH234904   5.991   0.328  18.284  0.0888 -0.0113  0.5580
 3570TIP3    H134905   6.066   0.369  18.243  0.3595  0.6173  1.6368
 3570TIP3    H234906   5.945   0.284  18.212  1.1075  0.1577 -0.2198
 3571TIP3   OH234907   6.026   1.436  17.675  0.2351  0.0801  0.8455
 3571TIP3    H134908   5.968   1.360  17.676  1.6450 -1.0694 -0.3277
 3571TIP3    H234909   6.054   1.446  17.766 -1.4830  0.4643  1.3797
 3572TIP3   OH234910   5.821   1.405  19.328 -0.0456 -0.3889 -0.4338
 3572TIP3    H134911   5.800   1.313  19.342 -0.6728 -0.0849  0.6916
 3572TIP3    H234912   5.882   1.427  19.399 -2.8960  1.0401  1.7405
 3573TIP3   OH234913   3.731   1.795  19.483  0.2015 -0.3209 -0.0242
 3573TIP3    H134914   3.768   1.872  19.526 -2.6493  0.8543  0.5628
 3573TIP3    H234915   3.786   1.782  19.406  3.8850 -0.9184  2.4778
 3574TIP3   OH234916   4.014   1.692  16.938 -0.1086 -0.2058  0.2465
 3574TIP3    H134917   3.966   1.622  16.893  1.3991 -0.5748 -0.8807
 3574TIP3    H234918   4.089   1.648  16.977  0.0020  0.5460  0.9005
 3575TIP3   OH234919   6.486   0.105  19.209 -0.2560  0.6480 -0.2754
 3575TIP3    H134920   6.480   0.132  19.118  0.4835  1.0125 -0.2200
 3575TIP3    H234921   6.464   0.184  19.259  0.1324  0.6682 -0.1330
 3576TIP3   OH234922   2.681   3.531  17.959  0.5897 -0.2036 -0.0834
 3576TIP3    H134923   2.744   3.508  18.027  1.4921  1.2830 -0.3785
 3576TIP3    H234924   2.596   3.526  18.004  1.1343  0.3285  1.0491
 3577TIP3   OH234925   4.285   2.891  16.511  0.3877 -0.1925  0.0975
 3577TIP3    H134926   4.212   2.947  16.484 -0.0833 -0.5686  0.5556
 3577TIP3    H234927   4.280   2.816  16.451 -1.3003 -1.5314  1.8056
 3578TIP3   OH234928   6.336   2.228  18.333 -0.0926  0.2541 -0.3101
 3578TIP3    H134929   6.336   2.162  18.403  2.1758  1.2921  0.7694
 3578TIP3    H234930   6.428   2.237  18.308 -0.7298  0.6946 -2.7536
 3579TIP3   OH234931   4.190   6.504  19.228  0.3425 -0.5583 -0.5431
 3579TIP3    H134932   4.235   6.422  19.249  0.9164  0.1792  1.2946
 3579TIP3    H234933   4.105   6.497  19.271  1.1889  0.6101  1.4580
 3580TIP3   OH234934   1.340   1.552  19.268 -0.0983 -0.0085  0.3388
 3580TIP3    H134935   1.245   1.545  19.273 -0.1178  0.0756  0.0709
 3580TIP3    H234936   1.356   1.637  19.228  0.1167  0.8500  2.1156
 3581TIP3   OH234937   0.549   5.271  16.289 -0.1235  0.1414  0.1197
 3581TIP3    H134938   0.475   5.211  16.297 -0.0390  0.0567  0.2765
 3581TIP3    H234939   0.521   5.349  16.339 -0.0155  0.0187  0.3745
 3582TIP3   OH234940   5.655   3.715  19.341  0.7010 -0.7878 -0.1060
 3582TIP3    H134941   5.581   3.773  19.354  1.7134  1.4095 -2.9789
 3582TIP3    H234942   5.624   3.629  19.370 -2.1653  0.4461  0.7984
 3583TIP3   OH234943   4.136   1.041  16.537  0.1195  0.7690 -0.1660
 3583TIP3    H134944   4.057   1.086  16.569  0.1994  0.0404  1.1340
 3583TIP3    H234945   4.205   1.068  16.597  0.4978  0.0925 -0.2906
 3584TIP3   OH234946   3.425   0.043  18.594 -0.2888 -1.1455 -0.1833
 3584TIP3    H134947   3.499   0.002  18.548  1.8208  2.3045 -0.2033
 3584TIP3    H234948   3.466   0.092  18.666 -2.6496  0.2649  0.2932
 3585TIP3   OH234949   3.800   4.970  18.074  0.0096  0.4501  0.1561
 3585TIP3    H134950   3.842   4.902  18.126 -0.8209 -1.6402 -1.7358
 3585TIP3    H234951   3.846   5.051  18.098  1.0310 -0.7352  2.4998
 3586TIP3   OH234952   6.115   0.756  16.399 -0.8853 -0.0216 -0.3720
 3586TIP3    H134953   6.191   0.702  16.380 -1.0411 -0.7701  0.9635
 3586TIP3    H234954   6.047   0.694  16.426 -1.3261  0.7809  0.4346
 3587TIP3   OH234955   6.482   5.185  18.373 -0.3925 -0.1332  0.3237
 3587TIP3    H134956   6.460   5.252  18.437 -0.5627 -0.3924  0.5431
 3587TIP3    H234957   6.501   5.233  18.293  1.2990  0.3079  0.9419
 3588TIP3   OH234958   2.815   2.298  18.187 -0.2425  0.3621  0.3399
 3588TIP3    H134959   2.895   2.246  18.186  0.4117  1.3516 -0.7406
 3588TIP3    H234960   2.748   2.240  18.152 -0.0198 -0.4693  1.2318
 3589TIP3   OH234961   0.804   1.211  18.876 -0.4327  0.4103 -0.7117
 3589TIP3    H134962   0.849   1.128  18.895 -1.0811 -0.5173 -2.9098
 3589TIP3    H234963   0.775   1.202  18.786  1.5314  4.0248 -1.8924
 3590TIP3   OH234964   6.717   2.663  18.296  0.4249  0.2637 -0.0458
 3590TIP3    H134965   6.686   2.631  18.380 -0.8874  1.4078 -0.0595
 3590TIP3    H234966   6.778   2.734  18.318  0.6048  0.1111 -0.0538
 3591TIP3   OH234967   3.940   6.618  17.185 -0.0933  0.1756 -0.5252
 3591TIP3    H134968   3.968   6.705  17.213 -0.4418  0.0100  0.3910
 3591TIP3    H234969   3.879   6.590  17.254  1.3605 -1.5241  0.1352
 3592TIP3   OH234970   5.062   0.995  16.434 -0.5153 -0.0106  0.1821
 3592TIP3    H134971   5.123   1.011  16.362 -2.3841  1.6173 -1.1440
 3592TIP3    H234972   5.108   0.933  16.491  1.4633 -0.5378 -1.8423
 3593TIP3   OH234973   1.876   5.929  17.211  0.2890  0.2721 -0.2425
 3593TIP3    H134974   1.947   5.885  17.164 -0.1472  0.6767 -1.3082
 3593TIP3    H234975   1.872   6.016  17.173 -1.0409  0.1243 -0.4893
 3594TIP3   OH234976   5.278   3.389  19.539 -0.1696  0.8736  0.2757
 3594TIP3    H134977   5.291   3.297  19.565  0.1142  0.6976 -0.4766
 3594TIP3    H234978   5.192   3.389  19.497  0.1919  0.7862 -0.4716
 3595TIP3   OH234979   6.602   4.048  16.877 -0.1516 -0.0602  0.2203
 3595TIP3    H134980   6.550   4.013  16.949 -0.2310  0.1353  0.2575
 3595TIP3    H234981   6.552   4.124  16.846  0.3631  0.4326  0.5822
 3596TIP3   OH234982   5.883   3.356  19.406  0.0117 -0.0936  0.2417
 3596TIP3    H134983   5.874   3.270  19.446 -2.2924 -0.1942 -0.3406
 3596TIP3    H234984   5.876   3.417  19.479 -3.2673 -0.3052  0.2617
 3597TIP3   OH234985   5.546   0.434  18.100 -0.1584  0.2151 -0.1211
 3597TIP3    H134986   5.528   0.448  18.193 -0.6106 -0.1097 -0.1558
 3597TIP3    H234987   5.485   0.364  18.074  0.4148 -0.1496 -0.5057
 3598TIP3   OH234988   1.401   3.699  17.033 -0.4445  0.6123  0.1184
 3598TIP3    H134989   1.458   3.753  17.088  0.5179 -1.4959  1.2881
 3598TIP3    H234990   1.459   3.662  16.967 -0.9900  0.5075 -0.3171
 3599TIP3   OH234991   1.607   3.636  17.271  0.1891 -0.2537  0.2503
 3599TIP3    H134992   1.518   3.653  17.301 -0.7405  0.1334 -2.4195
 3599TIP3    H234993   1.605   3.546  17.238  1.1666 -0.6894  1.3246
 3600TIP3   OH234994   0.448   3.551  19.444  0.4094  0.8113 -0.0549
 3600TIP3    H134995   0.381   3.572  19.508  0.9749 -0.2154  0.9162
 3600TIP3    H234996   0.406   3.566  19.359 -0.9387  0.4945  0.5292
 3601TIP3   OH234997   1.972   0.995  18.389  0.3556 -0.2177 -0.5333
 3601TIP3    H134998   1.985   0.901  18.398 -1.4051 -0.5020 -0.6282
 3601TIP3    H234999   1.978   1.029  18.479 -0.4118 -0.6383 -0.3133
 3602TIP3   OH235000   3.224   5.243  15.674 -0.4876 -0.1728  0.1523
 3602TIP3    H135001   3.169   5.317  15.647  1.0861  0.2420 -2.2265
 3602TIP3    H235002   3.187   5.167  15.629 -1.0569 -0.5682  1.2265
 3603TIP3   OH235003   4.101   4.043  18.126 -0.3022 -0.0671 -0.0375
 3603TIP3    H135004   4.162   4.088  18.184  1.3189 -1.8961 -0.2051
 3603TIP3    H235005   4.154   4.014  18.052 -1.4382 -1.3775 -0.4041
 3604TIP3   OH235006   1.082   3.985  19.102  0.0154  0.1188 -0.1850
 3604TIP3    H135007   1.012   4.037  19.064 -0.5837 -1.9483 -2.1564
 3604TIP3    H235008   1.149   3.981  19.034  0.8060 -0.2602  0.5914
 3605TIP3   OH235009   6.284   1.640  17.813 -0.2444 -1.0875  0.2337
 3605TIP3    H135010   6.363   1.656  17.865 -0.0241 -1.2847 -0.0373
 3605TIP3    H235011   6.218   1.612  17.877 -0.5824  0.6502  0.6948
 3606TIP3   OH235012   5.439   2.933  17.744 -0.2875  0.1722 -0.1573
 3606TIP3    H135013   5.448   3.024  17.772  1.4855  0.0221 -0.1462
 3606TIP3    H235014   5.439   2.883  17.826 -1.9274  0.1655 -0.1203
 3607TIP3   OH235015   2.325   6.662  19.117  0.2495 -0.3200 -0.5710
 3607TIP3    H135016   2.268   6.722  19.166  0.4088  0.7619 -1.6839
 3607TIP3    H235017   2.269   6.627  19.048  0.0622 -1.7534  0.2663
 3608TIP3   OH235018   3.723   1.403  18.402 -0.8515 -0.1386 -0.4721
 3608TIP3    H135019   3.713   1.461  18.327  1.2865  0.0877 -0.6658
 3608TIP3    H235020   3.810   1.364  18.391 -0.8155 -0.7504  1.4445
 3609TIP3   OH235021   3.289   1.771  17.061  0.4852 -0.0179  0.3885
 3609TIP3    H135022   3.219   1.718  17.098 -0.8258  2.2056  1.2617
 3609TIP3    H235023   3.296   1.740  16.970  0.5442 -2.3513  1.1042
 3610TIP3   OH235024   4.491   3.956  17.553 -0.2716 -0.0728 -0.1483
 3610TIP3    H135025   4.494   4.036  17.499  1.0180  0.4628  0.6658
 3610TIP3    H235026   4.403   3.922  17.540 -0.5470  0.9747 -1.2483
 3611TIP3   OH235027   3.282   4.092  18.097 -0.4027 -0.3263 -0.0433
 3611TIP3    H135028   3.306   4.008  18.058  1.7912  0.5188 -0.6794
 3611TIP3    H235029   3.247   4.144  18.024 -1.9461 -0.7240  0.3899
 3612TIP3   OH235030   5.060   6.644  16.985  0.2507  0.2016  0.0934
 3612TIP3    H135031   5.096   6.575  16.930  0.9194  1.6620 -1.4079
 3612TIP3    H235032   5.117   6.647  17.061  2.0828  1.0408 -1.2431
 3613TIP3   OH235033   1.072   1.629  16.653 -0.5671 -0.5729  0.6890
 3613TIP3    H135034   1.158   1.614  16.614  0.0086  0.5291  1.4876
 3613TIP3    H235035   1.030   1.692  16.594 -0.8799 -1.1970  0.2380
 3614TIP3   OH235036   4.278   1.576  18.963  0.2864  0.0894  0.3159
 3614TIP3    H135037   4.288   1.543  19.052  1.4130  0.9970  0.5592
 3614TIP3    H235038   4.336   1.653  18.960  0.1733  0.1379 -1.1623
 3615TIP3   OH235039   2.237   0.760  16.375  0.0625 -0.7399  0.1533
 3615TIP3    H135040   2.157   0.800  16.340  0.2709 -0.8396 -0.4512
 3615TIP3    H235041   2.209   0.676  16.411  0.1249 -1.4638 -1.4163
 3616TIP3   OH235042   3.736   1.113  19.236  0.8811  0.2216  0.3641
 3616TIP3    H135043   3.642   1.129  19.246  0.9852  0.3445  1.2236
 3616TIP3    H235044   3.778   1.189  19.275  1.3486 -0.7583  1.8603
 3617TIP3   OH235045   2.696   2.051  18.490 -0.2275 -0.3368  0.2321
 3617TIP3    H135046   2.698   1.985  18.559  1.4327 -0.0575  0.4903
 3617TIP3    H235047   2.745   2.012  18.417 -0.1213  0.1947  0.0100
 3618TIP3   OH235048   6.127   5.589  17.539 -0.0765 -0.1319  0.6471
 3618TIP3    H135049   6.098   5.525  17.474 -0.1183 -2.2127  2.5713
 3618TIP3    H235050   6.193   5.641  17.494 -0.0497 -1.5222 -1.0206
 3619TIP3   OH235051   2.318   5.316  19.431 -0.1946  0.2035  0.0169
 3619TIP3    H135052   2.271   5.274  19.503 -0.5447  2.5467  1.2657
 3619TIP3    H235053   2.388   5.254  19.409 -1.0735 -1.3133  1.2370
 3620TIP3   OH235054   4.348   5.836  16.990 -0.2353 -0.3539  0.0145
 3620TIP3    H135055   4.395   5.756  16.966  0.3514  0.6439 -2.3951
 3620TIP3    H235056   4.415   5.892  17.029  0.1952  0.3114 -1.6178
 3621TIP3   OH235057   5.616   2.776  16.935 -0.2301 -0.1315  0.1069
 3621TIP3    H135058   5.674   2.725  16.992 -1.8942 -0.8256  1.2501
 3621TIP3    H235059   5.609   2.724  16.856 -0.1800 -0.6072  0.4100
 3622TIP3   OH235060   5.242   1.467  18.878  0.2255  0.5350 -0.7819
 3622TIP3    H135061   5.151   1.490  18.862  0.0479  0.1262 -0.3876
 3622TIP3    H235062   5.247   1.373  18.863  0.4904  0.4840 -0.4180
 3623TIP3   OH235063   2.938   2.820  19.142 -0.1680 -0.5249  0.3250
 3623TIP3    H135064   3.013   2.768  19.173 -0.4412 -0.4022  1.1985
 3623TIP3    H235065   2.891   2.845  19.221 -1.4648 -1.0687 -0.2395
 3624TIP3   OH235066   0.550   0.513  16.120 -0.1926  0.1052 -0.3650
 3624TIP3    H135067   0.528   0.587  16.177  0.8219  1.2138 -1.3456
 3624TIP3    H235068   0.466   0.481  16.089 -0.6392  1.1498 -0.2791
 3625TIP3   OH235069   4.148   5.975  17.125  0.1251 -0.0289 -0.3781
 3625TIP3    H135070   4.202   5.914  17.074  0.7516 -0.2638  0.5508
 3625TIP3    H235071   4.163   5.950  17.216 -1.7156 -0.2182 -0.0993
 3626TIP3   OH235072   6.439   2.783  18.227 -0.4960 -0.6924 -0.5569
 3626TIP3    H135073   6.476   2.696  18.218  1.0444 -0.3672  1.7670
 3626TIP3    H235074   6.512   2.842  18.209 -0.4083  0.0015  1.7912
 3627TIP3   OH235075   5.413   2.709  18.461 -0.5307 -0.2810  0.2803
 3627TIP3    H135076   5.351   2.748  18.400 -0.9477 -0.1149  0.8013
 3627TIP3    H235077   5.499   2.742  18.433 -0.8826  1.0987  0.7691
 3628TIP3   OH235078   0.274   3.886  19.043  0.4466  0.5730 -0.1104
 3628TIP3    H135079   0.197   3.839  19.013  0.9335  0.2234 -0.8327
 3628TIP3    H235080   0.336   3.881  18.970  1.2457  0.6334  0.5443
 3629TIP3   OH235081   2.481   2.401  17.651 -0.0393 -0.1188  0.5103
 3629TIP3    H135082   2.577   2.397  17.650  0.1395  1.5454 -3.0727
 3629TIP3    H235083   2.453   2.320  17.609 -0.1032  0.1402  0.0478
 3630TIP3   OH235084   4.196   5.049  16.816 -0.1733 -0.3104  0.2601
 3630TIP3    H135085   4.153   5.121  16.771  0.0661 -1.0887 -1.2779
 3630TIP3    H235086   4.220   4.988  16.746 -2.5020 -3.0384  1.6295
 3631TIP3   OH235087   5.991   4.307  17.029  0.0800 -0.1179  0.3718
 3631TIP3    H135088   5.931   4.333  17.099 -0.6878  1.3783 -0.7813
 3631TIP3    H235089   6.071   4.281  17.075 -0.3377  1.0103  1.8181
 3632TIP3   OH235090   4.597   5.885  16.361  0.1880  0.3217  0.2045
 3632TIP3    H135091   4.649   5.869  16.439  0.8064  0.4319 -0.1830
 3632TIP3    H235092   4.520   5.934  16.393 -1.5257 -2.8224  1.3443
 3633TIP3   OH235093   3.862   5.725  16.150 -0.0534  0.0967  0.5939
 3633TIP3    H135094   3.801   5.744  16.079 -1.9572  1.5591  2.4909
 3633TIP3    H235095   3.919   5.802  16.155  1.6534 -0.9816 -0.7371
 3634TIP3   OH235096   4.168   0.591  18.917 -0.0195 -0.1611 -0.1475
 3634TIP3    H135097   4.224   0.655  18.872 -0.6777 -0.1217 -0.9480
 3634TIP3    H235098   4.102   0.644  18.961  0.5026 -0.2117  0.7027
 3635TIP3   OH235099   4.640   4.034  18.881  0.1748  0.3121  0.0862
 3635TIP3    H135100   4.725   4.027  18.837 -0.4533 -0.3257 -1.0851
 3635TIP3    H235101   4.599   3.948  18.867  1.0006 -0.9964  4.3166
 3636TIP3   OH235102   5.068   1.131  16.686 -0.2919 -0.0396  0.4261
 3636TIP3    H135103   5.078   1.197  16.617  2.4967 -0.6157  0.1756
 3636TIP3    H235104   5.128   1.061  16.661 -1.5587 -1.7233  1.8389
 3637TIP3   OH235105   1.363   2.789  18.727  0.1054  0.4695  0.5387
 3637TIP3    H135106   1.359   2.764  18.819 -2.2273  1.7426  0.8579
 3637TIP3    H235107   1.271   2.796  18.700  0.7326  0.6963 -1.7285
 3638TIP3   OH235108   2.056   4.877  18.114  0.1032  0.2411 -0.1938
 3638TIP3    H135109   2.025   4.963  18.087 -0.9577  0.3320  1.1719
 3638TIP3    H235110   2.121   4.895  18.182 -1.3072  0.0012  1.2926
 3639TIP3   OH235111   0.623   2.931  17.430 -0.1344 -0.4432  0.5054
 3639TIP3    H135112   0.695   2.869  17.418  0.3254  0.0729  0.5742
 3639TIP3    H235113   0.663   3.006  17.473 -0.6500 -0.0258  0.2653
 3640TIP3   OH235114   4.787   5.011  16.467  0.3751 -0.3621 -0.1475
 3640TIP3    H135115   4.710   5.045  16.422 -0.3809 -0.2410  1.1843
 3640TIP3    H235116   4.798   4.922  16.433 -0.6192 -0.5319 -0.0428
 3641TIP3   OH235117   5.857   1.336  16.253  0.1962 -0.5483 -0.2375
 3641TIP3    H135118   5.890   1.367  16.169 -1.5488  2.4549  0.0110
 3641TIP3    H235119   5.762   1.332  16.241 -0.0936 -0.0442  1.5497
 3642TIP3   OH235120   0.095   2.114  16.331  0.1576  0.1343 -0.0334
 3642TIP3    H135121   0.175   2.132  16.382  1.3674 -0.3882 -1.6634
 3642TIP3    H235122   0.077   2.196  16.285 -1.2255  0.7677  1.5300
 3643TIP3   OH235123   5.881   5.489  18.389  0.1687 -0.4286  0.4222
 3643TIP3    H135124   5.955   5.547  18.370 -0.3112 -0.4277 -1.6943
 3643TIP3    H235125   5.843   5.470  18.303 -0.7541 -2.4810  1.2326
 3644TIP3   OH235126   5.030   5.370  18.878  0.2134 -0.0607  0.1673
 3644TIP3    H135127   4.976   5.347  18.954  2.3738 -2.8419  1.0188
 3644TIP3    H235128   5.056   5.461  18.894 -0.0316 -0.3120  2.3709
 3645TIP3   OH235129   1.135   0.952  19.281  0.0714 -0.8785 -0.6189
 3645TIP3    H135130   1.087   1.027  19.246 -1.2174 -1.1474  0.5319
 3645TIP3    H235131   1.071   0.881  19.284  0.9444 -1.6849 -0.4810
 3646TIP3   OH235132   0.140   2.182  15.964 -0.0771 -0.2370 -0.2333
 3646TIP3    H135133   0.072   2.116  15.975 -1.5003  0.9684 -1.3950
 3646TIP3    H235134   0.178   2.163  15.879  0.2333 -0.1907 -0.1057
 3647TIP3   OH235135   1.668   0.866  16.354 -0.5828 -0.7229 -0.8330
 3647TIP3    H135136   1.621   0.860  16.271 -3.5245 -0.5286  0.7108
 3647TIP3    H235137   1.614   0.922  16.409  1.2042 -0.9302  1.2928
 3648TIP3   OH235138   6.573   3.207  19.482 -0.3428  0.5187  0.0128
 3648TIP3    H135139   6.589   3.154  19.560 -0.3110 -0.3087 -0.5342
 3648TIP3    H235140   6.604   3.294  19.504  1.4265 -0.1464  0.2876
 3649TIP3   OH235141   0.473   4.861  16.815 -0.1704 -0.1106 -0.8483
 3649TIP3    H135142   0.391   4.827  16.781 -0.0931  0.0689 -1.2090
 3649TIP3    H235143   0.541   4.805  16.777 -0.1010 -0.0511 -0.8128
 3650TIP3   OH235144   1.466   5.555  16.525 -0.1974  0.2926 -0.7829
 3650TIP3    H135145   1.506   5.548  16.612 -1.3467  0.3560 -0.2323
 3650TIP3    H235146   1.540   5.558  16.465  0.6172  0.1993  0.1901
 3651TIP3   OH235147   4.176   1.390  16.926 -0.5971 -0.1439 -0.0063
 3651TIP3    H135148   4.184   1.295  16.922 -1.8253 -0.2246 -1.1967
 3651TIP3    H235149   4.166   1.417  16.834 -0.0458  1.1604  0.2953
 3652TIP3   OH235150   0.403   3.515  18.373  0.1358 -0.2182  0.0566
 3652TIP3    H135151   0.395   3.423  18.400  0.7453 -1.0557 -2.3633
 3652TIP3    H235152   0.363   3.564  18.445 -0.0280 -2.3363  1.5324
 3653TIP3   OH235153   0.503   1.638  18.800  0.1175  0.2311 -0.0693
 3653TIP3    H135154   0.421   1.665  18.757 -0.6321 -1.3775  0.2813
 3653TIP3    H235155   0.571   1.660  18.736 -0.3499  3.0086  0.2334
 3654TIP3   OH235156   1.609   1.299  17.292  0.3317  0.4189 -0.0547
 3654TIP3    H135157   1.567   1.219  17.325 -0.4378  0.8880  0.1387
 3654TIP3    H235158   1.586   1.366  17.357  0.5822  0.8976 -0.4561
 3655TIP3   OH235159   5.982   1.161  19.020 -0.2541 -0.3150 -0.8086
 3655TIP3    H135160   6.028   1.245  19.017 -0.4592 -0.2088 -1.0436
 3655TIP3    H235161   5.895   1.180  18.985 -0.7472 -0.3483  0.3585
 3656TIP3   OH235162   5.219   5.422  19.126  0.2258 -0.5513  0.7054
 3656TIP3    H135163   5.178   5.427  19.212 -0.9352 -2.9719  0.3855
 3656TIP3    H235164   5.180   5.494  19.076 -0.9302 -0.5857  1.5138
 3657TIP3   OH235165   1.743   4.864  17.261 -0.0032  0.3051  0.1851
 3657TIP3    H135166   1.828   4.909  17.259  0.7963 -1.1189  0.3637
 3657TIP3    H235167   1.748   4.807  17.339 -1.2980  0.5127  0.4409
 3658TIP3   OH235168   3.349   4.731  17.610 -0.1136  0.3066 -0.7155
 3658TIP3    H135169   3.255   4.716  17.616 -0.0218 -0.9628 -2.1066
 3658TIP3    H235170   3.370   4.719  17.518  1.5212 -0.0328 -0.3301
 3659TIP3   OH235171   1.056   0.805  17.364 -0.5206  0.0952 -0.1143
 3659TIP3    H135172   1.052   0.900  17.354 -1.5025  0.1411  0.6393
 3659TIP3    H235173   1.034   0.771  17.277  0.3813  0.5422 -0.5365
 3660TIP3   OH235174   1.125   2.327  19.209  0.2807 -0.1927 -0.1141
 3660TIP3    H135175   1.150   2.418  19.193  1.2170 -0.3083  0.6284
 3660TIP3    H235176   1.043   2.316  19.161 -0.4169  1.3602  0.6410
 3661TIP3   OH235177   4.189   3.771  16.816  0.0123 -0.3050 -0.6782
 3661TIP3    H135178   4.268   3.825  16.815  0.7331 -1.0557  2.4502
 3661TIP3    H235179   4.120   3.830  16.845  0.0913 -0.3004 -0.4960
 3662TIP3   OH235180   6.189   5.260  18.204  0.0855  0.1988 -0.1264
 3662TIP3    H135181   6.279   5.270  18.233  0.4073  0.7528 -1.2551
 3662TIP3    H235182   6.138   5.314  18.264  0.7276  1.2925 -0.5451
 3663TIP3   OH235183   0.534   6.143  18.300 -0.4074 -0.1278  0.3062
 3663TIP3    H135184   0.528   6.048  18.315 -0.3190 -0.0213  1.0204
 3663TIP3    H235185   0.621   6.167  18.332 -0.3454  0.1661 -0.0713
 3664TIP3   OH235186   2.935   0.375  18.771  0.0997  0.1921  0.1862
 3664TIP3    H135187   3.002   0.412  18.713  0.2575 -0.5064 -0.0855
 3664TIP3    H235188   2.928   0.439  18.842  0.1629  0.8771 -0.4101
 3665TIP3   OH235189   3.300   1.743  19.191 -0.4518  0.1154 -0.0930
 3665TIP3    H135190   3.363   1.730  19.120 -0.3533 -0.5046  0.1004
 3665TIP3    H235191   3.350   1.785  19.261  0.3611 -2.4224  0.9388
 3666TIP3   OH235192   1.018   5.844  17.069 -0.4151 -0.3131 -0.0547
 3666TIP3    H135193   1.099   5.799  17.046 -0.1278 -0.1557  0.6203
 3666TIP3    H235194   0.991   5.888  16.989  0.9909  0.9064  0.1001
 3667TIP3   OH235195   1.277   6.142  17.860  0.1983 -0.6981 -0.1295
 3667TIP3    H135196   1.285   6.102  17.774 -2.3272 -1.4056 -0.1270
 3667TIP3    H235197   1.210   6.209  17.849  0.2183 -0.4379  1.1546
 3668TIP3   OH235198   4.442   1.145  16.704  0.0482  0.0657 -0.0375
 3668TIP3    H135199   4.475   1.122  16.617  1.5814 -1.2015  0.8132
 3668TIP3    H235200   4.520   1.176  16.751 -0.9129  1.5128  0.6494
 3669TIP3   OH235201   2.768   3.425  19.481 -0.3565 -0.5490  0.3091
 3669TIP3    H135202   2.676   3.415  19.458  0.3027 -1.2363 -2.3921
 3669TIP3    H235203   2.815   3.373  19.416  1.9976  0.5471  1.0127
 3670TIP3   OH235204   4.998   1.804  18.654 -0.3433 -0.1747 -0.0838
 3670TIP3    H135205   4.991   1.884  18.706 -0.0445 -0.5913  0.6161
 3670TIP3    H235206   4.966   1.735  18.712  0.3880 -0.7096 -0.2992
 3671TIP3   OH235207   1.894   4.913  18.596 -0.7604  0.0352  0.2084
 3671TIP3    H135208   1.974   4.952  18.561 -0.9690  0.3224  0.0464
 3671TIP3    H235209   1.833   4.986  18.602 -1.8712 -0.6013 -2.1169
 3672TIP3   OH235210   2.460   1.511  17.175  0.5173  0.6106 -0.5475
 3672TIP3    H135211   2.481   1.525  17.267  0.0539  1.3557 -0.5418
 3672TIP3    H235212   2.369   1.482  17.175 -0.2820  2.8974 -0.8774
 3673TIP3   OH235213   3.508   0.991  16.652  0.6130  0.2843  0.1595
 3673TIP3    H135214   3.516   0.990  16.748  0.1979  0.3672  0.1994
 3673TIP3    H235215   3.433   0.934  16.634  0.2153  0.8705 -0.0640
 3674TIP3   OH235216   4.380   0.289  17.345 -0.1923 -0.1524 -0.0581
 3674TIP3    H135217   4.446   0.236  17.390 -1.6546 -1.8705  0.1523
 3674TIP3    H235218   4.304   0.287  17.403 -1.3843 -0.5977 -1.5730
 3675TIP3   OH235219   4.149   3.821  18.924 -0.2529  0.2975  0.1721
 3675TIP3    H135220   4.196   3.814  18.840  0.0536  0.9296  0.2801
 3675TIP3    H235221   4.121   3.912  18.928 -1.7976 -0.1466 -0.0326
 3676TIP3   OH235222   1.396   0.924  19.261 -0.2886 -0.3268 -0.2362
 3676TIP3    H135223   1.301   0.932  19.260 -0.2081  1.2152 -1.8789
 3676TIP3    H235224   1.421   0.928  19.169  1.3289 -1.5560  0.1091
 3677TIP3   OH235225   1.635   2.493  18.873 -0.2275  0.0253 -0.0052
 3677TIP3    H135226   1.565   2.457  18.926  0.0524 -0.9982 -0.3026
 3677TIP3    H235227   1.696   2.531  18.936 -0.2012 -0.6332  0.3813
 3678TIP3   OH235228   1.265   1.481  17.247  0.0185  0.0869 -0.4050
 3678TIP3    H135229   1.285   1.408  17.306  0.4318  0.5955  0.0842
 3678TIP3    H235230   1.183   1.454  17.205  0.6459 -1.0822 -0.9314
 3679TIP3   OH235231   5.037   3.496  18.633 -0.6472  0.0752  0.7155
 3679TIP3    H135232   5.090   3.480  18.555 -1.1394 -1.4476  0.6626
 3679TIP3    H235233   5.099   3.492  18.705 -0.5647 -1.1217  0.6033
 3680TIP3   OH235234   4.452   1.771  16.293 -0.1394 -0.3416 -0.1174
 3680TIP3    H135235   4.512   1.702  16.265 -0.1987  0.3288 -2.0163
 3680TIP3    H235236   4.472   1.845  16.236  0.2172  1.3981  2.1276
 3681TIP3   OH235237   4.662   0.884  17.844  0.9273 -0.2779  0.3076
 3681TIP3    H135238   4.674   0.830  17.766  3.0372 -1.4133  1.3344
 3681TIP3    H235239   4.570   0.873  17.867  0.1406  0.4245 -2.1975
 3682TIP3   OH235240   2.850   3.518  18.548  0.5135  0.3214  0.0900
 3682TIP3    H135241   2.779   3.471  18.504  0.3627  0.5923  0.0375
 3682TIP3    H235242   2.816   3.607  18.558  0.2922  0.1198  1.3165
 3683TIP3   OH235243   0.799   5.714  16.175 -0.4142  0.2092 -0.1691
 3683TIP3    H135244   0.743   5.781  16.136 -2.7515 -1.1998  0.5301
 3683TIP3    H235245   0.817   5.653  16.103 -1.4719 -0.3559  0.0238
 3684TIP3   OH235246   1.910   4.622  16.866  0.5663  0.2927  0.1612
 3684TIP3    H135247   1.818   4.620  16.838  0.5706 -0.1371  0.1669
 3684TIP3    H235248   1.909   4.585  16.954  0.7288  0.4022  0.2068
 3685TIP3   OH235249   1.085   1.576  19.349  0.4583  0.1863  0.6410
 3685TIP3    H135250   1.032   1.523  19.408 -2.1511  0.2194 -1.4836
 3685TIP3    H235251   1.024   1.641  19.313  2.4326  1.5563 -0.4372
 3686TIP3   OH235252   2.024   6.552  18.682 -0.1888  0.2808 -0.1615
 3686TIP3    H135253   2.112   6.522  18.662 -0.0926  1.2945 -1.3610
 3686TIP3    H235254   1.990   6.585  18.599 -2.2477 -1.4222 -0.0804
 3687TIP3   OH235255   4.860   3.532  17.130  0.3014  0.0658  0.4458
 3687TIP3    H135256   4.940   3.549  17.180  0.2342  2.2968 -0.1193
 3687TIP3    H235257   4.890   3.492  17.049  1.0250  1.8934 -0.2462
 3688TIP3   OH235258   3.557   3.429  18.972 -0.4852  0.4356 -0.0516
 3688TIP3    H135259   3.483   3.458  19.026 -1.1616  0.6944 -1.0836
 3688TIP3    H235260   3.560   3.493  18.900  1.1237  0.7780  0.2781
 3689TIP3   OH235261   4.078   2.395  17.819  0.1964  0.0570 -0.3347
 3689TIP3    H135262   4.108   2.322  17.766 -1.2046 -1.4342  0.8265
 3689TIP3    H235263   4.143   2.464  17.803  2.7208 -2.0546  0.0420
 3690TIP3   OH235264   1.353   1.630  17.802  0.3506  0.4745 -0.2354
 3690TIP3    H135265   1.293   1.702  17.826  2.6294  2.5434 -0.3448
 3690TIP3    H235266   1.338   1.618  17.708 -0.3965  0.4585 -0.1229
 3691TIP3   OH235267   4.549   0.549  18.637  0.6950 -0.0150 -0.2842
 3691TIP3    H135268   4.607   0.566  18.563  0.4959  0.6072 -0.3027
 3691TIP3    H235269   4.498   0.472  18.610  1.3692 -0.4527 -0.3413
 3692TIP3   OH235270   3.731   1.773  15.529 -0.2102  0.7031 -0.0056
 3692TIP3    H135271   3.721   1.767  15.625 -0.4088  1.1800  0.0036
 3692TIP3    H235272   3.815   1.730  15.511 -0.0325  0.8722  0.4112
 3693TIP3   OH235273   0.819   6.713  16.828  0.4087  0.2419  0.2091
 3693TIP3    H135274   0.901   6.732  16.782 -0.4420 -0.7018 -1.8238
 3693TIP3    H235275   0.830   6.623  16.860  0.7622  0.6850  1.3837
 3694TIP3   OH235276   3.098   0.624  18.791  0.8360  0.3383 -0.0871
 3694TIP3    H135277   3.139   0.696  18.839  1.8488 -1.2172  1.4682
 3694TIP3    H235278   3.012   0.614  18.833  2.2820 -1.9963  2.6073
 3695TIP3   OH235279   6.598   0.171  17.581  0.2757 -0.4865  0.0615
 3695TIP3    H135280   6.611   0.169  17.676  2.0510  0.6954 -0.1047
 3695TIP3    H235281   6.678   0.209  17.547  0.5540 -2.7805 -2.1209
 3696TIP3   OH235282   6.072   4.712  16.902  0.0355  0.0574 -0.3591
 3696TIP3    H135283   6.102   4.760  16.979  1.5203 -1.2521 -0.0695
 3696TIP3    H235284   6.140   4.726  16.836 -0.3775 -0.2307 -0.8540
 3697TIP3   OH235285   3.512   1.130  18.604 -0.5661  0.0343  0.1009
 3697TIP3    H135286   3.451   1.098  18.671  0.1831 -1.2947  0.1749
 3697TIP3    H235287   3.588   1.161  18.654 -0.9063  1.1188 -0.0278
 3698TIP3   OH235288   3.613   5.177  16.961 -0.2301 -0.1949  0.0834
 3698TIP3    H135289   3.578   5.221  17.038 -1.0445  1.9053 -1.3904
 3698TIP3    H235290   3.645   5.093  16.994 -0.5207  0.6129  2.6871
 3699TIP3   OH235291   6.551   3.382  18.365  0.1644  0.1336  0.1561
 3699TIP3    H135292   6.530   3.456  18.422 -0.0882  0.2888 -0.1384
 3699TIP3    H235293   6.491   3.313  18.394  0.5639 -0.0372  0.5909
 3700TIP3   OH235294   0.659   2.483  18.869  0.2868  0.1112  0.1918
 3700TIP3    H135295   0.726   2.467  18.803  1.6690  0.4053  1.4558
 3700TIP3    H235296   0.627   2.572  18.850 -0.2731 -0.2860 -0.8249
 3701TIP3   OH235297   4.278   1.703  17.883  0.3800 -0.7545  0.2434
 3701TIP3    H135298   4.299   1.796  17.890 -0.7446 -0.4595 -0.0900
 3701TIP3    H235299   4.357   1.663  17.848  0.8270  0.1004  0.2478
 3702TIP3   OH235300   1.444   0.699  18.158  0.3534  0.0401 -0.8827
 3702TIP3    H135301   1.444   0.603  18.150  0.7024 -0.1352  0.8595
 3702TIP3    H235302   1.353   0.721  18.177  0.1832  0.1237 -1.7339
 3703TIP3   OH235303   1.409   3.125  19.182  0.1565  0.7135 -0.2680
 3703TIP3    H135304   1.490   3.110  19.231 -0.2708  0.5751  0.4126
 3703TIP3    H235305   1.431   3.101  19.092  0.3735 -1.0544  0.2194
 3704TIP3   OH235306   2.112   6.314  17.058 -0.4444  0.5010  0.1323
 3704TIP3    H135307   2.137   6.351  17.142 -1.6752  1.8352 -0.0432
 3704TIP3    H235308   2.187   6.333  17.001 -0.5103  1.5846  0.3833
 3705TIP3   OH235309   5.799   3.212  17.366 -0.0804  0.3027  0.0103
 3705TIP3    H135310   5.789   3.281  17.301  0.2838 -0.0115 -0.3821
 3705TIP3    H235311   5.732   3.231  17.432 -0.1351  0.8949 -0.2122
 3706TIP3   OH235312   6.739   3.896  18.112  0.0126  0.3199 -0.2270
 3706TIP3    H135313   6.808   3.840  18.148 -0.1024  0.9089  0.9667
 3706TIP3    H235314   6.749   3.979  18.159  0.2796  1.3822 -2.0497
 3707TIP3   OH235315   6.211   5.050  17.364 -0.7897  0.4214  0.5763
 3707TIP3    H135316   6.124   5.029  17.398 -0.6219  0.8283  1.2831
 3707TIP3    H235317   6.239   4.970  17.320 -1.4541  0.2322  0.4833
 3708TIP3   OH235318   2.139   0.825  16.648  0.5518  0.1863 -0.0598
 3708TIP3    H135319   2.150   0.829  16.552 -0.2751  0.7827 -0.1348
 3708TIP3    H235320   2.227   0.842  16.682  1.0924 -1.1380 -0.7159
 3709TIP3   OH235321   3.823   0.556  18.399  0.1002 -0.2412 -0.3055
 3709TIP3    H135322   3.843   0.633  18.452 -0.8242 -0.4401  0.3580
 3709TIP3    H235323   3.730   0.564  18.378  0.3628 -0.3421 -1.6371
 3710TIP3   OH235324   4.968   0.271  18.450 -0.3821 -0.1429  0.8191
 3710TIP3    H135325   5.052   0.256  18.491 -0.2377  1.1667  1.0639
 3710TIP3    H235326   4.979   0.353  18.401 -1.4463 -0.0405  0.7082
 3711TIP3   OH235327   2.387   4.853  17.183 -0.7031  0.2228 -0.0273
 3711TIP3    H135328   2.334   4.844  17.104 -1.3704 -0.3550  0.4748
 3711TIP3    H235329   2.396   4.764  17.216  0.4500  0.3278 -0.0016
 3712TIP3   OH235330   0.163   6.064  18.444  0.3720  0.2224 -0.0196
 3712TIP3    H135331   0.204   5.980  18.467  2.2774  0.9727 -0.4319
 3712TIP3    H235332   0.148   6.107  18.528 -1.6419 -0.9219  0.2703
 3713TIP3   OH235333   1.402   5.280  17.485 -0.3115  0.6057 -0.2369
 3713TIP3    H135334   1.422   5.186  17.485 -2.4299  0.0887 -0.8772
 3713TIP3    H235335   1.460   5.317  17.418 -0.3155 -0.4766 -0.8661
 3714TIP3   OH235336   0.623   2.234  19.031 -0.4251 -0.1347 -0.2442
 3714TIP3    H135337   0.634   2.293  18.957  2.6423 -2.3299 -1.7794
 3714TIP3    H235338   0.598   2.150  18.991 -0.9426 -0.8268  1.4425
 3715TIP3   OH235339   4.215   4.849  18.105 -0.0886 -0.3690  0.3278
 3715TIP3    H135340   4.181   4.927  18.063  2.0622  0.7364  0.5520
 3715TIP3    H235341   4.225   4.873  18.197  2.6542 -0.1023  0.0300
 3716TIP3   OH235342   6.463   2.611  16.891  0.3128 -0.7955 -0.5025
 3716TIP3    H135343   6.402   2.683  16.908  0.1964 -1.1325  0.6134
 3716TIP3    H235344   6.476   2.612  16.796 -0.7167 -0.1447 -0.6497
 3717TIP3   OH235345   6.362   4.251  15.638  0.2217  0.4679 -0.6141
 3717TIP3    H135346   6.437   4.302  15.608  1.7654 -1.0157  0.5202
 3717TIP3    H235347   6.392   4.160  15.637 -0.8050  0.0121  1.9181
 3718TIP3   OH235348   1.452   2.868  18.479  0.1326  0.2465  0.6993
 3718TIP3    H135349   1.423   2.843  18.567  1.5391  0.0877  1.1412
 3718TIP3    H235350   1.419   2.799  18.422 -0.7644  0.3320  1.1052
 3719TIP3   OH235351   5.899   1.040  18.099  0.1103 -0.3704  0.4439
 3719TIP3    H135352   5.964   1.105  18.072  0.1988 -0.5216  0.2916
 3719TIP3    H235353   5.934   1.002  18.179 -0.5122  0.6131  1.2152
 3720TIP3   OH235354   3.608   2.525  18.138 -0.0109 -0.5731 -0.0808
 3720TIP3    H135355   3.544   2.523  18.209  1.4945 -1.0230  1.3020
 3720TIP3    H235356   3.666   2.598  18.159  0.9483 -1.2277 -0.3673
 3721TIP3   OH235357   1.565   6.266  16.682  0.5323 -0.1051  0.2429
 3721TIP3    H135358   1.513   6.342  16.655  1.7824  0.9693  0.7110
 3721TIP3    H235359   1.527   6.192  16.634 -0.5083  0.8675 -0.4912
 3722TIP3   OH235360   4.612   0.051  18.265  0.0151  0.0605  0.2513
 3722TIP3    H135361   4.666   0.094  18.198 -0.6903 -2.5097 -2.2008
 3722TIP3    H235362   4.669  -0.015  18.303 -0.0901  0.3791  0.9673
 3723TIP3   OH235363   1.143   0.060  18.132  0.5130  0.2743 -0.6418
 3723TIP3    H135364   1.077   0.095  18.072 -0.6099  0.3409  0.5729
 3723TIP3    H235365   1.098  -0.013  18.176  1.3586  0.1180 -0.0162
 3724TIP3   OH235366   6.538   2.793  18.762  0.2009  0.5940  0.4962
 3724TIP3    H135367   6.562   2.821  18.850  2.2638  1.2598 -0.2091
 3724TIP3    H235368   6.458   2.741  18.774  1.3708 -0.8321  2.9918
 3725TIP3   OH235369   0.580   6.220  16.685  0.3878 -0.3535 -0.5402
 3725TIP3    H135370   0.523   6.283  16.728  1.4121 -0.6532  1.3513
 3725TIP3    H235371   0.535   6.199  16.603 -0.7671  1.5708 -0.4585
 3726TIP3   OH235372   4.742   3.919  17.312 -0.2161 -0.4388 -0.0471
 3726TIP3    H135373   4.736   3.827  17.287  0.1294 -0.2932 -0.7113
 3726TIP3    H235374   4.670   3.933  17.373  0.9621 -1.6512  1.6920
 3727TIP3   OH235375   0.060   2.989  17.497  0.4368 -0.6587 -0.4073
 3727TIP3    H135376   0.031   3.014  17.409 -0.6491 -0.7117 -0.0795
 3727TIP3    H235377   0.038   2.896  17.504  1.3079 -0.8718 -0.3785
 3728TIP3   OH235378   6.100   4.400  18.497  0.2725 -0.0329  0.9783
 3728TIP3    H135379   6.153   4.480  18.508 -0.0977  0.7100 -1.7649
 3728TIP3    H235380   6.010   4.433  18.487 -0.1344 -0.9594  1.5160
 3729TIP3   OH235381   6.588   4.534  19.240 -0.1173 -1.0255  0.0160
 3729TIP3    H135382   6.564   4.618  19.280  1.5103 -1.4077  2.0190
 3729TIP3    H235383   6.567   4.544  19.148 -4.0556 -0.0013  0.8396
 3730TIP3   OH235384   5.282   6.468  18.683  0.0344  0.0699 -0.3694
 3730TIP3    H135385   5.327   6.504  18.760  1.2360  2.2059 -1.9518
 3730TIP3    H235386   5.221   6.537  18.657 -0.1240 -0.4808 -1.4946
 3731TIP3   OH235387   3.110   4.373  19.011 -0.0982 -0.0842  0.5057
 3731TIP3    H135388   3.028   4.324  19.020  0.6929 -1.5727 -0.0770
 3731TIP3    H235389   3.168   4.314  18.962  1.0349  1.2865  0.1461
 3732TIP3   OH235390   0.524   0.098  17.708  0.4695  0.6633  0.1263
 3732TIP3    H135391   0.503   0.189  17.727 -1.0687  0.3047  0.2701
 3732TIP3    H235392   0.557   0.099  17.618  0.0146  1.2958 -0.0312
 3733TIP3   OH235393   4.770   0.693  17.151 -0.6128  0.2068  0.0235
 3733TIP3    H135394   4.772   0.785  17.177  1.6357  0.0504  0.5683
 3733TIP3    H235395   4.757   0.646  17.233  0.8246 -0.0408  0.1327
 3734TIP3   OH235396   2.581   2.780  17.923 -0.5306  0.3562 -0.4811
 3734TIP3    H135397   2.608   2.803  18.012 -0.4677  2.2375 -0.9412
 3734TIP3    H235398   2.620   2.848  17.868 -0.8281 -0.5896 -1.9263
 3735TIP3   OH235399   6.148   0.418  16.428 -0.0621 -0.0713 -0.2716
 3735TIP3    H135400   6.191   0.362  16.362 -0.7274  1.8276 -2.4661
 3735TIP3    H235401   6.211   0.422  16.500  1.4786 -0.9439 -1.4808
 3736TIP3   OH235402   3.379   1.627  16.112 -0.0810  0.5677  0.4567
 3736TIP3    H135403   3.451   1.629  16.048  0.6727  0.9044  1.3035
 3736TIP3    H235404   3.305   1.667  16.065 -1.1357 -3.7242 -2.0431
 3737TIP3   OH235405   6.246   0.500  17.918  0.4108 -0.1093  0.0894
 3737TIP3    H135406   6.215   0.430  17.976  0.2201  0.9643  1.3055
 3737TIP3    H235407   6.219   0.471  17.830 -3.7442  0.4723  0.9550
 3738TIP3   OH235408   2.994   3.506  18.804 -0.1702  0.4385 -0.0453
 3738TIP3    H135409   3.013   3.598  18.784  2.0841 -0.3430 -2.0081
 3738TIP3    H235410   2.942   3.477  18.729 -0.9582  0.1179  0.6193
 3739TIP3   OH235411   2.865   3.813  18.716 -0.0830 -0.3965 -0.3971
 3739TIP3    H135412   2.927   3.806  18.789 -1.5875  0.1370  0.9941
 3739TIP3    H235413   2.787   3.767  18.746 -0.6310 -0.4450 -1.8188
 3740TIP3   OH235414   2.159   0.099  17.622  0.4142  0.1995  0.0015
 3740TIP3    H135415   2.237   0.074  17.671 -1.0126  0.0944  2.3776
 3740TIP3    H235416   2.086   0.060  17.670 -1.2115  1.2672 -1.4529
 3741TIP3   OH235417   2.649   6.542  18.732 -0.0041 -0.1092  0.2791
 3741TIP3    H135418   2.621   6.611  18.671  1.3561 -0.6989 -1.0631
 3741TIP3    H235419   2.729   6.576  18.771  0.2977 -0.6295  0.1241
 3742TIP3   OH235420   3.645   6.097  17.125  0.3516 -1.0149 -0.1449
 3742TIP3    H135421   3.659   6.189  17.100  1.3903 -0.9430  0.6571
 3742TIP3    H235422   3.590   6.062  17.054  1.5013 -0.2800 -1.4532
 3743TIP3   OH235423   6.659   2.960  18.177  0.4167  0.9936  0.5307
 3743TIP3    H135424   6.739   2.987  18.132 -0.1527 -0.3549 -1.3863
 3743TIP3    H235425   6.599   3.033  18.165  0.1440  0.4999 -1.3032
 3744TIP3   OH235426   4.417   4.008  19.446  0.1572 -0.2379  0.4540
 3744TIP3    H135427   4.415   4.049  19.360 -0.6696  1.2488  1.1365
 3744TIP3    H235428   4.371   3.925  19.435 -0.3148  0.1332 -0.4364
 3745TIP3   OH235429   1.931   1.442  16.863  0.1028 -0.4035  0.3001
 3745TIP3    H135430   1.871   1.396  16.803 -1.2008  0.1395  1.1297
 3745TIP3    H235431   1.986   1.373  16.900  0.3615 -0.8530 -0.8747
 3746TIP3   OH235432   5.320   1.604  16.401  0.0267 -0.2356  0.3678
 3746TIP3    H135433   5.316   1.554  16.482  2.5582 -0.2027  0.6117
 3746TIP3    H235434   5.282   1.689  16.423 -1.5556 -1.0278  0.7935
 3747TIP3   OH235435   5.350   3.614  18.290 -0.5144 -0.2917 -0.5242
 3747TIP3    H135436   5.279   3.673  18.264 -1.2164  0.7644  3.1466
 3747TIP3    H235437   5.305   3.536  18.323  0.0503 -0.1615  0.6079
 3748TIP3   OH235438   0.884   2.831  17.821  0.7214  0.4532  0.2449
 3748TIP3    H135439   0.791   2.829  17.841  0.2785 -2.3228 -1.5359
 3748TIP3    H235440   0.892   2.895  17.751 -0.0811 -0.1526 -0.4210
 3749TIP3   OH235441   2.639   5.102  18.259  0.0539 -0.6447  0.0253
 3749TIP3    H135442   2.660   5.034  18.195  1.0510 -1.0984  0.8056
 3749TIP3    H235443   2.571   5.155  18.216  0.6083 -0.9915 -1.3582
 3750TIP3   OH235444   5.785   2.889  15.942 -0.4428  0.0887  0.2328
 3750TIP3    H135445   5.813   2.895  16.033  0.9140 -1.6938 -0.0065
 3750TIP3    H235446   5.821   2.966  15.900  0.5365 -0.0293  0.8335
 3751TIP3   OH235447   0.702   6.193  16.187 -0.5235 -0.2963  0.0933
 3751TIP3    H135448   0.680   6.243  16.265  0.5541 -2.6425  2.0282
 3751TIP3    H235449   0.769   6.245  16.143 -0.2815  0.5198  1.3747
 3752TIP3   OH235450   5.883   3.786  16.520  0.2582 -0.6237 -0.2342
 3752TIP3    H135451   5.883   3.881  16.523 -0.9872 -0.5881 -0.7032
 3752TIP3    H235452   5.913   3.759  16.607 -1.0005  0.2100  0.4920
 3753TIP3   OH235453   4.298   3.155  16.580  0.5836 -0.1083 -0.2838
 3753TIP3    H135454   4.239   3.137  16.653  0.0104 -1.4453 -1.0483
 3753TIP3    H235455   4.335   3.070  16.558  1.8972  0.5192 -0.6100
 3754TIP3   OH235456   5.020   4.917  18.842 -0.1598  0.0858  0.6342
 3754TIP3    H135457   5.068   4.974  18.782  0.2668 -0.8320  0.0741
 3754TIP3    H235458   5.065   4.927  18.926  0.0402  0.4116  0.4902
 3755TIP3   OH235459   1.830   4.898  16.773  0.5581 -0.0752 -0.2472
 3755TIP3    H135460   1.898   4.835  16.798 -0.0553 -0.8338 -0.4267
 3755TIP3    H235461   1.791   4.860  16.694 -1.0102 -0.3899  0.6328
 3756TIP3   OH235462   2.560   6.123  16.349  0.2779 -0.0275  0.2257
 3756TIP3    H135463   2.481   6.102  16.399  0.2637  2.1000  1.1885
 3756TIP3    H235464   2.606   6.039  16.342 -2.2437 -1.4452 -0.8019
 3757TIP3   OH235465   6.253   3.908  16.073  0.0956  0.2184  0.1606
 3757TIP3    H135466   6.181   3.905  16.010 -0.3300 -1.7598  0.6492
 3757TIP3    H235467   6.295   3.822  16.066  1.4794  0.7962  0.9460
 3758TIP3   OH235468   6.682   5.624  16.900 -0.1634 -0.2406  0.9013
 3758TIP3    H135469   6.717   5.561  16.837 -0.3763 -0.8045  1.3369
 3758TIP3    H235470   6.737   5.614  16.978 -0.2917  0.0007  1.0238
 3759TIP3   OH235471   1.970   3.320  19.189 -0.1314 -0.5506  0.0390
 3759TIP3    H135472   2.062   3.304  19.167  0.1337 -1.3378  1.5872
 3759TIP3    H235473   1.921   3.261  19.133  0.2801  0.0404 -0.9656
 3760TIP3   OH235474   5.595   3.163  17.810  0.2011  0.7962  0.2206
 3760TIP3    H135475   5.538   3.225  17.856 -1.5746  0.1394 -0.9869
 3760TIP3    H235476   5.601   3.198  17.721  1.4649  0.6914  0.2563
 3761TIP3   OH235477   0.298   3.079  17.571 -0.6406  0.1271 -0.0211
 3761TIP3    H135478   0.292   3.075  17.666  0.7853  0.1116  0.0872
 3761TIP3    H235479   0.217   3.039  17.540 -0.8076 -0.4991  1.1775
 3762TIP3   OH235480   1.872   1.558  15.817 -0.4257  0.6116 -0.0307
 3762TIP3    H135481   1.822   1.631  15.854 -1.4170 -0.5236  0.9649
 3762TIP3    H235482   1.809   1.486  15.814  0.5290 -0.2042 -0.9875
 3763TIP3   OH235483   4.370   2.300  15.971  0.2027  0.1870 -0.2417
 3763TIP3    H135484   4.317   2.227  16.003  1.3979 -0.6555 -0.1403
 3763TIP3    H235485   4.459   2.280  16.000  0.5213  1.8347  0.0537
 3764TIP3   OH235486   5.753   5.080  16.239  0.0319  0.2495  0.4503
 3764TIP3    H135487   5.761   5.156  16.297  1.4473 -0.3476  1.0812
 3764TIP3    H235488   5.816   5.017  16.273  0.9520 -0.1173 -1.7564
 3765TIP3   OH235489   4.919   0.864  18.621 -0.0988 -0.3575 -0.6226
 3765TIP3    H135490   5.010   0.885  18.599  0.0194 -1.8337 -1.6535
 3765TIP3    H235491   4.904   0.908  18.705  1.2070  0.8201 -0.9642
 3766TIP3   OH235492   0.567   5.127  18.800  0.2461 -0.3278  0.0212
 3766TIP3    H135493   0.504   5.136  18.729 -2.2681  1.2785  2.2859
 3766TIP3    H235494   0.616   5.048  18.778 -2.2527 -1.4357 -2.0739
 3767TIP3   OH235495   2.104   0.217  18.666 -0.1921 -0.1612 -0.5763
 3767TIP3    H135496   2.079   0.307  18.646 -0.4598  0.0030  0.4291
 3767TIP3    H235497   2.144   0.222  18.753  1.1301 -0.7974 -1.1081
 3768TIP3   OH235498   5.489   4.300  17.465 -0.0466 -0.0030  0.1869
 3768TIP3    H135499   5.440   4.220  17.445  0.0654 -0.5583  1.9726
 3768TIP3    H235500   5.577   4.270  17.486 -0.3542  0.3900  2.2478
 3769TIP3   OH235501   1.476   3.861  18.046 -0.4995  1.0008 -0.0184
 3769TIP3    H135502   1.494   3.864  18.140 -2.3747 -1.5639  0.5537
 3769TIP3    H235503   1.502   3.773  18.019 -1.0462  1.2970 -1.6485
 3770TIP3   OH235504   0.638   3.838  18.234  0.2720  0.0607  0.1692
 3770TIP3    H135505   0.601   3.836  18.323 -1.1003 -0.3544 -0.3821
 3770TIP3    H235506   0.644   3.931  18.212  0.8368  0.1758  0.7673
 3771TIP3   OH235507   3.856   6.328  16.708 -0.2901 -0.1149 -0.4964
 3771TIP3    H135508   3.796   6.257  16.685 -2.5576  1.1166  1.1485
 3771TIP3    H235509   3.810   6.407  16.680  0.5102  0.8879  0.9191
 3772TIP3   OH235510   5.024   2.964  19.347  0.2412  0.2517 -0.1320
 3772TIP3    H135511   4.988   2.896  19.405 -0.6079  2.1241  1.6411
 3772TIP3    H235512   4.948   2.999  19.301  0.8552 -0.9440 -2.2379
 3773TIP3   OH235513   4.995   2.648  18.547 -0.6233  0.0435 -0.4763
 3773TIP3    H135514   4.916   2.598  18.568 -0.2739 -0.6650 -0.8061
 3773TIP3    H235515   4.997   2.652  18.452 -0.7379  0.8543 -0.4529
 3774TIP3   OH235516   3.828   1.328  18.041  0.0747  0.2294  0.0461
 3774TIP3    H135517   3.829   1.423  18.056 -1.1426  0.4767 -1.1984
 3774TIP3    H235518   3.838   1.319  17.946 -1.3642 -0.7965 -0.0402
 3775TIP3   OH235519   5.488   4.586  18.361  0.2392  0.0020  0.8252
 3775TIP3    H135520   5.522   4.605  18.449  1.3223  0.3987  0.3300
 3775TIP3    H235521   5.483   4.491  18.357  2.0878 -0.1170  0.6380
 3776TIP3   OH235522   3.027   0.998  17.721 -0.2378  0.6066  0.0914
 3776TIP3    H135523   3.077   0.917  17.712 -2.3358 -0.7498 -0.1621
 3776TIP3    H235524   3.078   1.064  17.674 -0.2555 -1.4113 -3.0549
 3777TIP3   OH235525   6.287   5.888  17.205 -0.2849  0.1127  0.1181
 3777TIP3    H135526   6.358   5.886  17.141  2.1504 -2.0200  2.6109
 3777TIP3    H235527   6.207   5.894  17.153  1.3870 -3.0089 -3.2771
 3778TIP3   OH235528   3.690   0.084  16.665  0.3640  0.3636 -0.3518
 3778TIP3    H135529   3.727   0.069  16.578  1.3429 -0.4042  0.1705
 3778TIP3    H235530   3.597   0.096  16.650  0.3873 -0.5949 -1.4314
 3779TIP3   OH235531   3.435   3.735  19.534  0.1353  0.1229 -0.1890
 3779TIP3    H135532   3.411   3.827  19.519 -0.4798 -0.0784 -0.4642
 3779TIP3    H235533   3.491   3.738  19.611  0.8094  0.8268 -0.6857
 3780TIP3   OH235534   1.312   0.129  17.493  0.6181  0.1822 -0.2253
 3780TIP3    H135535   1.241   0.072  17.522 -0.8183  0.8698 -2.1391
 3780TIP3    H235536   1.371   0.072  17.444  0.1775 -0.0015 -0.5453
 3781TIP3   OH235537   2.049   6.738  17.417 -0.0494  0.2554 -0.7763
 3781TIP3    H135538   1.992   6.662  17.431  2.8989 -1.9402  0.2978
 3781TIP3    H235539   2.077   6.763  17.505  1.5748  0.4968 -1.3412
 3782TIP3   OH235540   4.976   4.429  17.438  0.2078  0.0734  0.2149
 3782TIP3    H135541   5.007   4.389  17.357 -1.2562 -1.7168  0.4607
 3782TIP3    H235542   4.975   4.523  17.420 -0.6037 -0.3082 -2.0565
 3783TIP3   OH235543   6.300   3.712  17.273  0.3337 -0.6328 -0.4735
 3783TIP3    H135544   6.226   3.691  17.215 -0.2171 -1.2625  0.4379
 3783TIP3    H235545   6.307   3.636  17.330  0.0123  0.5318  1.1823
 3784TIP3   OH235546   0.942   0.135  17.973  0.3910 -0.2490 -0.4081
 3784TIP3    H135547   0.927   0.206  17.910  0.1910  1.2988  1.3063
 3784TIP3    H235548   0.854   0.109  18.000  0.4917 -0.3767 -0.2074
 3785TIP3   OH235549   4.933   2.238  16.840  0.5394 -0.4810  0.4521
 3785TIP3    H135550   4.990   2.207  16.910  0.2834  0.5592  1.1512
 3785TIP3    H235551   4.855   2.270  16.885 -0.5230 -1.6892 -0.4716
 3786TIP3   OH235552   6.647   5.630  16.186  0.5335 -0.3299  0.2728
 3786TIP3    H135553   6.575   5.602  16.244 -0.0049 -0.6539 -0.5400
 3786TIP3    H235554   6.671   5.551  16.138 -0.0079  0.2567 -0.9855
 3787TIP3   OH235555   1.092   1.063  18.807 -0.8557 -0.3178 -0.1929
 3787TIP3    H135556   1.037   0.992  18.840  0.9599 -1.1548  1.1946
 3787TIP3    H235557   1.146   1.089  18.881 -0.2267  1.3254 -1.1646
 3788TIP3   OH235558   1.393   6.276  16.180 -0.4695  0.1194 -0.4420
 3788TIP3    H135559   1.397   6.244  16.090  0.1230  1.7917 -1.0471
 3788TIP3    H235560   1.305   6.253  16.210 -0.6865 -0.4213 -1.4549
 3789TIP3   OH235561   4.159   6.438  16.788  0.1976 -0.0195 -0.2941
 3789TIP3    H135562   4.156   6.516  16.843 -0.1509 -0.4571  0.3172
 3789TIP3    H235563   4.214   6.463  16.713  2.5184 -0.0694  1.2859
 3790TIP3   OH235564   2.032   5.541  15.518  0.2756  0.0112 -0.0148
 3790TIP3    H135565   1.955   5.501  15.560  0.1095 -0.4558 -0.7445
 3790TIP3    H235566   2.106   5.490  15.551  0.4215  1.2299  1.6394
 3791TIP3   OH235567   4.893   4.057  18.452 -0.2643  0.4048  0.2715
 3791TIP3    H135568   4.901   4.152  18.446 -0.0176  0.3505 -0.2492
 3791TIP3    H235569   4.858   4.030  18.367 -0.3253  0.0262  0.4128
 3792TIP3   OH235570   5.884   6.159  16.402  0.3381 -0.0555 -0.5316
 3792TIP3    H135571   5.833   6.193  16.328 -0.3764 -0.3046 -0.1702
 3792TIP3    H235572   5.867   6.065  16.402  0.1833 -0.0340  0.0528
 3793TIP3   OH235573   0.316   3.261  16.905 -0.7860  0.1371  0.0836
 3793TIP3    H135574   0.232   3.305  16.914 -0.3426  1.1098 -0.4425
 3793TIP3    H235575   0.377   3.329  16.875  0.2011 -0.5364  0.4838
 3794TIP3   OH235576   2.841   2.570  17.560  0.5055 -0.3634 -0.0668
 3794TIP3    H135577   2.877   2.536  17.478  0.4057 -0.7097  0.0330
 3794TIP3    H235578   2.792   2.497  17.597 -1.0683  0.3316 -0.6505
 3795TIP3   OH235579   2.288   6.731  15.384  0.1648 -0.4969  0.3584
 3795TIP3    H135580   2.310   6.764  15.471  1.1319  0.8013 -0.3373
 3795TIP3    H235581   2.209   6.779  15.359  0.3404 -0.2907  0.2023
 3796TIP3   OH235582   0.433   0.524  18.343 -0.1289 -0.0837  0.7491
 3796TIP3    H135583   0.476   0.540  18.259  2.3590  0.3336  2.0128
 3796TIP3    H235584   0.352   0.575  18.338  0.7445  1.2605 -0.8020
 3797TIP3   OH235585   6.139   6.059  16.020  0.0801  0.3736  0.0486
 3797TIP3    H135586   6.150   5.976  16.065  1.5193  1.3352  1.6067
 3797TIP3    H235587   6.114   6.035  15.931  0.1853 -1.7024  0.5223
 3798TIP3   OH235588   4.538   1.885  17.944 -0.0798  0.0528  0.1448
 3798TIP3    H135589   4.472   1.951  17.922 -0.0279  0.3477  0.8346
 3798TIP3    H235590   4.509   1.849  18.028  0.6958  0.2651  0.5142
 3799TIP3   OH235591   2.499   3.452  19.462 -0.4728 -0.5063 -0.4163
 3799TIP3    H135592   2.417   3.455  19.511 -1.4449 -2.0862 -1.8464
 3799TIP3    H235593   2.478   3.489  19.377 -0.0258 -1.9797 -1.1990
 3800TIP3   OH235594   6.052   2.582  17.083 -0.6805 -0.3246  0.3694
 3800TIP3    H135595   6.090   2.640  17.149  1.2365 -1.0173 -0.0461
 3800TIP3    H235596   6.091   2.496  17.102  1.2355 -0.2385 -2.5373
 3801TIP3   OH235597   5.056   0.058  17.366 -0.3612 -0.7441 -0.6344
 3801TIP3    H135598   5.012   0.106  17.436  0.4220  0.5414 -0.9939
 3801TIP3    H235599   5.149   0.062  17.390 -0.3535 -3.6667  0.2862
 3802TIP3   OH235600   2.328   2.973  17.818  0.0813 -0.1708 -0.4947
 3802TIP3    H135601   2.380   2.894  17.831  1.5627  0.8432  0.0255
 3802TIP3    H235602   2.250   2.959  17.871 -0.0984 -1.6431 -1.1143
 3803TIP3   OH235603   2.731   4.262  16.177 -0.0125  0.2725  0.0454
 3803TIP3    H135604   2.679   4.182  16.183  1.3777 -0.5320  2.2782
 3803TIP3    H235605   2.714   4.294  16.088 -0.4026 -2.6332 -1.0428
 3804TIP3   OH235606   5.022   4.308  17.193 -0.2458  0.4292 -0.0400
 3804TIP3    H135607   4.961   4.240  17.163 -2.0101  1.6099  0.6571
 3804TIP3    H235608   5.106   4.286  17.153 -1.1391 -1.2732 -1.0617
 3805TIP3   OH235609   5.769   2.957  18.588 -0.0590 -0.2040 -0.0528
 3805TIP3    H135610   5.846   3.000  18.552  0.4605 -0.0348  1.2542
 3805TIP3    H235611   5.701   2.972  18.521  0.8973  0.0219 -1.0047
 3806TIP3   OH235612   1.299   0.993  17.328 -0.2706 -0.4664  0.3189
 3806TIP3    H135613   1.300   0.900  17.350  0.6778 -0.5109  0.1531
 3806TIP3    H235614   1.274   0.995  17.235 -0.2638 -0.5611  0.3139
 3807TIP3   OH235615   5.036   3.784  18.812 -0.1504 -0.4906 -0.3052
 3807TIP3    H135616   5.122   3.755  18.780 -0.1542 -0.6189 -0.2020
 3807TIP3    H235617   5.056   3.852  18.876 -0.1733  0.3218 -1.1516
 3808TIP3   OH235618   4.650   1.210  16.396  0.4482 -0.7069 -0.2363
 3808TIP3    H135619   4.702   1.156  16.455  0.0038 -1.3117 -0.3963
 3808TIP3    H235620   4.559   1.185  16.413  0.3763 -1.9367 -2.1773
 3809TIP3   OH235621   0.020   0.803  16.443  0.3988  0.3390 -0.3249
 3809TIP3    H135622   0.111   0.833  16.440  0.1815  0.9445 -1.2001
 3809TIP3    H235623  -0.017   0.844  16.521  0.7426  0.4621 -0.2261
 3810TIP3   OH235624   6.036   1.793  19.539 -0.1784  0.3386 -0.4940
 3810TIP3    H135625   6.076   1.829  19.460 -1.6067  1.6227 -0.6845
 3810TIP3    H235626   6.055   1.858  19.607 -4.0423  2.4816 -1.1568
 3811TIP3   OH235627   2.113   2.617  16.627  0.3856 -0.0074 -1.1515
 3811TIP3    H135628   2.028   2.650  16.597 -0.0605 -0.6759 -0.6321
 3811TIP3    H235629   2.137   2.549  16.563 -0.0644 -0.6884 -0.6069
 3812TIP3   OH235630   4.697   1.444  16.674 -0.0456  0.3043 -0.3315
 3812TIP3    H135631   4.710   1.355  16.705 -0.3095  0.9858  1.9137
 3812TIP3    H235632   4.777   1.490  16.699 -0.6180  1.0838  0.1096
 3813TIP3   OH235633   1.334   5.372  15.772 -0.3519 -0.0876 -0.2482
 3813TIP3    H135634   1.341   5.276  15.766  2.6635  0.0633 -0.7989
 3813TIP3    H235635   1.404   5.405  15.716 -2.2363  2.5505 -1.2523
 3814TIP3   OH235636   1.252   2.295  17.766  0.6401  0.9918  0.0399
 3814TIP3    H135637   1.270   2.275  17.858  0.0647 -2.4256 -0.4351
 3814TIP3    H235638   1.338   2.299  17.726  0.9656  3.6893  0.8279
 3815TIP3   OH235639   0.378   3.441  18.806 -0.0106 -0.5798 -0.0649
 3815TIP3    H135640   0.335   3.434  18.721 -0.2366 -0.5879  0.0489
 3815TIP3    H235641   0.460   3.487  18.788 -0.0606 -0.5751 -0.2850
 3816TIP3   OH235642   1.686   4.905  18.982 -0.3980  0.0942  0.3255
 3816TIP3    H135643   1.725   4.821  19.011  0.0752 -0.5355 -1.9682
 3816TIP3    H235644   1.636   4.935  19.058  1.9565 -0.6753  2.3314
 3817TIP3   OH235645   5.376   5.794  17.602  0.0446  0.2854 -0.6630
 3817TIP3    H135646   5.462   5.764  17.632 -0.7579 -2.8112 -1.0811
 3817TIP3    H235647   5.319   5.784  17.679 -0.1890  1.2761 -0.6946
 3818TIP3   OH235648   6.172   3.377  17.933 -0.2211 -0.2164  0.2547
 3818TIP3    H135649   6.238   3.395  17.867 -1.3568  0.1803 -0.8117
 3818TIP3    H235650   6.098   3.340  17.884 -1.6284  1.3774  1.0516
 3819TIP3   OH235651   4.325   0.472  16.429 -0.5945  0.6501  0.1959
 3819TIP3    H135652   4.239   0.453  16.468  0.3249  0.0755  2.0726
 3819TIP3    H235653   4.350   0.556  16.468  0.8578 -0.4901  1.8602
 3820TIP3   OH235654   4.017   0.688  17.707  0.3235  0.4940  0.5107
 3820TIP3    H135655   3.950   0.646  17.653  0.6273 -1.5246  1.6040
 3820TIP3    H235656   3.973   0.766  17.742 -1.2397 -0.3940  0.6304
 3821TIP3   OH235657   5.121   4.636  17.697  0.8246  0.2690  0.5687
 3821TIP3    H135658   5.208   4.597  17.693  0.2401 -0.9988 -0.3108
 3821TIP3    H235659   5.118   4.696  17.622  0.8251  0.0634  0.4046
 3822TIP3   OH235660   3.241   2.220  18.399  0.0090  0.4731  0.2031
 3822TIP3    H135661   3.255   2.278  18.474  1.5359  0.3003  0.0793
 3822TIP3    H235662   3.305   2.150  18.410 -0.5904 -0.2262 -0.6152
 3823TIP3   OH235663   6.535   3.840  16.410 -0.2865  0.3888  0.4611
 3823TIP3    H135664   6.553   3.830  16.316  1.8255  0.3396  0.8316
 3823TIP3    H235665   6.612   3.806  16.453 -0.5493  1.8411  2.1977
 3824TIP3   OH235666   0.605   0.367  17.617 -0.8438 -0.4031 -0.0545
 3824TIP3    H135667   0.580   0.459  17.625 -0.3542 -0.3670  1.3138
 3824TIP3    H235668   0.670   0.365  17.547 -0.1912  0.4449  0.5150
 3825TIP3   OH235669   6.464   2.550  18.971 -0.0592 -0.1739 -0.2218
 3825TIP3    H135670   6.389   2.547  18.912  1.3017 -0.8502 -2.0049
 3825TIP3    H235671   6.466   2.640  19.003  0.0106  0.6434 -2.3895
 3826TIP3   OH235672   1.656   5.483  18.379 -0.0107 -0.1410 -0.2104
 3826TIP3    H135673   1.743   5.499  18.417 -0.0031  0.4167 -0.4618
 3826TIP3    H235674   1.600   5.551  18.416 -0.7857 -1.5326  1.3407
 3827TIP3   OH235675   0.660   1.383  16.032 -0.3365  0.0864  0.1678
 3827TIP3    H135676   0.652   1.290  16.053 -2.8487  0.6201  1.9428
 3827TIP3    H235677   0.625   1.391  15.943 -2.5696 -0.3865  0.9397
 3828TIP3   OH235678   0.098   3.870  17.339 -0.0984  0.3837  0.4773
 3828TIP3    H135679   0.114   3.782  17.306 -0.2341  0.4042  0.3575
 3828TIP3    H235680   0.065   3.919  17.264 -0.8962  0.2931  0.7525
 3829TIP3   OH235681   2.332   3.160  18.104  0.0131 -0.4578  0.1858
 3829TIP3    H135682   2.346   3.134  18.013 -0.4526  1.1255 -0.3662
 3829TIP3    H235683   2.414   3.138  18.148  0.6553 -0.2165 -0.8553
 3830TIP3   OH235684   3.327   5.191  16.463  0.0916  0.5058  0.7061
 3830TIP3    H135685   3.250   5.151  16.421  1.1858 -0.5672 -0.3755
 3830TIP3    H235686   3.300   5.280  16.484 -1.1500  0.4304 -0.4684
 3831TIP3   OH235687   2.819   3.036  17.011 -0.1214  0.4846 -0.9573
 3831TIP3    H135688   2.726   3.047  16.992 -0.4120  0.7569  0.4474
 3831TIP3    H235689   2.851   2.975  16.944 -1.2937  0.4373 -1.4949
 3832TIP3   OH235690   5.855   1.575  16.888 -0.1914  0.0459  0.1911
 3832TIP3    H135691   5.906   1.494  16.891 -1.0965 -0.6116 -1.2877
 3832TIP3    H235692   5.891   1.628  16.959  2.6253 -0.3268 -0.8133
 3833TIP3   OH235693   1.307   6.097  18.771  0.0048  0.3072 -0.3531
 3833TIP3    H135694   1.241   6.083  18.839  0.5071  1.4085  0.3935
 3833TIP3    H235695   1.358   6.016  18.770  0.1969  0.4063  0.8175
 3834TIP3   OH235696   4.717   0.328  17.163 -0.1958  0.3197 -0.2353
 3834TIP3    H135697   4.648   0.352  17.101  1.1539  0.5413 -1.7393
 3834TIP3    H235698   4.712   0.233  17.169 -1.3665  0.4114  0.6145
 3835TIP3   OH235699   3.134   1.089  17.031 -0.4915  0.0101  0.8891
 3835TIP3    H135700   3.046   1.119  17.009 -0.6517 -0.3259  1.0692
 3835TIP3    H235701   3.187   1.111  16.954 -0.4021  1.5876  1.3714
 3836TIP3   OH235702   3.881   5.567  18.247 -0.0928  0.5267 -0.3230
 3836TIP3    H135703   3.898   5.523  18.330 -3.6914 -2.6701 -0.9504
 3836TIP3    H235704   3.964   5.562  18.199  1.1224 -0.6743  1.7810
 3837TIP3   OH235705   6.355   0.678  17.367 -0.0640  0.2720  0.0697
 3837TIP3    H135706   6.407   0.612  17.322  0.4897  1.3835 -0.9976
 3837TIP3    H235707   6.265   0.644  17.365  0.3952 -1.0163  0.6943
 3838TIP3   OH235708   2.750   2.938  17.789 -1.1369  0.6832 -0.4711
 3838TIP3    H135709   2.772   3.029  17.812  0.7225  0.2632 -0.4286
 3838TIP3    H235710   2.821   2.911  17.731 -1.6859 -0.7449 -0.4964
 3839TIP3   OH235711   2.113   3.756  18.027 -0.0538  0.1247 -0.5876
 3839TIP3    H135712   2.138   3.664  18.016  0.0360  0.1634 -0.7087
 3839TIP3    H235713   2.021   3.753  18.054 -0.3079  0.0299 -1.4295
 3840TIP3   OH235714   3.597   6.688  16.920  0.3590 -0.4202 -0.2589
 3840TIP3    H135715   3.540   6.761  16.945  0.1565 -0.5981 -0.1952
 3840TIP3    H235716   3.635   6.714  16.836  1.0590  0.1934  0.2442
 3841TIP3   OH235717   2.375   6.060  19.015  0.5701  0.6160 -0.4478
 3841TIP3    H135718   2.320   5.982  19.011  2.3937 -0.7976  0.9550
 3841TIP3    H235719   2.440   6.042  19.082  2.1803  2.6138 -1.3359
 3842TIP3   OH235720   0.883   5.874  16.824  0.4214  0.0457 -0.0270
 3842TIP3    H135721   0.792   5.890  16.797  0.8725  2.2162 -0.4228
 3842TIP3    H235722   0.914   5.805  16.766 -1.2404 -1.4678  0.7741
 3843TIP3   OH235723   4.754   4.885  17.279  0.3319 -0.0606  0.1827
 3843TIP3    H135724   4.798   4.927  17.206  1.3213  0.6577  1.1530
 3843TIP3    H235725   4.715   4.957  17.329  0.7635 -0.3944  1.0381
 3844TIP3   OH235726   1.815   1.746  16.381 -0.3459 -0.6373  0.1639
 3844TIP3    H135727   1.776   1.679  16.325 -1.6443 -0.0358  0.3139
 3844TIP3    H235728   1.751   1.760  16.450 -2.4365  4.0526 -2.3024
 3845TIP3   OH235729   6.269   3.108  18.805 -0.3236  0.5229  0.7822
 3845TIP3    H135730   6.233   3.055  18.877  0.0801  0.2869  0.8161
 3845TIP3    H235731   6.253   3.055  18.727 -2.5604  1.6593  0.4102
 3846TIP3   OH235732   5.787   3.364  17.135  0.0546 -0.2209 -0.3298
 3846TIP3    H135733   5.855   3.428  17.118  0.1925  0.0925  1.2609
 3846TIP3    H235734   5.705   3.410  17.118  0.1626  0.3128  0.5638
 3847TIP3   OH235735   4.567   5.263  18.555  0.2973  0.2395 -0.2129
 3847TIP3    H135736   4.473   5.282  18.549  0.1295  0.6059  2.3182
 3847TIP3    H235737   4.570   5.173  18.587  0.5927  1.2993  3.1710
 3848TIP3   OH235738   4.806   4.052  16.254 -0.1177 -0.1892  0.2175
 3848TIP3    H135739   4.831   3.964  16.280 -0.5499 -1.3210 -2.8030
 3848TIP3    H235740   4.713   4.058  16.275  0.0709 -0.1441  1.0826
 3849TIP3   OH235741   4.435   2.123  16.851 -0.6678  0.4505 -0.6627
 3849TIP3    H135742   4.448   2.216  16.872  1.7066  0.2116 -0.7542
 3849TIP3    H235743   4.366   2.122  16.785 -1.8774  1.9924  0.5237
 3850TIP3   OH235744   6.565   3.476  19.495 -0.0684 -0.4278  0.1641
 3850TIP3    H135745   6.518   3.560  19.487 -0.0167 -0.4847 -1.0425
 3850TIP3    H235746   6.654   3.496  19.464  0.7741 -0.3071  2.4737
 3851TIP3   OH235747   5.294   4.725  16.184  0.3440  0.6384  0.0714
 3851TIP3    H135748   5.271   4.817  16.172  2.2388  1.6300  2.9126
 3851TIP3    H235749   5.390   4.724  16.185  0.3793 -1.4299 -0.2242
 3852TIP3   OH235750   2.383   5.006  17.410 -0.2809  0.4195 -0.3711
 3852TIP3    H135751   2.406   4.930  17.463 -0.4934  0.8460  0.3585
 3852TIP3    H235752   2.350   4.969  17.328 -2.9403 -0.4333  0.9509
 3853TIP3   OH235753   1.259   6.719  19.064 -0.5326  0.6934 -0.3518
 3853TIP3    H135754   1.273   6.629  19.094 -0.7259  1.0236  0.7422
 3853TIP3    H235755   1.250   6.710  18.969 -1.8035 -0.6168 -0.1619
 3854TIP3   OH235756   1.340   3.084  16.680  0.1265 -0.0012  0.0142
 3854TIP3    H135757   1.265   3.028  16.657  0.1739 -0.6916  1.4515
 3854TIP3    H235758   1.416   3.026  16.671  0.0802 -0.5522  2.5470
 3855TIP3   OH235759   0.397   3.251  18.392 -0.0093 -0.3241  0.0108
 3855TIP3    H135760   0.306   3.246  18.419 -0.3729  1.5237 -0.7298
 3855TIP3    H235761   0.427   3.160  18.391 -1.4026 -0.8553  1.6434
 3856TIP3   OH235762   6.297   6.571  17.223 -0.0253 -0.4433 -0.1015
 3856TIP3    H135763   6.366   6.510  17.197  0.0724  0.5343 -2.4630
 3856TIP3    H235764   6.333   6.657  17.201 -2.1400  0.0562 -1.9809
 3857TIP3   OH235765   3.422   2.547  18.338  0.3280 -0.0341 -0.2927
 3857TIP3    H135766   3.412   2.633  18.379  1.0342 -0.1787  0.2068
 3857TIP3    H235767   3.418   2.485  18.410  1.0507 -0.3273 -0.4943
 3858TIP3   OH235768   5.120   6.590  17.803 -0.6213 -0.1488 -0.0100
 3858TIP3    H135769   5.026   6.573  17.799 -0.9667  0.4618  2.7292
 3858TIP3    H235770   5.160   6.525  17.746 -2.7362  0.3977 -2.2766
 3859TIP3   OH235771   1.631   4.777  18.733 -0.8020 -0.2640 -0.0148
 3859TIP3    H135772   1.700   4.804  18.672 -0.1807 -2.3009 -0.3003
 3859TIP3    H235773   1.632   4.844  18.801 -0.1099  0.9720 -1.2009
 3860TIP3   OH235774   0.742   1.414  19.057 -0.6280  0.6236  0.1595
 3860TIP3    H135775   0.789   1.357  18.996 -1.3088  0.5535 -0.3143
 3860TIP3    H235776   0.715   1.356  19.128 -2.5535  0.0071 -1.0043
 3861TIP3   OH235777   5.994   6.612  19.054 -0.4260  0.2452 -0.2662
 3861TIP3    H135778   6.075   6.606  19.002  0.2876  0.8169  0.7456
 3861TIP3    H235779   5.973   6.521  19.076  0.2255  0.1229 -0.1267
 3862TIP3   OH235780   1.677   3.647  18.294 -0.1067  0.3819  0.8806
 3862TIP3    H135781   1.635   3.730  18.317  0.6510  0.3945  2.3233
 3862TIP3    H235782   1.614   3.580  18.322 -1.6439  0.4048 -2.1139
 3863TIP3   OH235783   5.826   3.773  17.267 -0.2640  0.0810 -0.0853
 3863TIP3    H135784   5.890   3.843  17.276  0.7808 -0.7306 -0.9789
 3863TIP3    H235785   5.854   3.706  17.330  0.7606 -0.9673 -1.5857
 3864TIP3   OH235786   6.184   4.818  18.094 -0.0879 -0.1790  0.2886
 3864TIP3    H135787   6.205   4.876  18.021  1.8840 -2.0562 -0.7334
 3864TIP3    H235788   6.223   4.860  18.170 -0.2077  0.6815 -0.1175
 3865TIP3   OH235789   2.560   3.757  19.502  0.0114 -0.2156 -0.3349
 3865TIP3    H135790   2.564   3.663  19.519 -0.9685 -0.4570 -1.3233
 3865TIP3    H235791   2.631   3.774  19.441  0.7248 -0.1476  0.4953
 3866TIP3   OH235792   0.833   0.337  18.248  0.1548 -0.3102 -0.1656
 3866TIP3    H135793   0.760   0.373  18.198 -2.3305 -2.1426  1.8897
 3866TIP3    H235794   0.865   0.411  18.300 -1.3808  0.1926  0.1184
 3867TIP3   OH235795   1.131   3.218  17.225  0.2658  0.0603 -0.2265
 3867TIP3    H135796   1.119   3.176  17.140 -0.7374 -1.6088  0.7002
 3867TIP3    H235797   1.149   3.310  17.204 -1.3711 -0.0089 -2.2018
 3868TIP3   OH235798   2.973   3.131  18.680 -0.3963  0.1728  0.2039
 3868TIP3    H135799   3.001   3.040  18.684  0.5532  0.4402  0.0145
 3868TIP3    H235800   2.889   3.129  18.633  0.6212 -0.4000 -1.6980
 3869TIP3   OH235801   0.596   6.334  19.066  0.0289  0.0872 -0.3456
 3869TIP3    H135802   0.569   6.252  19.023 -0.1038  0.7297 -1.5543
 3869TIP3    H235803   0.526   6.395  19.044  0.2596  0.5952  0.3311
 3870TIP3   OH235804   1.447   1.878  18.092 -0.1098  0.4090  0.4145
 3870TIP3    H135805   1.387   1.808  18.115  1.2851 -1.4430 -1.2408
 3870TIP3    H235806   1.416   1.908  18.006  1.3707 -0.7156 -0.5570
 3871TIP3   OH235807   4.668   3.151  15.845 -0.3063  0.8720 -0.3898
 3871TIP3    H135808   4.658   3.088  15.916 -0.8698 -1.0953 -2.1313
 3871TIP3    H235809   4.734   3.213  15.877  0.9849 -1.1299  1.0271
 3872TIP3   OH235810   0.462   6.014  17.039 -0.5782 -0.3405  0.3308
 3872TIP3    H135811   0.374   6.041  17.065 -1.2659 -0.7702 -1.3627
 3872TIP3    H235812   0.509   5.999  17.121 -1.7638  0.8895  1.2733
 3873TIP3   OH235813   6.586   0.783  17.967 -0.0213 -0.3197 -0.2186
 3873TIP3    H135814   6.508   0.775  17.911  0.1423 -3.5990 -0.1761
 3873TIP3    H235815   6.560   0.742  18.050  0.8964  1.1585  0.8540
 3874TIP3   OH235816   2.506   5.964  16.646 -0.1167  0.0689 -0.1347
 3874TIP3    H135817   2.601   5.972  16.655 -0.1036 -0.1624 -0.0525
 3874TIP3    H235818   2.470   6.044  16.683  0.0640  0.3189 -0.4972
 3875TIP3   OH235819   3.611   6.634  18.126 -0.4262 -0.5212 -0.2796
 3875TIP3    H135820   3.553   6.708  18.147 -0.4764 -0.6745  0.1421
 3875TIP3    H235821   3.640   6.602  18.212  1.6636  0.6247 -0.5019
 3876TIP3   OH235822   5.065   1.412  16.581 -0.2095 -0.2477  0.1847
 3876TIP3    H135823   5.005   1.429  16.654 -0.8899  0.7106 -0.5658
 3876TIP3    H235824   5.143   1.464  16.602  0.4498 -1.6087  1.2341
 3877TIP3   OH235825   4.158   0.921  16.840  0.9275 -0.0994  0.4679
 3877TIP3    H135826   4.078   0.943  16.792  1.0910 -1.0499 -0.2556
 3877TIP3    H235827   4.154   0.826  16.852  0.9462  0.0820  2.2598
 3878TIP3   OH235828   5.250   6.548  16.125  0.3128 -0.5958 -0.0407
 3878TIP3    H135829   5.155   6.535  16.127  0.1733  0.0665 -1.4660
 3878TIP3    H235830   5.266   6.617  16.189 -0.1726 -0.6677  0.1597
 3879TIP3   OH235831   0.262   5.784  15.822 -0.6405 -0.5048 -0.3339
 3879TIP3    H135832   0.247   5.740  15.738 -1.7025  0.1911 -0.5400
 3879TIP3    H235833   0.193   5.751  15.879 -0.4712 -0.3031 -0.0110
 3880TIP3   OH235834   2.580   5.179  17.361  0.3073 -0.3931 -0.5658
 3880TIP3    H135835   2.536   5.258  17.331  0.4696 -0.1880 -0.2704
 3880TIP3    H235836   2.509   5.123  17.392  0.2393 -0.0879 -0.1496
 3881TIP3   OH235837   6.032   0.590  18.938 -0.0450 -0.0794 -0.8047
 3881TIP3    H135838   6.108   0.628  18.895 -1.2976  2.3354 -1.0403
 3881TIP3    H235839   6.069   0.540  19.012  1.8364 -0.6863 -2.0918
 3882TIP3   OH235840   5.103   0.751  17.251 -0.2828  0.6019 -0.3115
 3882TIP3    H135841   5.195   0.726  17.245  0.1755  2.0774  0.1912
 3882TIP3    H235842   5.059   0.693  17.189  1.0084  0.0325 -0.7371
 3883TIP3   OH235843   1.241   3.055  18.522  0.0804 -0.0818  0.2517
 3883TIP3    H135844   1.318   2.997  18.517 -0.3542 -0.5635 -1.2373
 3883TIP3    H235845   1.170   2.998  18.549 -0.3808 -0.3173 -1.3602
 3884TIP3   OH235846   4.636   1.022  18.634  0.0691 -0.0265 -0.0516
 3884TIP3    H135847   4.613   1.040  18.725 -1.9546  0.6783 -0.6631
 3884TIP3    H235848   4.708   0.959  18.640 -0.0360 -0.0183  2.0244
 3885TIP3   OH235849   3.953   4.721  18.190  0.3343 -0.4592 -0.4921
 3885TIP3    H135850   3.992   4.783  18.252 -1.5795  0.7267 -0.4137
 3885TIP3    H235851   4.018   4.712  18.120  2.6673 -1.9856  1.6722
 3886TIP3   OH235852   4.969   2.338  16.582 -0.6329 -0.2341 -0.4396
 3886TIP3    H135853   5.037   2.287  16.539 -0.6935 -0.7303  0.0360
 3886TIP3    H235854   4.970   2.308  16.673 -1.0525  0.2098 -0.2804
 3887TIP3   OH235855   4.663   3.745  18.286  0.8005 -0.1075  0.3636
 3887TIP3    H135856   4.588   3.690  18.265  0.5115  0.2961  0.3219
 3887TIP3    H235857   4.703   3.703  18.362 -0.5395  0.6522  1.5515
 3888TIP3   OH235858   0.852   1.762  17.925 -0.0960 -0.2826  0.1107
 3888TIP3    H135859   0.930   1.787  17.874  1.4702 -1.7217  1.6507
 3888TIP3    H235860   0.836   1.671  17.900  0.7696 -1.0554  2.1454
 3889TIP3   OH235861   4.346   2.746  17.833 -0.2830  0.0710  0.3437
 3889TIP3    H135862   4.371   2.823  17.885  0.2410 -1.0982  1.9208
 3889TIP3    H235863   4.251   2.740  17.844 -0.3992  0.7410 -0.1881
 3890TIP3   OH235864   5.703   2.361  18.279  0.3631  0.7310 -0.0018
 3890TIP3    H135865   5.698   2.266  18.293  1.7847  0.7441  0.7392
 3890TIP3    H235866   5.630   2.380  18.220  0.3095 -0.8766 -0.4999
 3891TIP3   OH235867   6.221   4.177  17.112 -0.1796 -0.7658 -0.1875
 3891TIP3    H135868   6.270   4.232  17.173 -1.6125  0.9103 -0.4318
 3891TIP3    H235869   6.282   4.109  17.085  1.3827  0.1441  0.9222
 3892TIP3   OH235870   1.729   2.846  16.998  0.5173  0.3213  0.1024
 3892TIP3    H135871   1.786   2.878  16.929  2.1535 -1.5224  0.5063
 3892TIP3    H235872   1.728   2.915  17.064  0.8887  1.0827 -0.6850
 3893TIP3   OH235873   2.380   4.110  19.158 -0.4871  0.6806  0.5115
 3893TIP3    H135874   2.413   4.186  19.207  2.1004 -0.4308  0.6318
 3893TIP3    H235875   2.383   4.138  19.067 -0.4613  1.0625  0.6264
 3894TIP3   OH235876   2.017   2.076  17.439  0.4098  0.1711 -0.3355
 3894TIP3    H135877   1.990   2.038  17.523 -0.7520 -0.2765 -0.8936
 3894TIP3    H235878   2.003   2.170  17.450  1.8594  0.3273  0.5246
 3895TIP3   OH235879   0.246   3.700  19.517  0.2595 -0.1795 -0.4010
 3895TIP3    H135880   0.178   3.750  19.562  2.7614  3.4589 -0.2015
 3895TIP3    H235881   0.233   3.722  19.424 -0.1657 -1.3465 -0.6313
 3896TIP3   OH235882   3.713   4.809  18.677  0.4571  0.3061 -0.3277
 3896TIP3    H135883   3.657   4.733  18.695  1.0908  0.0093  0.4285
 3896TIP3    H235884   3.655   4.884  18.685  0.2317  0.0250  0.8245
 3897TIP3   OH235885   0.385   0.595  17.383  0.2179  0.1088 -0.2604
 3897TIP3    H135886   0.392   0.503  17.356  1.0035 -0.1246  0.6838
 3897TIP3    H235887   0.462   0.610  17.438 -0.4748  1.0123  0.5055
 3898TIP3   OH235888   1.559   1.492  17.928 -0.1606 -0.1876  0.1287
 3898TIP3    H135889   1.490   1.551  17.897  0.3329  1.0931  1.3673
 3898TIP3    H235890   1.558   1.419  17.866 -2.2373  0.0740 -0.2070
 3899TIP3   OH235891   5.012   0.079  16.391  0.0473  0.2565  0.1600
 3899TIP3    H135892   4.953   0.121  16.453 -0.0764  0.9052 -0.3767
 3899TIP3    H235893   5.071   0.027  16.445  1.0296  2.1321  0.9735
 3900TIP3   OH235894   2.869   0.624  18.952  0.2431  0.5906  0.3418
 3900TIP3    H135895   2.786   0.583  18.973  0.2498  0.8232  0.8360
 3900TIP3    H235896   2.863   0.712  18.990 -0.5131  1.7722 -2.2632
 3901TIP3   OH235897   3.373   5.314  17.590 -0.6039  0.4833  0.1138
 3901TIP3    H135898   3.333   5.233  17.620 -0.0494 -0.4639 -1.5796
 3901TIP3    H235899   3.392   5.363  17.670 -0.7902 -1.1179  1.1737
 3902TIP3   OH235900   6.226   3.147  16.274  0.4482 -0.0570 -0.3669
 3902TIP3    H135901   6.191   3.075  16.222 -1.6443  0.1017  0.7196
 3902TIP3    H235902   6.153   3.175  16.329  2.5610 -0.3842  2.8775
 3903TIP3   OH235903   1.421   5.839  16.667  0.4310 -0.2024 -0.1257
 3903TIP3    H135904   1.346   5.851  16.609  0.1282 -0.2342  0.2583
 3903TIP3    H235905   1.496   5.872  16.617  0.2315 -0.5922 -0.6830
 3904TIP3   OH235906   4.483   3.893  18.499  0.1755  0.1952 -0.3794
 3904TIP3    H135907   4.535   3.849  18.432  0.7292  0.5338 -0.1789
 3904TIP3    H235908   4.407   3.927  18.452  0.1465 -0.2792 -0.6795
 3905TIP3   OH235909   2.710   3.923  17.420 -1.0263 -0.2870 -0.4827
 3905TIP3    H135910   2.793   3.896  17.460 -0.5591 -0.3396 -1.4631
 3905TIP3    H235911   2.703   4.016  17.441 -0.8353 -0.3288 -0.2100
 3906TIP3   OH235912   4.792   1.315  18.882 -0.6370 -0.0243  0.4630
 3906TIP3    H135913   4.756   1.341  18.967 -1.1061 -0.0031  0.2607
 3906TIP3    H235914   4.733   1.246  18.851 -1.1806  0.7872 -0.3825
 3907TIP3   OH235915   0.484   6.125  18.905  0.2512 -0.0852 -1.0930
 3907TIP3    H135916   0.540   6.130  18.828  0.2286 -1.1274 -1.1923
 3907TIP3    H235917   0.397   6.107  18.870  0.2215 -0.4524 -0.8308
 3908TIP3   OH235918   2.387   5.605  18.484 -0.6443  0.2599 -0.2375
 3908TIP3    H135919   2.368   5.532  18.426  1.0225 -2.2748  2.1749
 3908TIP3    H235920   2.481   5.619  18.475 -0.4011  0.0057  1.5625
 3909TIP3   OH235921   2.839   5.008  16.605  0.2917 -0.2249  0.4149
 3909TIP3    H135922   2.864   4.922  16.570  0.7419 -1.1997  2.8929
 3909TIP3    H235923   2.904   5.026  16.674 -0.9981  1.1149  1.3528
 3910TIP3   OH235924   0.730   3.267  18.520  0.1650 -0.5149  0.2614
 3910TIP3    H135925   0.805   3.227  18.563  0.8111  0.9666  0.5693
 3910TIP3    H235926   0.666   3.279  18.590  1.2634  2.0133  0.9558
 3911TIP3   OH235927   4.979   1.673  16.763 -0.0656  0.5276 -0.2601
 3911TIP3    H135928   5.065   1.654  16.800  0.1421  1.7206 -0.0946
 3911TIP3    H235929   4.997   1.737  16.694 -0.6893 -0.1377 -1.0661
 3912TIP3   OH235930   3.462   6.095  17.697  0.2085  0.2307 -0.0352
 3912TIP3    H135931   3.394   6.029  17.684 -0.1536  0.8372 -1.3772
 3912TIP3    H235932   3.513   6.093  17.616  2.7098 -1.1863  1.4231
 3913TIP3   OH235933   2.638   4.198  17.429  0.2611 -0.8156  0.3391
 3913TIP3    H135934   2.582   4.237  17.362 -0.3428 -3.3036 -0.7527
 3913TIP3    H235935   2.608   4.235  17.511 -1.3799 -0.2900 -0.4621
 3914TIP3   OH235936   6.127   2.678  18.375 -0.2114 -0.9511 -0.4839
 3914TIP3    H135937   6.183   2.638  18.309  1.7339 -0.4482  0.7892
 3914TIP3    H235938   6.072   2.605  18.406  1.9052 -2.2835  0.4064
 3915TIP3   OH235939   4.499   5.137  16.903  0.4342  0.0435 -0.3363
 3915TIP3    H135940   4.514   5.119  16.810  0.7458 -0.8364 -0.1234
 3915TIP3    H235941   4.447   5.062  16.934 -0.8119  0.9701 -0.0888
 3916TIP3   OH235942   6.676   4.214  18.760  0.7115 -0.3095  0.0633
 3916TIP3    H135943   6.617   4.210  18.835 -0.2637  1.9845 -0.4847
 3916TIP3    H235944   6.764   4.216  18.798  0.2939 -0.5541  1.0574
 3917TIP3   OH235945   6.167   5.624  18.654 -0.0794 -0.4637  0.3469
 3917TIP3    H135946   6.202   5.618  18.743  1.5088 -1.6672 -0.2994
 3917TIP3    H235947   6.184   5.538  18.616  0.6091  0.4638 -1.5825
 3918TIP3   OH235948   1.049   3.975  17.576  0.1997  0.0998  0.2111
 3918TIP3    H135949   1.124   4.022  17.612 -0.2967  0.7898  0.3538
 3918TIP3    H235950   1.032   3.905  17.638 -1.7704  2.3155  2.3733
 3919TIP3   OH235951   4.886   0.885  18.900  0.5687 -0.4254 -0.2289
 3919TIP3    H135952   4.852   0.924  18.981  0.7570  0.1452 -0.4180
 3919TIP3    H235953   4.843   0.800  18.894 -1.1506  0.4358 -0.6696
 3920TIP3   OH235954   3.474   1.067  19.217  0.0843 -0.9350 -0.2183
 3920TIP3    H135955   3.404   1.117  19.175  0.9434  0.8915  0.4312
 3920TIP3    H235956   3.536   1.050  19.147  0.3643 -0.0181 -0.1955
 3921TIP3   OH235957   1.102   5.537  18.434  0.1433 -0.7280 -0.0318
 3921TIP3    H135958   1.064   5.557  18.349  1.4471 -2.1571 -1.0040
 3921TIP3    H235959   1.138   5.621  18.464 -2.2559  0.2921  0.2084
 3922TIP3   OH235960   0.403   2.459  18.980  0.3883 -0.0522 -0.0441
 3922TIP3    H135961   0.334   2.436  18.918 -0.8222  1.7838  0.5072
 3922TIP3    H235962   0.485   2.443  18.933 -0.4753  0.6724 -1.9089
 3923TIP3   OH235963   1.975   5.261  18.045 -0.3611 -0.0172 -0.1098
 3923TIP3    H135964   1.893   5.295  18.082 -0.3205 -0.3841  0.3303
 3923TIP3    H235965   1.970   5.283  17.952 -1.1362 -0.3673 -0.1652
 3924TIP3   OH235966   1.225   0.811  18.690 -0.3327  0.4055  0.2099
 3924TIP3    H135967   1.168   0.736  18.705  1.2714 -1.2513 -1.4175
 3924TIP3    H235968   1.181   0.884  18.732 -3.3241 -0.8917 -0.4390
 3925TIP3   OH235969   5.042   3.637  19.128 -0.1371 -0.5109 -0.4399
 3925TIP3    H135970   4.993   3.695  19.069 -0.1617 -0.8870 -0.7910
 3925TIP3    H235971   5.120   3.687  19.152 -0.8128  0.2051  0.3439
 3926TIP3   OH235972   1.661   5.237  19.176  0.0348 -0.0941 -0.3023
 3926TIP3    H135973   1.593   5.169  19.170  1.4858 -1.6297 -0.0400
 3926TIP3    H235974   1.661   5.277  19.089 -1.4233  0.1817 -0.2038
 3927TIP3   OH235975   4.655   3.765  16.783 -0.2378 -0.2224  0.1174
 3927TIP3    H135976   4.567   3.726  16.781 -0.1781 -0.4570  1.2425
 3927TIP3    H235977   4.643   3.851  16.742 -1.4539  0.5777  2.0056
 3928TIP3   OH235978   0.421   3.974  16.702  0.9623 -0.1060  0.2274
 3928TIP3    H135979   0.480   3.942  16.634  1.3346 -0.9090  0.9024
 3928TIP3    H235980   0.392   3.894  16.747 -0.0272  0.3422  0.3970
 3929TIP3   OH235981   5.086   6.654  18.503 -0.1972 -0.0832 -0.1517
 3929TIP3    H135982   5.165   6.653  18.449  0.3341 -0.1973  0.6080
 3929TIP3    H235983   5.073   6.747  18.523 -1.3669  0.1635 -1.8281
 3930TIP3   OH235984   1.109   3.336  18.922 -0.4052  0.1447 -0.0728
 3930TIP3    H135985   1.133   3.338  19.015  1.5183  1.9737 -0.5314
 3930TIP3    H235986   1.193   3.332  18.876 -1.2212  1.2231 -1.7350
 3931TIP3   OH235987   2.557   2.317  16.965 -0.0391 -0.3652 -0.0773
 3931TIP3    H135988   2.605   2.361  16.894 -0.5227 -1.1598 -0.9166
 3931TIP3    H235989   2.618   2.319  17.039 -0.5283  2.9766  0.4250
 3932TIP3   OH235990   1.033   5.001  17.132  1.1796  0.1979  0.3123
 3932TIP3    H135991   1.048   5.086  17.090 -0.6950  2.2244  3.3972
 3932TIP3    H235992   1.095   4.999  17.205  0.9670 -0.9735  0.4804
 3933TIP3   OH235993   6.408   5.379  16.989 -0.4109 -0.2872  0.1348
 3933TIP3    H135994   6.392   5.357  17.081  0.9055 -2.5697 -0.1048
 3933TIP3    H235995   6.502   5.397  16.986 -0.8728  2.4174 -0.3446
 3934TIP3   OH235996   3.553   3.887  18.618 -0.0270 -0.2046 -0.0292
 3934TIP3    H135997   3.598   3.840  18.548  0.4884  0.9685 -0.5061
 3934TIP3    H235998   3.490   3.823  18.653  2.5509 -2.1971  1.2782
 3935TIP3   OH235999   6.640   4.764  17.339 -0.0379 -0.4479 -0.2342
 3935TIP3    H136000   6.687   4.751  17.257 -1.7292 -1.4102 -1.1191
 3935TIP3    H236001   6.692   4.718  17.404 -0.1510 -2.2261 -1.3305
 3936TIP3   OH236002   2.381   5.699  17.316  0.8749  0.3732  0.0172
 3936TIP3    H136003   2.407   5.725  17.228  1.3584  1.3629  0.4289
 3936TIP3    H236004   2.289   5.727  17.323  0.7821  0.1279 -0.2340
 3937TIP3   OH236005   1.763   2.794  18.054 -0.2383  0.2879 -0.2992
 3937TIP3    H136006   1.822   2.783  17.980  2.2410  1.0181  1.4311
 3937TIP3    H236007   1.728   2.883  18.044 -1.1484 -0.1684 -1.3643
 3938TIP3   OH236008   6.693   4.634  16.813  0.0344 -0.1929 -0.6471
 3938TIP3    H136009   6.614   4.596  16.776 -1.2512 -0.1909  1.8738
 3938TIP3    H236010   6.735   4.562  16.861 -0.1916  0.5118  0.6705
 3939TIP3   OH236011   5.588   4.503  17.770  0.2120 -0.7501  0.6860
 3939TIP3    H136012   5.518   4.501  17.704  0.5578 -1.4676  0.3217
 3939TIP3    H236013   5.625   4.591  17.763 -0.0858 -0.6515  0.2657
 3940TIP3   OH236014   6.043   5.429  16.618  0.0810 -0.1145 -0.4175
 3940TIP3    H136015   6.103   5.397  16.550 -0.8387 -0.7326 -0.9770
 3940TIP3    H236016   6.062   5.374  16.694 -0.2979 -0.8596 -0.8411
 3941TIP3   OH236017   5.136   0.648  18.753  0.4534 -0.3117 -0.0517
 3941TIP3    H136018   5.169   0.703  18.824  1.2388 -2.0620  1.0308
 3941TIP3    H236019   5.136   0.704  18.676 -1.1213  1.8741  1.4552
 3942TIP3   OH236020   6.731   3.710  16.542  0.3898 -0.0974  0.0105
 3942TIP3    H136021   6.697   3.647  16.605  0.8563  0.0987  0.4620
 3942TIP3    H236022   6.755   3.786  16.594  1.0807 -0.0567 -0.3566
 3943TIP3   OH236023   2.518   5.289  19.058  0.4463 -0.3399  0.1297
 3943TIP3    H136024   2.492   5.377  19.086 -0.9252 -0.1346 -1.6428
 3943TIP3    H236025   2.436   5.239  19.058  0.7028 -0.8036 -1.6678
 3944TIP3   OH236026   4.606   5.744  17.949 -0.2922  0.6869 -0.0802
 3944TIP3    H136027   4.581   5.699  17.869  2.8713  0.0963 -0.8736
 3944TIP3    H236028   4.530   5.735  18.007 -1.7406 -1.0199 -2.0982
 3945TIP3   OH236029   6.606   3.531  16.702 -0.2496 -0.4753 -0.4504
 3945TIP3    H136030   6.515   3.501  16.709 -0.6854  0.8193 -0.1898
 3945TIP3    H236031   6.643   3.515  16.788 -0.4178 -0.4704 -0.3767
 3946TIP3   OH236032   6.649   4.924  18.160 -0.1754  0.3085  0.2553
 3946TIP3    H136033   6.631   4.997  18.100 -1.2313 -1.5006 -1.7725
 3946TIP3    H236034   6.565   4.906  18.202  0.2593  0.7223  1.3167
 3947TIP3   OH236035   2.058   4.971  19.218 -0.1160 -0.0798  0.2504
 3947TIP3    H136036   2.138   4.919  19.211  0.5980  0.7666  1.7165
 3947TIP3    H236037   2.003   4.923  19.280 -1.5618 -1.5686 -2.0036
 3948TIP3   OH236038   1.506   4.493  17.668 -0.0162 -0.4601 -0.1409
 3948TIP3    H136039   1.474   4.434  17.736 -0.9076 -0.9223 -0.9368
 3948TIP3    H236040   1.443   4.564  17.666 -1.3755 -1.6229 -2.0621
 3949TIP3   OH236041   1.717   0.929  18.046 -0.4175  0.5674 -0.6550
 3949TIP3    H136042   1.710   0.846  17.999  0.6132 -0.3787  0.7864
 3949TIP3    H236043   1.699   0.906  18.137 -0.5054  2.0107 -0.2906
 3950TIP3   OH236044   4.880   6.619  18.801 -0.2614  0.4167 -0.0410
 3950TIP3    H136045   4.788   6.613  18.827  0.3803  2.0087  3.1388
 3950TIP3    H236046   4.878   6.655  18.713 -2.6513 -0.7081 -0.5409
 3951TIP3   OH236047   4.019   0.675  16.863 -0.2897 -0.2408 -0.2895
 3951TIP3    H136048   4.012   0.609  16.932  1.0011 -0.8325 -0.6922
 3951TIP3    H236049   3.995   0.629  16.783  1.5909 -0.5574 -0.7258
 3952TIP3   OH236050   5.124   0.114  17.777 -0.3018  0.2576 -0.1855
 3952TIP3    H136051   5.115   0.021  17.798 -0.0978  0.4131  0.5941
 3952TIP3    H236052   5.084   0.123  17.690  0.9861 -0.8254 -0.9225
 3953TIP3   OH236053   2.748   2.183  16.589  0.6250 -0.7278  0.1135
 3953TIP3    H136054   2.709   2.217  16.670  1.2394 -0.5678  0.3552
 3953TIP3    H236055   2.840   2.211  16.594  0.5534 -0.2646 -0.8852
 3954TIP3   OH236056   4.451   5.478  17.239  0.0326  0.0205 -0.3581
 3954TIP3    H136057   4.388   5.549  17.242 -0.8036 -0.6152 -1.7850
 3954TIP3    H236058   4.529   5.515  17.198  0.4090  0.6581  0.8907
 3955TIP3   OH236059   0.988   4.524  19.295 -0.0155 -0.0446  0.1773
 3955TIP3    H136060   1.008   4.498  19.385  1.3416  0.8316  0.1501
 3955TIP3    H236061   0.975   4.442  19.248 -1.7828 -0.5039  1.3716
 3956TIP3   OH236062   5.243   6.526  16.818  0.0216  0.3079  0.0474
 3956TIP3    H136063   5.265   6.446  16.771  0.8337  1.0120 -0.8164
 3956TIP3    H236064   5.315   6.538  16.880 -0.2972  0.1627  0.4468
 3957TIP3   OH236065   3.942   1.100  18.539 -0.0496 -0.5104  0.3981
 3957TIP3    H136066   3.950   1.072  18.448  0.3322  1.5157 -0.2605
 3957TIP3    H236067   4.028   1.086  18.576  0.0267 -0.5865  0.1954
 3958TIP3   OH236068   2.335   0.818  18.436  0.0528  0.5116 -0.5756
 3958TIP3    H136069   2.391   0.808  18.513 -1.9415 -0.5309  0.8401
 3958TIP3    H236070   2.338   0.732  18.393  0.2559  0.7290 -0.9918
 3959TIP3   OH236071   6.351   3.652  16.596  0.0437 -0.1101  0.1435
 3959TIP3    H136072   6.301   3.597  16.535 -0.4442 -0.5334  0.9043
 3959TIP3    H236073   6.402   3.711  16.540  0.6633 -1.4094 -0.6933
 3960TIP3   OH236074   1.406   2.570  17.126  0.6836  0.5371 -0.7712
 3960TIP3    H136075   1.407   2.642  17.064 -2.2923  1.2843 -0.1187
 3960TIP3    H236076   1.391   2.611  17.211  1.7636 -0.6682  0.0449
 3961TIP3   OH236077   3.958   6.556  16.260 -0.5482 -0.3305 -0.0650
 3961TIP3    H136078   3.935   6.470  16.295 -0.7251 -1.1402 -2.0518
 3961TIP3    H236079   3.970   6.541  16.166  0.0574  1.6960 -0.3472
 3962TIP3   OH236080   6.372   4.852  16.461  0.2440 -0.1675 -0.0974
 3962TIP3    H136081   6.312   4.927  16.457  0.2819 -0.1906 -2.6437
 3962TIP3    H236082   6.454   4.886  16.425  0.5467 -1.1567 -0.3689
 3963TIP3   OH236083   1.168   5.416  18.680 -0.1539 -0.1366  0.3572
 3963TIP3    H136084   1.119   5.461  18.612 -0.9273  0.4466  1.2734
 3963TIP3    H236085   1.103   5.358  18.721 -0.2099  0.9460  1.8534
 3964TIP3   OH236086   5.823   1.240  17.717  0.4574  0.0496  0.3489
 3964TIP3    H136087   5.736   1.263  17.751  0.6062  2.1478 -0.4998
 3964TIP3    H236088   5.807   1.168  17.656 -0.6638  0.2790  0.3569
 3965TIP3   OH236089   3.264   1.262  17.600 -0.1024  0.1990 -0.2357
 3965TIP3    H136090   3.260   1.179  17.553 -0.2589  0.1880 -0.2023
 3965TIP3    H236091   3.274   1.328  17.531  0.3182  0.1301 -0.2449
 3966TIP3   OH236092   2.152   5.174  17.384 -0.2293 -0.7457  0.2625
 3966TIP3    H136093   2.112   5.108  17.441  1.0341 -1.3912  0.4427
 3966TIP3    H236094   2.245   5.150  17.381 -0.0129  0.1256 -0.9121
 3967TIP3   OH236095   0.935   3.805  19.332 -0.7579  0.1472 -0.0268
 3967TIP3    H136096   0.842   3.799  19.308 -0.7549  0.2399 -0.0641
 3967TIP3    H236097   0.971   3.871  19.272 -0.4354 -0.6241 -0.6909
 3968TIP3   OH236098   3.402   2.095  17.668 -0.1997 -0.0035  0.2767
 3968TIP3    H136099   3.470   2.146  17.713  0.3121  0.9883 -1.5264
 3968TIP3    H236100   3.322   2.145  17.680  0.0622  0.6057 -0.4225
 3969TIP3   OH236101   0.899   5.845  18.286  0.2188 -0.1603 -0.0575
 3969TIP3    H136102   0.898   5.899  18.206 -0.1819  0.3413  0.2775
 3969TIP3    H236103   0.960   5.774  18.266  0.4435  0.1904 -0.6598
 3970TIP3   OH236104   5.101   3.696  17.198 -0.4050  0.3505 -0.4179
 3970TIP3    H136105   5.154   3.620  17.222 -1.9265 -0.8857 -0.7747
 3970TIP3    H236106   5.044   3.710  17.274  1.0493  2.3292  0.4085
 3971TIP3   OH236107   3.481   5.004  18.246  0.1795 -0.0850  0.0441
 3971TIP3    H136108   3.547   5.066  18.279  1.4404 -1.7789  0.8645
 3971TIP3    H236109   3.513   4.918  18.274 -3.4396 -0.8858  2.3661
 3972TIP3   OH236110   3.948   4.742  17.821 -0.1734 -0.1681 -0.4332
 3972TIP3    H136111   3.855   4.754  17.840 -0.3517  0.4050 -1.6250
 3972TIP3    H236112   3.984   4.831  17.815  0.4736 -0.3816  0.0685
 3973TIP3   OH236113   2.131   1.654  19.640 -0.2318 -0.0472  0.4009
 3973TIP3    H136114   2.052   1.618  19.600 -0.1743  0.3723 -0.0922
 3973TIP3    H236115   2.199   1.589  19.624 -0.0374  0.4341 -0.8228
 3974TIP3   OH236116   2.506   6.626  17.149  0.1019 -0.4580 -0.0440
 3974TIP3    H136117   2.482   6.567  17.078  0.1076  1.7156 -1.9563
 3974TIP3    H236118   2.594   6.599  17.175 -0.3517 -2.0147 -0.0076
 3975TIP3   OH236119   4.708   6.035  18.535 -0.0116  0.6297 -0.4461
 3975TIP3    H136120   4.793   6.044  18.493 -0.0185 -1.3606 -0.9771
 3975TIP3    H236121   4.728   6.011  18.625  0.0197 -0.9191 -0.8452
 3976TIP3   OH236122   6.657   1.976  17.174  0.3288  0.2883 -0.4816
 3976TIP3    H136123   6.740   1.988  17.220  0.2515  0.9316 -0.5055
 3976TIP3    H236124   6.592   2.016  17.231 -0.0032 -0.3961 -0.3644
 3977TIP3   OH236125   4.758   2.163  19.159 -0.1110 -0.3052  0.6005
 3977TIP3    H136126   4.833   2.110  19.185  0.5851 -0.1836 -1.0556
 3977TIP3    H236127   4.782   2.252  19.181  0.8871 -0.0789 -1.2210
 3978TIP3   OH236128   1.591   4.939  17.046 -0.2220  0.1530  0.0370
 3978TIP3    H136129   1.652   4.906  17.113  2.1181  0.8009 -1.6300
 3978TIP3    H236130   1.638   5.011  17.005 -2.2067  0.7319 -1.3411
 3979TIP3   OH236131   3.412   1.982  18.525 -0.3013 -0.2954  0.1471
 3979TIP3    H136132   3.463   2.062  18.512 -1.2780  0.0511 -1.9868
 3979TIP3    H236133   3.473   1.911  18.505  0.0433  0.0014  0.1415
 3980TIP3   OH236134   3.197   2.185  16.034  0.3172 -0.6669  0.2551
 3980TIP3    H136135   3.284   2.199  16.071 -0.2505  0.0625  1.3651
 3980TIP3    H236136   3.209   2.113  15.972  1.7045 -0.5664  0.3710
 3981TIP3   OH236137   1.794   6.737  16.098  0.1546  0.3626  0.3715
 3981TIP3    H136138   1.790   6.801  16.169  2.3895 -0.0465  0.9398
 3981TIP3    H236139   1.818   6.789  16.021  0.9868  0.3812  0.6296
 3982TIP3   OH236140   2.070   0.262  19.394  0.0214  0.0538 -0.1251
 3982TIP3    H136141   2.057   0.330  19.328  0.1879 -0.4285 -0.6696
 3982TIP3    H236142   2.144   0.292  19.446  0.0668  0.3075 -0.3372
 3983TIP3   OH236143   4.522   5.625  16.946 -0.0740 -0.3877  0.1844
 3983TIP3    H136144   4.604   5.643  16.900  0.1384 -0.0079  0.6944
 3983TIP3    H236145   4.499   5.536  16.921  0.8686 -0.7609  0.5874
 3984TIP3   OH236146   3.593   1.395  17.701 -0.1445  0.2370 -0.2738
 3984TIP3    H136147   3.664   1.350  17.655 -0.6088 -2.4349  1.3788
 3984TIP3    H236148   3.521   1.331  17.703 -1.3281  1.5320  1.0962
 3985TIP3   OH236149   0.916   6.535  17.711  0.3562 -0.4989  0.0100
 3985TIP3    H136150   0.865   6.481  17.650  1.2264 -0.4187 -0.8235
 3985TIP3    H236151   0.873   6.523  17.795  0.1878 -2.0779 -0.2569
 3986TIP3   OH236152   2.370   1.462  18.230  0.1421  0.5219  0.0685
 3986TIP3    H136153   2.370   1.544  18.181 -0.4188  1.2808  1.2956
 3986TIP3    H236154   2.434   1.476  18.300 -0.1541  0.0011  0.4505
 3987TIP3   OH236155   3.821   2.491  17.366 -0.2115  0.4221 -0.0069
 3987TIP3    H136156   3.870   2.497  17.448 -1.5042  0.0868  0.8306
 3987TIP3    H236157   3.863   2.420  17.318 -1.6024 -1.9690  1.9997
 3988TIP3   OH236158   4.403   1.830  19.031  0.2525 -0.3963  0.0752
 3988TIP3    H136159   4.492   1.814  19.000  0.5998 -0.8193  1.2673
 3988TIP3    H236160   4.413   1.893  19.102 -0.6315  1.3440 -1.2530
 3989TIP3   OH236161   5.887   5.675  16.734  0.2507 -0.0225 -0.3208
 3989TIP3    H136162   5.836   5.679  16.654 -1.8182  1.6129  0.9654
 3989TIP3    H236163   5.953   5.744  16.724 -0.0296  0.2089 -0.6141
 3990TIP3   OH236164   2.581   3.716  18.656 -0.2399  0.2815  0.3560
 3990TIP3    H136165   2.530   3.639  18.680  1.6755 -0.5519  2.0697
 3990TIP3    H236166   2.607   3.701  18.565 -0.0850 -0.9901  0.5944
 3991TIP3   OH236167   3.027   5.928  16.923 -0.4995  0.0023  0.0165
 3991TIP3    H136168   3.092   5.859  16.938 -0.0223  0.4856  0.2324
 3991TIP3    H236169   3.066   5.983  16.855 -1.0625 -0.1711 -0.4540
 3992TIP3   OH236170   1.062   3.991  17.304  0.9319  0.1174  0.2097
 3992TIP3    H136171   1.093   3.908  17.267 -0.4462 -0.0602 -0.6012
 3992TIP3    H236172   1.048   3.972  17.397  0.2539 -0.6829 -0.0438
 3993TIP3   OH236173   3.768   6.142  17.452  0.2004  0.3007 -0.2968
 3993TIP3    H136174   3.803   6.182  17.372  0.4059  0.2617 -0.2284
 3993TIP3    H236175   3.787   6.207  17.521 -1.3137  1.0243 -0.5084
 3994TIP3   OH236176   0.022   0.339  17.463 -0.0369  0.1220 -0.4568
 3994TIP3    H136177   0.103   0.347  17.514 -0.4077 -0.1055  0.1802
 3994TIP3    H236178   0.023   0.414  17.404  1.9573 -1.2914 -2.3544
 3995TIP3   OH236179   3.361   3.999  19.465 -0.4748  0.1646 -0.3019
 3995TIP3    H136180   3.277   3.995  19.419  0.4857  0.2956 -2.1534
 3995TIP3    H236181   3.427   3.994  19.396  1.0714 -0.6550  1.1542
 3996TIP3   OH236182   1.562   0.401  16.902 -0.4977 -0.2739  0.1666
 3996TIP3    H136183   1.535   0.485  16.864 -1.5052 -0.4579  0.4326
 3996TIP3    H236184   1.638   0.421  16.955 -0.1582  0.3026 -0.5206
 3997TIP3   OH236185   2.760   6.501  16.800 -0.0188  0.1537  0.6249
 3997TIP3    H136186   2.757   6.475  16.893 -1.0239 -0.1586  0.5191
 3997TIP3    H236187   2.723   6.426  16.754 -1.0619  0.9570  0.1200
 3998TIP3   OH236188   2.290   1.048  16.202 -0.2842  0.1317  0.0358
 3998TIP3    H136189   2.308   1.074  16.293 -1.1513  0.9792 -0.0132
 3998TIP3    H236190   2.268   1.130  16.158 -2.0469 -0.5416 -0.4028
 3999TIP3   OH236191   3.675   6.200  16.478  0.0105 -0.1188  0.2529
 3999TIP3    H136192   3.646   6.282  16.439 -0.3011 -0.6663 -0.7195
 3999TIP3    H236193   3.724   6.156  16.408  0.1435 -0.7667  0.7411
 4000TIP3   OH236194   0.454   6.236  18.052  0.4143 -0.6437 -0.7396
 4000TIP3    H136195   0.498   6.197  17.977  1.0108 -0.7923 -0.3179
 4000TIP3    H236196   0.514   6.222  18.125 -0.5662 -1.3410 -0.0378
 4001TIP3   OH236197   3.630   1.510  19.324 -0.6129  0.2134 -0.5962
 4001TIP3    H136198   3.561   1.467  19.375 -0.7204  0.6633 -0.3638
 4001TIP3    H236199   3.630   1.601  19.353  1.8311 -0.2885  1.3229
 4002TIP3   OH236200   3.900   1.815  18.281 -0.3032 -0.4162  0.7584
 4002TIP3    H136201   3.982   1.812  18.331  0.2172  1.8854  0.1441
 4002TIP3    H236202   3.927   1.797  18.191 -0.2420  1.4793  0.3651
 4003TIP3   OH236203   4.054   2.149  18.721 -0.3103 -0.2248  0.3127
 4003TIP3    H136204   3.985   2.169  18.784  0.5155  1.6699  0.6793
 4003TIP3    H236205   4.036   2.059  18.694 -1.8557 -0.3970  1.7374
 4004TIP3   OH236206   5.329   4.731  18.183  0.4607  0.1527 -0.6467
 4004TIP3    H136207   5.249   4.687  18.214  0.1344  0.2802 -1.2813
 4004TIP3    H236208   5.401   4.680  18.220  0.0985  0.8255  1.0681
 4005TIP3   OH236209   0.001   4.592  17.562 -0.2925 -0.1585  0.3264
 4005TIP3    H136210   0.058   4.602  17.638 -1.4540  2.2939  0.9756
 4005TIP3    H236211  -0.063   4.526  17.588  0.4565 -0.7319  0.7334
 4006TIP3   OH236212   3.590   6.421  18.992 -0.3249  0.0605  0.3090
 4006TIP3    H136213   3.635   6.500  19.023  0.1833 -0.1738  0.1825
 4006TIP3    H236214   3.499   6.447  18.983  0.2193  1.3701 -2.1566
 4007TIP3   OH236215   1.342   3.279  17.776 -0.1870  0.0021  0.7223
 4007TIP3    H136216   1.369   3.215  17.709  0.0812 -0.6009  1.3920
 4007TIP3    H236217   1.281   3.230  17.832 -0.1548  0.4029  1.1104
 4008TIP3   OH236218   5.144   1.432  18.568 -0.6624 -0.3583  0.0213
 4008TIP3    H136219   5.120   1.473  18.485 -0.7113  0.3410  0.3733
 4008TIP3    H236220   5.239   1.425  18.565 -0.7170 -1.0215 -0.4016
 4009TIP3   OH236221   4.716   4.675  18.888 -0.2756  0.1804 -0.6035
 4009TIP3    H136222   4.776   4.655  18.817  0.2959 -1.8496  0.3750
 4009TIP3    H236223   4.660   4.745  18.854  0.8039  0.1504 -2.5446
 4010TIP3   OH236224   0.961   3.693  19.606 -0.4133 -0.1001  0.4127
 4010TIP3    H136225   0.916   3.735  19.533  0.3618  0.2951  0.1444
 4010TIP3    H236226   1.042   3.743  19.615 -0.0291 -0.7971  0.8738
 4011TIP3   OH236227   4.114   2.197  17.614  0.2276  0.3521  0.3533
 4011TIP3    H136228   4.054   2.129  17.582  2.0054 -1.1683  0.0387
 4011TIP3    H236229   4.169   2.217  17.538  0.4389  1.3520  0.7633
 4012TIP3   OH236230   3.807   6.035  15.974  0.1341 -0.1226 -0.1405
 4012TIP3    H136231   3.730   5.994  16.014  0.9667 -1.2652  0.3468
 4012TIP3    H236232   3.881   6.000  16.024  1.0749 -0.1677 -1.5143
 4013TIP3   OH236233   0.464   1.779  18.450  0.4432 -0.1164 -0.2435
 4013TIP3    H136234   0.382   1.793  18.403  0.3346 -0.4162 -0.1442
 4013TIP3    H236235   0.527   1.756  18.382  0.0947 -1.3706 -0.1675
 4014TIP3   OH236236   1.988   1.584  18.689 -0.4429 -0.8647 -0.5105
 4014TIP3    H136237   1.957   1.671  18.664 -0.3083 -0.0575  1.9175
 4014TIP3    H236238   1.912   1.527  18.679 -0.6251 -0.4264 -1.7787
 4015TIP3   OH236239   2.447   6.461  19.262  0.7334  0.2716  0.7784
 4015TIP3    H136240   2.408   6.530  19.209 -2.1453 -1.2832  0.7085
 4015TIP3    H236241   2.511   6.419  19.204  0.0832  0.7336 -0.2986
 4016TIP3   OH236242   4.097   3.035  16.788 -0.2082  0.5742 -0.1093
 4016TIP3    H136243   4.127   3.093  16.858 -0.0777  0.3044  0.0590
 4016TIP3    H236244   4.003   3.054  16.780  0.1177  1.9608 -1.1385
 4017TIP3   OH236245   0.831   6.272  18.188 -0.7200 -0.5203  0.4684
 4017TIP3    H136246   0.924   6.258  18.168 -0.7129 -0.8071  0.6895
 4017TIP3    H236247   0.814   6.363  18.164 -0.9125 -1.0693 -1.6031
 4018TIP3   OH236248   1.982   0.615  16.157 -0.5884 -0.0009  0.4335
 4018TIP3    H136249   2.029   0.678  16.102 -2.1342 -0.9476 -2.1259
 4018TIP3    H236250   2.029   0.533  16.146 -0.7612 -0.1459  0.7466
 4019TIP3   OH236251   3.759   5.871  16.962 -0.4369 -0.2544 -0.1911
 4019TIP3    H136252   3.764   5.879  17.058 -0.1684 -0.8861 -0.1491
 4019TIP3    H236253   3.668   5.894  16.941 -0.8274 -1.2404  0.3361
 4020TIP3   OH236254   1.122   4.753  18.202  0.2566  0.3526  0.3540
 4020TIP3    H136255   1.166   4.812  18.140  0.0458  0.3639  0.2124
 4020TIP3    H236256   1.050   4.716  18.151 -1.0285  1.7309  1.1050
 4021TIP3   OH236257   5.292   5.071  17.975  0.6030 -0.7281  0.3277
 4021TIP3    H136258   5.339   5.152  17.997  0.9328 -0.6397 -0.6480
 4021TIP3    H236259   5.256   5.088  17.888 -1.3990 -0.7314  1.1077
 4022TIP3   OH236260   6.090   3.481  16.653 -0.3835  0.2005 -0.2714
 4022TIP3    H136261   6.156   3.540  16.616  0.4788 -1.5445 -1.7116
 4022TIP3    H236262   6.020   3.479  16.588 -2.0237  2.1239  1.2974
 4023TIP3   OH236263   1.495   4.680  18.302 -0.1175  0.2889 -0.3213
 4023TIP3    H136264   1.485   4.693  18.208 -1.5891  1.5916 -0.0354
 4023TIP3    H236265   1.506   4.768  18.337  1.4247 -0.2562  0.6431
 4024TIP3   OH236266   0.373   2.995  16.004 -0.3426 -0.2036  0.5896
 4024TIP3    H136267   0.416   2.953  15.929  0.9784 -1.8210  2.1561
 4024TIP3    H236268   0.286   3.017  15.972  0.2714 -0.5748 -1.5017
 4025TIP3   OH236269   4.326   2.729  18.279  0.0800 -0.2190  0.3611
 4025TIP3    H136270   4.260   2.798  18.271 -1.6556 -1.9933 -2.6976
 4025TIP3    H236271   4.276   2.651  18.300  1.5573 -1.1744  0.4558
 4026TIP3   OH236272   4.079   6.662  18.338 -0.1785  0.5209 -0.7521
 4026TIP3    H136273   4.107   6.570  18.332 -0.3387  0.4881 -1.0097
 4026TIP3    H236274   4.154   6.707  18.376 -1.0643 -0.1768  2.0117
 4027TIP3   OH236275   2.431   0.032  18.181  0.0813 -0.3672 -0.0164
 4027TIP3    H136276   2.421  -0.063  18.181  1.8067 -0.5988 -1.2775
 4027TIP3    H236277   2.510   0.048  18.232 -0.7635  0.5122  1.0765
 4028TIP3   OH236278   6.233   2.228  18.079 -0.7543  0.5900  0.3339
 4028TIP3    H136279   6.157   2.170  18.093  0.3433 -0.5285  2.0673
 4028TIP3    H236280   6.265   2.246  18.167  0.9464  1.1088 -0.3613
 4029TIP3   OH236281   1.577   0.452  18.833 -0.4030  0.1653  0.2498
 4029TIP3    H136282   1.503   0.403  18.871 -1.4392  0.1349 -1.6755
 4029TIP3    H236283   1.559   0.543  18.855 -1.0640  0.1613 -0.2217
 4030TIP3   OH236284   4.245   2.136  19.344  0.0615  0.4227 -0.0627
 4030TIP3    H136285   4.264   2.111  19.254 -1.8602 -0.4286 -0.2652
 4030TIP3    H236286   4.172   2.197  19.338 -0.9445 -0.6351  0.9713
 4031TIP3   OH236287   4.288   0.696  17.323  0.5973  0.0162 -0.5133
 4031TIP3    H136288   4.265   0.616  17.372  0.3514  0.4853  0.1428
 4031TIP3    H236289   4.291   0.667  17.232 -0.6308 -0.5103 -0.4084
 4032TIP3   OH236290   3.235   1.148  19.552 -0.0705 -0.2794 -0.2745
 4032TIP3    H136291   3.310   1.089  19.562 -0.6551 -1.1156 -0.7048
 4032TIP3    H236292   3.177   1.103  19.491 -0.7737  0.5162 -0.2138
 4033TIP3   OH236293   1.476   6.752  17.227  0.3357 -0.2792  0.1651
 4033TIP3    H136294   1.396   6.711  17.259 -0.3325  0.7205 -0.1660
 4033TIP3    H236295   1.449   6.801  17.150  1.4266 -0.5449 -0.4133
 4034TIP3   OH236296   1.258   6.055  18.296 -0.1664  0.0353  0.2193
 4034TIP3    H136297   1.180   6.025  18.342 -0.2736  1.0993  0.7593
 4034TIP3    H236298   1.248   6.150  18.290  0.2363  0.0162 -1.2976
 4035TIP3   OH236299   1.999   5.408  16.283  0.5018  0.1331 -0.2661
 4035TIP3    H136300   2.037   5.390  16.369 -1.0835 -1.2779  0.1999
 4035TIP3    H236301   2.050   5.355  16.222  0.3063 -0.5456  0.1398
 4036TIP3   OH236302   5.251   1.961  17.348 -0.7944  0.2574 -0.2250
 4036TIP3    H136303   5.173   1.911  17.372 -0.7229  0.6533  0.8771
 4036TIP3    H236304   5.307   1.957  17.425  0.2649  0.0287 -0.9847
 4037TIP3   OH236305   0.364   0.251  18.091  0.2033 -0.3023  0.4406
 4037TIP3    H136306   0.388   0.342  18.074 -1.3262  0.0115 -0.1271
 4037TIP3    H236307   0.307   0.227  18.018 -0.6490 -1.2211  1.3760
 4038TIP3   OH236308   6.298   0.085  17.570 -0.2933  0.0629  0.1668
 4038TIP3    H136309   6.307   0.004  17.519  0.4279 -0.1425  0.6075
 4038TIP3    H236310   6.362   0.145  17.531  1.1915 -0.5121  1.6134
 4039TIP3   OH236311   4.890   1.611  16.457  0.1828  0.4985  0.3613
 4039TIP3    H136312   4.912   1.534  16.509  0.1524  0.0005 -0.3590
 4039TIP3    H236313   4.815   1.584  16.404  1.1416  0.5051 -1.0523
 4040TIP3   OH236314   3.198   4.499  17.854 -0.0269 -0.3220 -0.6498
 4040TIP3    H136315   3.135   4.540  17.795  0.1030  1.5810  0.4293
 4040TIP3    H236316   3.197   4.556  17.932  3.2195 -0.0313 -0.7151
 4041TIP3   OH236317   0.227   0.213  16.542 -0.0690 -0.5303 -0.2923
 4041TIP3    H136318   0.244   0.307  16.540 -0.7370 -0.3969 -0.0015
 4041TIP3    H236319   0.291   0.179  16.604  0.5973 -0.3672 -0.8712
 4042TIP3   OH236320   5.404   0.185  18.105 -0.2380 -0.2135 -0.4156
 4042TIP3    H136321   5.339   0.254  18.118 -0.9328 -1.2183  1.9767
 4042TIP3    H236322   5.401   0.166  18.011  1.1889  4.0791 -1.5787
 4043TIP3   OH236323   4.032   2.792  17.625  0.7958 -0.6010 -0.2322
 4043TIP3    H136324   3.990   2.833  17.550 -1.5253 -1.9841  0.2411
 4043TIP3    H236325   4.036   2.699  17.603  1.1116 -0.8694  0.8949
 4044TIP3   OH236326   1.102   2.859  18.671 -0.6777  0.0961 -0.1464
 4044TIP3    H136327   1.048   2.905  18.735 -0.7707  0.3105 -0.3766
 4044TIP3    H236328   1.040   2.817  18.612 -0.5917  0.0749 -0.2221
 4045TIP3   OH236329   3.100   5.370  16.083 -0.5553  0.1319 -0.1651
 4045TIP3    H136330   3.048   5.415  16.149  1.0573  0.8572  0.6593
 4045TIP3    H236331   3.191   5.395  16.102  0.4089 -3.0260 -0.0079
 4046TIP3   OH236332   1.407   6.305  16.920 -0.3930  0.3075 -0.1588
 4046TIP3    H136333   1.456   6.268  16.847  0.8646  0.8427  0.3804
 4046TIP3    H236334   1.345   6.366  16.879 -2.4999 -2.2631 -1.0505
 4047TIP3   OH236335   4.966   1.923  16.917  0.2843  0.7167 -0.2962
 4047TIP3    H136336   4.984   1.829  16.919  2.1892  1.0066 -1.0096
 4047TIP3    H236337   4.978   1.947  16.826  0.5766  1.7798  0.0143
 4048TIP3   OH236338   0.156   2.126  17.741  0.0208  0.2006  0.0754
 4048TIP3    H136339   0.161   2.199  17.803 -1.3254 -0.3267  0.8404
 4048TIP3    H236340   0.202   2.054  17.785 -1.8045 -0.4843  0.9847
 4049TIP3   OH236341   3.992   1.902  17.802  0.7218  0.1685  0.2147
 4049TIP3    H136342   3.919   1.956  17.831  1.6993  1.3449  0.5697
 4049TIP3    H236343   3.991   1.909  17.706  0.6861  0.6290  0.2443
 4050TIP3   OH236344   2.282   4.659  16.916 -0.3573 -0.1376 -0.0422
 4050TIP3    H136345   2.366   4.697  16.890  0.0120 -0.8660  0.0410
 4050TIP3    H236346   2.223   4.680  16.843  1.0445 -3.5116 -2.4418
 4051TIP3   OH236347   2.774   2.017  16.338 -0.4847 -0.3147  0.0095
 4051TIP3    H136348   2.776   2.070  16.418  0.2975 -0.8285  0.3456
 4051TIP3    H236349   2.821   2.069  16.273 -1.3759  0.2338 -0.2078
 4052TIP3   OH236350   5.210   3.462  18.855  0.1190  0.4485  0.2878
 4052TIP3    H136351   5.255   3.539  18.821  3.1532 -1.5245 -0.5949
 4052TIP3    H236352   5.280   3.397  18.868 -2.1154 -1.8321  1.9753
 4053TIP3   OH236353   4.948   0.955  16.154 -0.0398 -0.0696 -0.6089
 4053TIP3    H136354   5.040   0.964  16.177  0.0721 -1.1145 -0.6109
 4053TIP3    H236355   4.932   0.861  16.154 -0.8237  0.0428 -1.7159
 4054TIP3   OH236356   5.008   6.392  16.477  0.4920  0.7612 -0.3478
 4054TIP3    H136357   5.047   6.388  16.390  1.9245 -1.3217  0.3286
 4054TIP3    H236358   5.082   6.390  16.537 -0.5110  1.1689  0.9524
 4055TIP3   OH236359   1.470   6.202  18.533 -0.2894  0.2999  0.6103
 4055TIP3    H136360   1.447   6.133  18.470  1.0704 -0.7074  1.1804
 4055TIP3    H236361   1.424   6.178  18.613 -1.5707  1.2796  0.2013
 4056TIP3   OH236362   2.791   1.304  19.407 -0.5255 -0.3905 -0.0737
 4056TIP3    H136363   2.764   1.387  19.367  0.3772 -0.0520  0.0000
 4056TIP3    H236364   2.878   1.321  19.442 -1.9721 -0.1206  3.7745
 4057TIP3   OH236365   4.724   6.268  17.012  0.0966  0.1520 -0.5600
 4057TIP3    H136366   4.754   6.183  16.980  0.7611  0.4286 -0.6770
 4057TIP3    H236367   4.765   6.332  16.954  0.0123  0.5765 -0.1551
 4058TIP3   OH236368   1.027   2.935  17.100  0.3669 -0.5669  0.3637
 4058TIP3    H136369   0.973   2.906  17.026  0.0252  0.8252  0.0279
 4058TIP3    H236370   1.108   2.966  17.059  0.0729  0.4571  0.5314
 4059TIP3   OH236371   0.814   4.671  17.407  0.4004 -0.9303 -0.5188
 4059TIP3    H136372   0.828   4.678  17.313 -1.9523 -0.6736 -0.9126
 4059TIP3    H236373   0.900   4.651  17.443  2.0202  1.9637 -2.3698
 4060TIP3   OH236374   2.926   3.200  17.270 -0.0702 -0.1121 -0.1317
 4060TIP3    H136375   2.969   3.119  17.243  0.3167  0.7632 -2.3244
 4060TIP3    H236376   2.997   3.256  17.303  0.1741  0.5048 -1.6546
 4061TIP3   OH236377   5.022   1.818  17.868 -0.6268 -0.2442 -0.3276
 4061TIP3    H136378   5.019   1.861  17.783 -0.0880 -1.7934 -1.1816
 4061TIP3    H236379   4.931   1.790  17.883 -0.6128 -0.5330 -0.7320
 4062TIP3   OH236380   6.310   3.845  18.183  0.1623  0.0180 -0.3658
 4062TIP3    H136381   6.262   3.767  18.155  1.2563 -0.5216 -0.7893
 4062TIP3    H236382   6.392   3.843  18.133  0.4802  1.1061  0.0734
 4063TIP3   OH236383   1.255   6.452  15.767  0.2411  0.6781  0.5739
 4063TIP3    H136384   1.220   6.519  15.708  0.8633 -0.4383 -1.1471
 4063TIP3    H236385   1.179   6.401  15.794  0.0749  0.5133 -0.1867
 4064TIP3   OH236386   0.369   6.484  19.008  0.3651 -0.4190 -0.0797
 4064TIP3    H136387   0.276   6.494  18.988 -0.0069 -0.3223  1.5610
 4064TIP3    H236388   0.385   6.547  19.078  0.9413 -2.5060  1.7591
 4065TIP3   OH236389   3.219   5.648  16.582 -0.2033  0.1361 -0.8414
 4065TIP3    H136390   3.283   5.577  16.580 -0.1034 -0.2260  3.8241
 4065TIP3    H236391   3.269   5.725  16.607 -1.1369  0.4754  0.0716
 4066TIP3   OH236392   3.512   5.470  18.977  0.0089 -0.2916 -0.0857
 4066TIP3    H136393   3.560   5.534  18.924  1.0652 -1.0756 -0.0969
 4066TIP3    H236394   3.471   5.412  18.913 -1.2642  0.5748 -0.0859
 4067TIP3   OH236395   3.352   2.603  17.602 -0.4907 -0.4380 -0.3431
 4067TIP3    H136396   3.437   2.577  17.566  0.8561  0.3752  1.9842
 4067TIP3    H236397   3.354   2.698  17.603 -0.0986 -0.3820  2.3566
 4068TIP3   OH236398   3.946   0.566  17.988 -0.1640  0.2105  0.9050
 4068TIP3    H136399   3.904   0.480  17.981  1.9957 -0.8869  0.4340
 4068TIP3    H236400   4.028   0.556  17.939  0.5017  2.3066  1.5009
 4069TIP3   OH236401   3.137   6.192  17.163 -0.1132 -0.1671  0.2439
 4069TIP3    H136402   3.184   6.270  17.189 -0.1117  0.3397 -1.1886
 4069TIP3    H236403   3.202   6.121  17.169  0.0332  0.0257  1.0066
 4070TIP3   OH236404   0.405   1.702  16.874  0.4215 -0.0802  0.3273
 4070TIP3    H136405   0.454   1.680  16.953 -0.2006  0.5721  0.9016
 4070TIP3    H236406   0.389   1.617  16.832  2.2626 -0.3024 -0.0440
 4071TIP3   OH236407   4.184   0.239  16.283 -0.1508 -0.2890  0.1252
 4071TIP3    H136408   4.139   0.271  16.361 -0.2156  2.2366 -0.8477
 4071TIP3    H236409   4.130   0.269  16.210 -0.2560 -2.8344 -0.9645
 4072TIP3   OH236410   2.477   0.744  19.267 -0.0330  0.2481  0.0554
 4072TIP3    H136411   2.400   0.696  19.234 -0.4343 -0.4440  1.8982
 4072TIP3    H236412   2.467   0.743  19.362  2.3776 -0.0442  0.3669
 4073TIP3   OH236413   2.482   4.734  18.784 -0.1592 -0.0618  0.2816
 4073TIP3    H136414   2.571   4.760  18.759 -0.2636  2.5717  2.2978
 4073TIP3    H236415   2.429   4.755  18.707  0.7632 -0.7472 -0.5822
 4074TIP3   OH236416   0.790   1.214  17.014  0.2050  0.4526 -0.7400
 4074TIP3    H136417   0.882   1.233  16.996  0.4239 -0.0215 -0.1663
 4074TIP3    H236418   0.762   1.157  16.943  0.3712  0.5383 -0.8745
 4075TIP3   OH236419   1.068   2.153  17.596  0.4873  0.3624 -0.2042
 4075TIP3    H136420   1.148   2.179  17.642  0.2557  0.5638  0.0958
 4075TIP3    H236421   1.095   2.138  17.506  0.3586  3.2057 -0.7903
 4076TIP3   OH236422   2.846   2.636  18.779 -0.1562 -0.1721  0.2576
 4076TIP3    H136423   2.783   2.569  18.754 -1.7891  1.9885 -1.8977
 4076TIP3    H236424   2.797   2.698  18.832  0.6955  0.4966  0.2972
 4077TIP3   OH236425   2.900   3.999  19.142  0.2227 -0.0964 -0.3483
 4077TIP3    H136426   2.881   4.055  19.067  1.7116 -1.3927 -1.7705
 4077TIP3    H236427   2.832   4.020  19.205  0.1805  2.5991 -1.1761
 4078TIP3   OH236428   5.673   1.135  18.587 -0.2089  0.2015 -0.7574
 4078TIP3    H136429   5.583   1.105  18.599  0.1636 -0.3485  0.7835
 4078TIP3    H236430   5.684   1.138  18.492 -1.2304 -1.6524 -0.9903
 4079TIP3   OH236431   2.778   4.622  18.847 -0.3186 -0.0568  0.1080
 4079TIP3    H136432   2.777   4.686  18.776  0.0934  1.7780  1.6588
 4079TIP3    H236433   2.871   4.612  18.869 -0.2980 -1.8427 -0.6129
 4080TIP3   OH236434   1.370   2.853  17.015 -0.1008 -0.6399 -0.2573
 4080TIP3    H136435   1.425   2.900  17.079 -1.9218 -2.3404  2.7847
 4080TIP3    H236436   1.293   2.910  17.004  0.3002 -0.2516 -1.1920
 4081TIP3   OH236437   6.478   3.561  18.022  0.1988 -0.3551 -0.2276
 4081TIP3    H136438   6.471   3.655  18.041  0.1097 -0.6757  1.4701
 4081TIP3    H236439   6.557   3.533  18.070 -0.0270 -1.2291 -0.3541
 4082TIP3   OH236440   3.580   5.799  17.797  0.3214  0.1001  0.1881
 4082TIP3    H136441   3.589   5.707  17.819 -0.6022  0.1151  0.6777
 4082TIP3    H236442   3.568   5.843  17.882  1.5824  0.7883  0.0463
 4083TIP3   OH236443   3.756   2.193  17.371 -0.3626 -0.1339 -0.3479
 4083TIP3    H136444   3.825   2.233  17.318  0.0667  0.0440  0.3262
 4083TIP3    H236445   3.755   2.244  17.452 -1.0560 -0.3511 -0.2104
 4084TIP3   OH236446   6.515   3.842  17.970  0.0657 -0.4137  0.3339
 4084TIP3    H136447   6.562   3.806  17.894 -0.3107 -0.3993  0.0907
 4084TIP3    H236448   6.583   3.856  18.036  0.1119 -2.4537  0.7840
 4085TIP3   OH236449   3.106   2.180  19.334 -0.1565  0.5166  0.5937
 4085TIP3    H136450   3.034   2.160  19.274  1.4362  0.8530 -1.5686
 4085TIP3    H236451   3.114   2.102  19.389 -2.5921  0.7617  1.4337
 4086TIP3   OH236452   5.612   5.660  16.018  0.3651 -0.4432 -0.0826
 4086TIP3    H136453   5.554   5.722  15.974  0.3286 -0.6549 -0.3366
 4086TIP3    H236454   5.608   5.685  16.111  3.6579  2.7241 -0.5467
 4087TIP3   OH236455   6.009   5.409  19.139  0.0996  0.0326  0.1309
 4087TIP3    H136456   5.991   5.490  19.186  0.8697 -0.0750  0.6168
 4087TIP3    H236457   5.923   5.382  19.105 -0.0605  1.3747 -0.5881
 4088TIP3   OH236458   3.923   4.328  16.929  0.5537 -0.3893 -0.4381
 4088TIP3    H136459   3.936   4.403  16.871 -1.9364  0.8985  0.4929
 4088TIP3    H236460   3.915   4.253  16.870  1.2886  0.3506 -1.5196
 4089TIP3   OH236461   1.248   0.648  17.500 -0.4474 -0.1112  0.0205
 4089TIP3    H136462   1.234   0.554  17.491  0.6157 -0.0725 -3.3670
 4089TIP3    H236463   1.172   0.688  17.458  0.2982  0.4791 -0.7985
 4090TIP3   OH236464   1.543   1.379  19.747  0.2042  0.2609 -0.1417
 4090TIP3    H136465   1.498   1.423  19.819  1.3544  0.6451  0.3733
 4090TIP3    H236466   1.499   1.411  19.668 -0.8138  0.1394  0.3604
 4091TIP3   OH236467   6.313   6.306  16.239  0.2809  0.0235  0.3711
 4091TIP3    H136468   6.270   6.282  16.321  1.8993  1.7630  1.8008
 4091TIP3    H236469   6.242   6.334  16.182 -0.7781 -0.1739  1.5494
 4092TIP3   OH236470   4.828   1.754  18.441 -0.8231  0.1086  0.1521
 4092TIP3    H136471   4.892   1.768  18.510  1.2637 -0.7755 -1.4987
 4092TIP3    H236472   4.849   1.821  18.375 -0.5344 -1.1802 -1.1054
 4093TIP3   OH236473   4.072   6.391  18.741 -0.3921  0.1811  0.0400
 4093TIP3    H136474   4.086   6.458  18.808 -1.2671 -0.0969  0.5113
 4093TIP3    H236475   4.159   6.353  18.727 -0.0288  0.8938  0.3209
 4094TIP3   OH236476   4.229   1.487  16.684 -0.3641 -0.0188 -0.5256
 4094TIP3    H136477   4.282   1.430  16.627  0.3889  0.0074  0.1356
 4094TIP3    H236478   4.288   1.559  16.707 -1.2365  0.9334 -1.1700
 4095TIP3   OH236479   1.372   6.379  18.860  0.1326 -0.3819 -0.6324
 4095TIP3    H136480   1.333   6.313  18.803  0.2928 -0.6180 -0.4703
 4095TIP3    H236481   1.464   6.354  18.866  0.5944  0.8411 -1.9726
 4096TIP3   OH236482   3.476   2.140  16.664  0.4545 -0.6054  0.0375
 4096TIP3    H136483   3.529   2.203  16.615  0.8500 -0.0189  1.2007
 4096TIP3    H236484   3.502   2.152  16.755 -0.3662 -1.5944  0.4179
 4097TIP3   OH236485   5.864   0.946  17.219  0.4482  0.1052 -0.0950
 4097TIP3    H136486   5.901   1.034  17.219  0.4531  0.1035 -0.1204
 4097TIP3    H236487   5.771   0.958  17.200  0.8831 -0.0506 -2.6675
 4098TIP3   OH236488   3.653   1.922  18.204  0.7048  0.1571 -0.3272
 4098TIP3    H136489   3.737   1.887  18.233  2.1155  0.9289 -3.0899
 4098TIP3    H236490   3.659   2.016  18.218  0.6584  0.3131 -1.2651
 4099TIP3   OH236491   6.429   2.731  17.815 -0.0689 -0.1252 -0.0134
 4099TIP3    H136492   6.481   2.724  17.895  2.1784 -0.4351 -1.4268
 4099TIP3    H236493   6.468   2.667  17.755 -1.3607  0.4508 -1.5425
 4100TIP3   OH236494   0.251   5.304  16.138 -0.4957  0.5417  0.0719
 4100TIP3    H136495   0.211   5.308  16.051  1.5788 -0.7686 -1.0270
 4100TIP3    H236496   0.291   5.390  16.150  1.0267  0.0782 -1.2742
 4101TIP3   OH236497   2.930   0.547  17.131 -0.6629  0.1234 -0.6035
 4101TIP3    H136498   3.004   0.604  17.153 -0.3521 -0.6494  0.4471
 4101TIP3    H236499   2.964   0.489  17.064 -0.7903  0.7508 -1.2242
 4102TIP3   OH236500   4.619   6.232  19.096  0.1517  0.0324  0.7543
 4102TIP3    H136501   4.623   6.138  19.078 -1.3553 -0.1767  1.3401
 4102TIP3    H236502   4.705   6.253  19.133  0.8570 -0.9005 -0.2835
 4103TIP3   OH236503   2.451   2.457  18.349 -0.2555 -0.1047 -0.0407
 4103TIP3    H136504   2.524   2.419  18.398  0.4578 -0.2874 -1.2112
 4103TIP3    H236505   2.405   2.382  18.312 -1.4562 -0.0300  1.2213
 4104TIP3   OH236506   2.443   1.294  18.579 -0.1322  0.7327 -0.2621
 4104TIP3    H136507   2.360   1.247  18.591 -0.1966  1.2699  1.6267
 4104TIP3    H236508   2.421   1.386  18.593  1.0776  0.7287  2.2650
 4105TIP3   OH236509   3.119   2.298  16.320  0.7771 -0.1858  0.1041
 4105TIP3    H136510   3.061   2.276  16.247  0.5367  1.7688 -0.3582
 4105TIP3    H236511   3.160   2.381  16.293  1.3306  0.1295  1.8221
 4106TIP3   OH236512   4.090   1.923  17.062 -0.1139 -0.3445 -0.0273
 4106TIP3    H136513   4.053   1.846  17.019 -0.8858 -0.0527  0.1037
 4106TIP3    H236514   4.014   1.969  17.098  0.4807 -0.4137  1.3720
 4107TIP3   OH236515   0.740   6.257  16.888 -0.0043 -0.0281  0.2063
 4107TIP3    H136516   0.716   6.347  16.910  1.4696  0.3659  0.2976
 4107TIP3    H236517   0.686   6.236  16.812 -1.1601  0.5338  0.8331
 4108TIP3   OH236518   1.135   0.268  16.882 -0.3824 -0.6553 -0.2611
 4108TIP3    H136519   1.200   0.281  16.813  1.1641 -0.3044  1.1909
 4108TIP3    H236520   1.071   0.337  16.868  0.2508 -0.1957 -0.9503
 4109TIP3   OH236521   1.221   0.280  17.773  0.2541  0.0395 -0.1825
 4109TIP3    H136522   1.229   0.224  17.696 -0.0006 -1.5310  0.8934
 4109TIP3    H236523   1.277   0.239  17.839  0.2413  1.1888  0.5896
 4110TIP3   OH236524   1.134   0.912  17.961 -0.0984  0.6423  0.3453
 4110TIP3    H136525   1.100   0.997  17.934 -0.1562  1.3802  2.5605
 4110TIP3    H236526   1.075   0.882  18.029  1.6322  0.3225  1.7991
 4111TIP3   OH236527   3.191   1.297  18.382  0.3326  0.2787  0.3914
 4111TIP3    H136528   3.208   1.209  18.416  2.4412  0.1296 -0.8360
 4111TIP3    H236529   3.267   1.348  18.411 -0.7088  1.6521  0.8154
 4112TIP3   OH236530   5.851   5.569  17.658 -0.0644  0.1955 -0.0929
 4112TIP3    H136531   5.923   5.550  17.597  0.7568 -0.5149  1.0490
 4112TIP3    H236532   5.890   5.627  17.723 -0.5807 -0.0141  0.4112
 4113TIP3   OH236533   5.458   3.885  19.387  0.4336 -0.1515 -0.4034
 4113TIP3    H136534   5.439   3.965  19.338  0.6040  0.7498  0.9595
 4113TIP3    H236535   5.463   3.913  19.478  0.8145 -1.6701  0.0705
 4114TIP3   OH236536   0.469   2.883  19.379  0.5380 -0.2116  0.1643
 4114TIP3    H136537   0.393   2.831  19.404 -1.3634  1.9049 -0.7933
 4114TIP3    H236538   0.506   2.915  19.462  0.2695 -1.0870  0.6253
 4115TIP3   OH236539   4.577   0.147  16.643 -0.1332  0.0052  0.1483
 4115TIP3    H136540   4.528   0.093  16.581 -0.7498  1.5670 -0.7705
 4115TIP3    H236541   4.527   0.227  16.650  0.8903  0.5711  1.3005
 4116TIP3   OH236542   3.460   1.808  19.432 -0.3127  0.1780 -0.4654
 4116TIP3    H136543   3.452   1.900  19.457 -3.3009 -0.2470  0.6201
 4116TIP3    H236544   3.549   1.784  19.456 -0.0745  2.2898  1.0686
 4117TIP3   OH236545   0.141   2.973  18.890 -0.4955  0.3996 -0.7509
 4117TIP3    H136546   0.210   3.019  18.842 -0.2966  1.6006  0.6102
 4117TIP3    H236547   0.188   2.914  18.949 -0.5234  1.8921  0.8505
 4118TIP3   OH236548   5.400   1.046  18.652 -0.0152  0.3031 -0.6740
 4118TIP3    H136549   5.417   1.042  18.747 -1.3062 -2.2231 -0.4598
 4118TIP3    H236550   5.320   1.098  18.644 -0.3989 -0.2059 -0.2607
 4119TIP3   OH236551   2.230   4.096  17.213 -1.0031  0.1099  0.0459
 4119TIP3    H136552   2.276   4.064  17.290 -0.7438  1.9281  0.7155
 4119TIP3    H236553   2.145   4.053  17.214 -0.0926 -1.7662 -0.0728
 4120TIP3   OH236554   5.225   3.392  18.423 -0.2006 -0.4461  0.5230
 4120TIP3    H136555   5.291   3.325  18.404 -0.4517 -0.5532 -0.0124
 4120TIP3    H236556   5.146   3.359  18.380 -0.1773  0.4791 -0.2557
 4121TIP3   OH236557   3.064   2.402  16.040 -0.0489  0.1352 -1.0168
 4121TIP3    H136558   3.141   2.458  16.052  0.8418 -1.3132  0.3863
 4121TIP3    H236559   3.100   2.314  16.030 -1.5153 -0.8360  1.3579
 4122TIP3   OH236560   1.002   4.051  18.256  0.0745 -0.1711  0.3530
 4122TIP3    H136561   0.990   4.002  18.338 -0.8545  0.2005  0.4481
 4122TIP3    H236562   1.072   4.114  18.275 -0.6632  0.4348  1.1044
 4123TIP3   OH236563   4.519   0.917  16.929  0.1305  0.4357 -0.0512
 4123TIP3    H136564   4.472   0.957  16.855 -0.1669  1.6754  0.7819
 4123TIP3    H236565   4.547   0.991  16.983  2.5017 -0.2956 -0.1649
 4124TIP3   OH236566   2.987   4.585  18.575 -0.2954  0.2752  0.7320
 4124TIP3    H136567   3.013   4.635  18.652  0.6361 -0.4554  0.9197
 4124TIP3    H236568   3.070   4.557  18.536 -0.7716 -1.2767  0.7482
 4125TIP3   OH236569   4.383   5.025  16.321 -0.2305  0.0232  0.1790
 4125TIP3    H136570   4.447   5.096  16.322 -0.2516  0.1018 -1.4687
 4125TIP3    H236571   4.434   4.946  16.335  0.1375  0.1453 -0.4715
 4126TIP3   OH236572   5.551   6.261  17.624  0.6692  0.0163 -0.5286
 4126TIP3    H136573   5.532   6.263  17.530  3.0883 -1.1339 -1.1080
 4126TIP3    H236574   5.564   6.168  17.644 -0.8288  0.1234  1.2224
 4127TIP3   OH236575   4.834   3.923  19.159 -0.4313  0.2333 -0.2730
 4127TIP3    H136576   4.871   3.907  19.246  0.6534 -0.7080 -0.8691
 4127TIP3    H236577   4.745   3.954  19.176 -0.5797 -0.8441  1.1595
 4128TIP3   OH236578   4.357   3.646  19.088  0.1386 -0.1773 -0.2231
 4128TIP3    H136579   4.302   3.719  19.059  0.8558  1.4244  2.1108
 4128TIP3    H236580   4.440   3.659  19.044 -0.0182 -0.1077 -0.4989
 4129TIP3   OH236581   4.276   1.153  16.907  0.2349 -0.0304  0.3174
 4129TIP3    H136582   4.343   1.164  16.839 -1.2824 -0.8700 -1.3974
 4129TIP3    H236583   4.238   1.067  16.890 -1.6256  0.6229  0.8726
 4130TIP3   OH236584   3.405   0.865  16.409 -0.0516 -0.2051  0.1223
 4130TIP3    H136585   3.328   0.852  16.465  0.1507 -1.8718  0.0760
 4130TIP3    H236586   3.369   0.877  16.321 -0.2906  0.0791  0.2570
 4131TIP3   OH236587   6.279   6.048  16.680  0.2344 -0.0693 -0.2336
 4131TIP3    H136588   6.286   6.050  16.775  2.7186 -0.9670 -0.3178
 4131TIP3    H236589   6.238   5.964  16.661  0.0123 -0.0205  0.0216
 4132TIP3   OH236590   3.441   6.181  19.165  0.1012 -0.3292  0.1984
 4132TIP3    H136591   3.452   6.107  19.106  1.8796  0.4055 -0.4648
 4132TIP3    H236592   3.402   6.250  19.111  0.4413 -0.1029  0.2369
 4133TIP3   OH236593   3.026   1.411  18.192  0.0761  0.1369 -0.4761
 4133TIP3    H136594   2.939   1.375  18.208  0.7725 -1.2028  0.4737
 4133TIP3    H236595   3.076   1.389  18.271  0.9719  1.8741 -0.5250
 4134TIP3   OH236596   5.142   4.944  16.571 -0.2330 -0.1433 -0.0132
 4134TIP3    H136597   5.140   4.942  16.667 -0.1879 -1.4738 -0.0181
 4134TIP3    H236598   5.054   4.917  16.544 -0.5114  1.0532 -0.3655
 4135TIP3   OH236599   4.449   1.463  18.711 -0.2494  0.3434  0.3236
 4135TIP3    H136600   4.411   1.509  18.636 -0.4766 -0.8804 -0.3352
 4135TIP3    H236601   4.517   1.522  18.743 -0.6321  1.2063 -0.3885
 4136TIP3   OH236602   0.297   0.897  19.189  0.3843  0.1509  0.6739
 4136TIP3    H136603   0.391   0.914  19.185  0.4697 -0.4965 -0.7914
 4136TIP3    H236604   0.265   0.914  19.100 -0.1752 -3.3470  0.0437
 4137TIP3   OH236605   0.769   1.821  19.007  0.2842 -0.0971  0.2021
 4137TIP3    H136606   0.834   1.770  18.959 -0.6639  0.4067 -1.6870
 4137TIP3    H236607   0.709   1.755  19.042  0.3366 -0.4168 -0.2928
 4138TIP3   OH236608   0.726   2.994  18.723 -0.5019 -0.2414 -0.2711
 4138TIP3    H136609   0.795   3.001  18.789  0.0063  0.5701 -0.8731
 4138TIP3    H236610   0.666   3.066  18.743 -1.1306 -0.8862  0.1915
 4139TIP3   OH236611   6.433   0.281  17.395  0.1908 -0.6216 -0.1146
 4139TIP3    H136612   6.510   0.233  17.425  1.2224  1.4231  0.7506
 4139TIP3    H236613   6.467   0.346  17.334 -1.2647 -1.4773 -1.9354
 4140TIP3   OH236614   6.036   2.079  18.160  0.1800  0.1925 -0.0361
 4140TIP3    H136615   5.954   2.111  18.123  0.5254  0.3824 -0.6565
 4140TIP3    H236616   6.011   2.037  18.243 -0.3490  1.6110  0.5517
 4141TIP3   OH236617   5.456   1.726  19.009 -0.0767  0.0193  0.4245
 4141TIP3    H136618   5.472   1.784  18.934 -0.1517 -0.0120  0.3836
 4141TIP3    H236619   5.401   1.656  18.974  0.4440 -0.3576  0.3503
 4142TIP3   OH236620   4.095   4.017  16.861  0.2301  0.1911  0.4436
 4142TIP3    H136621   4.177   4.062  16.842  0.4937  0.4829  2.1314
 4142TIP3    H236622   4.041   4.032  16.783  1.9581 -0.5223 -0.9559
 4143TIP3   OH236623   1.699   2.560  19.384  0.1856  0.3466  0.4135
 4143TIP3    H136624   1.736   2.489  19.332 -3.4036 -1.3616 -0.1178
 4143TIP3    H236625   1.754   2.636  19.364  0.9799 -0.9975 -3.2610
 4144TIP3   OH236626   6.371   2.928  18.443  0.1701 -0.0962  0.1495
 4144TIP3    H136627   6.406   2.851  18.398  0.1809 -0.8709  1.4268
 4144TIP3    H236628   6.279   2.906  18.460  0.6449 -0.7452  2.2819
 4145TIP3   OH236629   4.472   1.303  17.825  0.1121  0.4321 -0.1239
 4145TIP3    H136630   4.448   1.390  17.793  0.8664  1.0742  1.0202
 4145TIP3    H236631   4.547   1.278  17.771  2.1539  2.0233  1.7742
 4146TIP3   OH236632   6.032   6.019  17.646  0.5865  0.2792  0.5442
 4146TIP3    H136633   6.027   5.949  17.711 -1.9650  0.1549  0.2978
 4146TIP3    H236634   6.031   6.100  17.697 -1.2718  0.1778  0.7246
 4147TIP3   OH236635   5.982   4.923  17.467  0.4736 -0.4400  0.0687
 4147TIP3    H136636   5.992   4.829  17.449  0.1990 -0.5941  0.6872
 4147TIP3    H236637   5.887   4.937  17.467  0.5382  0.0970 -1.2617
 4148TIP3   OH236638   5.368   4.421  17.248 -0.5594 -0.6121 -0.4290
 4148TIP3    H136639   5.433   4.373  17.298 -0.1791 -0.6066 -0.9039
 4148TIP3    H236640   5.322   4.353  17.197 -0.2813 -0.5133 -0.8109
 4149TIP3   OH236641   2.708   2.740  19.014  0.9034  0.2776 -0.0848
 4149TIP3    H136642   2.684   2.654  19.049 -0.2405  0.3166 -0.6919
 4149TIP3    H236643   2.782   2.768  19.066  1.1255 -0.9650  0.3014
 4150TIP3   OH236644   1.464   0.217  16.250 -0.0423  0.4441  0.4102
 4150TIP3    H136645   1.535   0.236  16.189 -0.9968 -1.1420 -1.3125
 4150TIP3    H236646   1.390   0.269  16.218 -0.2306  0.5018  0.9285
 4151TIP3   OH236647   1.786   1.279  18.508 -0.4734 -0.5257  0.6442
 4151TIP3    H136648   1.765   1.305  18.598 -1.5888  0.8947  0.0134
 4151TIP3    H236649   1.726   1.207  18.489 -0.7951 -0.2998  0.7878
 4152TIP3   OH236650   4.728   5.524  17.426 -0.7842 -0.0185  0.5581
 4152TIP3    H136651   4.728   5.600  17.368  0.4675 -0.4815 -0.0744
 4152TIP3    H236652   4.738   5.449  17.368 -0.1179 -0.5352  1.3249
 4153TIP3   OH236653   3.892   2.292  18.000 -0.2113  0.3565  0.1976
 4153TIP3    H136654   3.882   2.360  18.067  0.9473  0.9073 -0.1624
 4153TIP3    H236655   3.944   2.333  17.932 -0.4077 -0.5678 -0.5258
 4154TIP3   OH236656   0.030   4.922  17.112  0.0506 -0.1635  0.3642
 4154TIP3    H136657   0.061   4.833  17.127  0.2247 -0.3112 -0.8064
 4154TIP3    H236658   0.106   4.977  17.128  0.5488 -0.4086 -1.0244
 4155TIP3   OH236659   4.426   0.160  18.852 -1.1041  0.1635 -0.0549
 4155TIP3    H136660   4.364   0.234  18.849  0.0615  1.1813  0.1165
 4155TIP3    H236661   4.459   0.160  18.942 -3.3318 -2.5460  0.8971
 4156TIP3   OH236662   0.751   5.220  17.213 -0.4900 -0.7882 -0.6689
 4156TIP3    H136663   0.667   5.235  17.258 -0.0154 -0.5796  0.1684
 4156TIP3    H236664   0.728   5.164  17.139 -1.4413 -0.3729 -0.7057
 4157TIP3   OH236665   2.621   1.607  19.721 -0.1913 -0.0509 -0.1403
 4157TIP3    H136666   2.643   1.700  19.711  1.8095 -0.5675 -1.0787
 4157TIP3    H236667   2.693   1.570  19.772 -0.1073 -1.3868 -1.1646
 4158TIP3   OH236668   5.270   1.102  17.644  0.0802 -0.1829 -0.7397
 4158TIP3    H136669   5.278   1.016  17.603  2.7221 -1.7221  2.5567
 4158TIP3    H236670   5.337   1.156  17.601 -0.0772 -0.4393 -1.3106
 4159TIP3   OH236671   5.377   4.719  16.597 -0.4589  0.0987 -0.4939
 4159TIP3    H136672   5.362   4.806  16.560 -1.1580  0.3949  0.4592
 4159TIP3    H236673   5.472   4.712  16.604 -0.3472  2.5205  3.3003
 4160TIP3   OH236674   4.267   5.017  18.316 -0.4707 -0.2101 -0.1963
 4160TIP3    H136675   4.317   5.049  18.391 -0.6502 -0.1069 -0.1206
 4160TIP3    H236676   4.192   5.076  18.310  0.1557  0.5205 -1.1689
 4161TIP3   OH236677   0.478   2.277  17.086  0.3066  0.0159  0.6140
 4161TIP3    H136678   0.470   2.281  16.991  2.5457  2.4302  0.3976
 4161TIP3    H236679   0.392   2.302  17.119  0.4598  3.1245 -0.9415
 4162TIP3   OH236680   2.706   3.879  17.147 -0.1371  0.0535  0.4128
 4162TIP3    H136681   2.720   3.879  17.242 -0.9549  1.3047  0.5676
 4162TIP3    H236682   2.766   3.946  17.114 -0.7558  0.5231  0.2215
 4163TIP3   OH236683   5.616   6.520  16.411 -0.1611 -0.3261 -0.1623
 4163TIP3    H136684   5.586   6.536  16.322  0.3719 -0.1119 -0.3027
 4163TIP3    H236685   5.572   6.588  16.463  0.6616  0.4614 -0.4784
 4164TIP3   OH236686   5.603   6.525  18.712 -0.2773 -0.6500  0.4628
 4164TIP3    H136687   5.666   6.597  18.714 -1.2968  0.3500 -1.0249
 4164TIP3    H236688   5.650   6.451  18.749  1.6557  0.1364 -0.2751
 4165TIP3   OH236689   3.803   1.783  19.186  0.2186  0.9281 -0.3269
 4165TIP3    H136690   3.858   1.828  19.121  1.0190 -0.8321 -0.9333
 4165TIP3    H236691   3.811   1.690  19.164 -3.3247  0.5697 -0.6907
 4166TIP3   OH236692   5.706   4.363  16.390 -0.1450  0.6163 -0.2653
 4166TIP3    H136693   5.716   4.313  16.471 -1.7330  1.3009  0.3918
 4166TIP3    H236694   5.681   4.298  16.324  2.0796 -0.0977 -0.4837
 4167TIP3   OH236695   4.090   4.997  17.785 -0.3277 -0.2680 -0.1419
 4167TIP3    H136696   4.143   5.051  17.843  0.0134 -2.1418  1.4037
 4167TIP3    H236697   4.151   4.963  17.719  0.2551 -1.6365  1.0551
 4168TIP3   OH236698   1.194   2.068  18.588 -0.1471  0.3208 -0.0475
 4168TIP3    H136699   1.235   2.117  18.660  1.9164  1.4809 -1.8694
 4168TIP3    H236700   1.142   2.133  18.541 -0.1326 -0.0256 -0.5498
 4169TIP3   OH236701   2.232   5.213  18.552  0.0101  0.5193 -0.3005
 4169TIP3    H136702   2.265   5.290  18.507  1.7414 -0.6459 -1.1607
 4169TIP3    H236703   2.279   5.211  18.636 -0.1293  0.4866 -0.2239
 4170TIP3   OH236704   0.739   5.743  17.986  0.2034  0.1595 -0.4980
 4170TIP3    H136705   0.746   5.814  18.051  0.9456  1.0923 -1.5473
 4170TIP3    H236706   0.800   5.769  17.917 -2.7389  0.7938 -3.0393
 4171TIP3   OH236707   3.566   0.576  19.183 -0.1845  0.3408 -0.1276
 4171TIP3    H136708   3.609   0.492  19.196  0.1598  0.6457  0.8406
 4171TIP3    H236709   3.637   0.640  19.180 -0.4403  0.5984 -0.8994
 4172TIP3   OH236710   4.178   2.508  17.369 -0.0850  0.0203 -0.1915
 4172TIP3    H136711   4.257   2.454  17.362  0.5836  0.9161  0.2939
 4172TIP3    H236712   4.160   2.536  17.279 -0.6082 -1.2109 -0.4986
 4173TIP3   OH236713   1.358   5.012  18.749 -0.3448 -0.4652  0.6906
 4173TIP3    H136714   1.328   5.097  18.717 -1.0255 -0.5784  1.0159
 4173TIP3    H236715   1.397   5.031  18.835  0.1613 -0.3808  0.4495
 4174TIP3   OH236716   6.335   1.415  16.476 -0.6149 -0.5442  0.3635
 4174TIP3    H136717   6.429   1.402  16.478 -0.3626  1.0405 -0.2092
 4174TIP3    H236718   6.323   1.507  16.452 -2.3137 -1.4193 -2.6900
 4175TIP3   OH236719   3.245   4.956  18.770  0.3760  0.4877 -0.7537
 4175TIP3    H136720   3.198   5.001  18.840 -2.8465 -2.1647 -0.9573
 4175TIP3    H236721   3.197   4.979  18.690  2.6464  1.6935 -1.8701
 4176TIP3   OH236722   5.106   4.766  17.054  0.9435 -0.0868  0.0252
 4176TIP3    H136723   5.060   4.690  17.019  0.6334 -0.5968  1.4601
 4176TIP3    H236724   5.137   4.738  17.141  0.2497  1.6208  0.8748
 4177TIP3   OH236725   1.097   6.051  16.822 -0.2513  0.1696 -0.1182
 4177TIP3    H136726   1.098   6.125  16.883 -4.0349  0.1059  0.2596
 4177TIP3    H236727   1.006   6.023  16.821  1.0242 -4.8467  0.0926
 4178TIP3   OH236728   1.609   5.317  18.609 -0.8123 -0.7688 -0.3993
 4178TIP3    H136729   1.669   5.250  18.575 -1.9668 -2.2431  0.3662
 4178TIP3    H236730   1.524   5.275  18.610 -1.3867  0.3254  1.2453
 4179TIP3   OH236731   1.238   4.186  18.697  0.0482 -0.0030  0.0390
 4179TIP3    H136732   1.181   4.182  18.620  1.9174 -1.6874 -1.3624
 4179TIP3    H236733   1.258   4.279  18.706  0.3101  0.1918 -1.9527
 4180TIP3   OH236734   6.055   2.489  17.572  0.1662  0.0356 -0.5913
 4180TIP3    H136735   5.962   2.483  17.595  0.2823 -0.7696 -0.3067
 4180TIP3    H236736   6.098   2.519  17.652  0.5586 -2.6850  0.3474
 4181TIP3   OH236737   1.226   3.946  18.865  0.5051  0.1499 -0.5677
 4181TIP3    H136738   1.222   3.883  18.793 -0.0110 -0.1482 -0.2826
 4181TIP3    H236739   1.234   4.031  18.822 -0.4713  0.0359 -1.0026
 4182TIP3   OH236740   5.552   1.196  17.565  0.1592 -0.2527  0.1647
 4182TIP3    H136741   5.515   1.235  17.486 -0.7023 -0.8048  0.2836
 4182TIP3    H236742   5.600   1.119  17.534 -0.6570 -0.7962  0.2242
 4183TIP3   OH236743   6.264   6.173  18.205  0.0296 -0.0378 -0.0199
 4183TIP3    H136744   6.205   6.106  18.171 -0.2869 -0.0951  0.6396
 4183TIP3    H236745   6.349   6.152  18.164 -0.3978  0.0713 -0.9933
 4184TIP3   OH236746   2.162   0.313  18.303 -0.0795  0.1853  0.2013
 4184TIP3    H136747   2.229   0.327  18.236 -0.4028  2.0395  0.2010
 4184TIP3    H236748   2.185   0.374  18.373 -1.3189  0.2840  0.5431
 4185TIP3   OH236749   4.653   0.296  18.034  0.3516 -0.5548 -0.6392
 4185TIP3    H136750   4.728   0.255  18.076 -0.3373 -0.1647  1.0718
 4185TIP3    H236751   4.675   0.389  18.032 -0.0380 -0.4466 -0.1827
 4186TIP3   OH236752   6.709   6.006  17.065 -0.1210 -0.1829 -0.4125
 4186TIP3    H136753   6.678   5.943  17.130  1.0537 -0.4182 -0.0615
 4186TIP3    H236754   6.669   5.976  16.983 -2.8840  1.0143  0.3695
 4187TIP3   OH236755   2.229   6.324  18.083 -0.8634 -0.1039  0.3270
 4187TIP3    H136756   2.299   6.259  18.077 -0.0251  0.8541 -0.6524
 4187TIP3    H236757   2.216   6.338  18.177  0.8227  0.2976  0.5209
 4188TIP3   OH236758   3.464   0.144  19.243 -0.2975 -0.9834  0.0598
 4188TIP3    H136759   3.385   0.157  19.297 -1.0609  0.5086 -1.3422
 4188TIP3    H236760   3.454   0.055  19.208  0.7226 -2.4309  3.0632
 4189TIP3   OH236761   1.911   5.685  18.898  0.3185  0.7034 -0.2108
 4189TIP3    H136762   1.858   5.677  18.978 -1.7686 -0.3135 -1.5791
 4189TIP3    H236763   1.921   5.779  18.884  0.0392  0.8966  0.8209
 4190TIP3   OH236764   0.215   3.345  18.625  0.2475  0.3077  0.3230
 4190TIP3    H136765   0.277   3.272  18.628 -1.7301 -1.5514 -1.0367
 4190TIP3    H236766   0.129   3.304  18.628 -0.9593  2.6263 -0.1677
 4191TIP3   OH236767   2.866   0.855  16.063  0.1620  0.1892 -0.2244
 4191TIP3    H136768   2.922   0.887  16.134  0.7689 -1.3692  0.0298
 4191TIP3    H236769   2.927   0.836  15.992  0.0433 -1.8293  0.1645
 4192TIP3   OH236770   6.536   1.712  18.981 -0.3716 -0.1443 -0.4810
 4192TIP3    H136771   6.519   1.639  19.040 -0.5842  0.7646  0.6240
 4192TIP3    H236772   6.512   1.790  19.031 -0.7675  0.6614 -1.8509
 4193TIP3   OH236773   4.151   1.860  19.149  0.5225  0.3564  0.2772
 4193TIP3    H136774   4.218   1.864  19.082 -0.2527 -1.3800 -0.6801
 4193TIP3    H236775   4.169   1.779  19.197 -0.7825 -0.0770  0.0859
 4194TIP3   OH236776   5.502   2.485  16.523  0.3587 -0.1923  0.5412
 4194TIP3    H136777   5.458   2.414  16.476  1.7978 -0.9207  0.2421
 4194TIP3    H236778   5.438   2.557  16.523 -0.0348 -0.4630 -1.7939
 4195TIP3   OH236779   0.151   6.622  16.834  0.1613 -0.0431  0.5988
 4195TIP3    H136780   0.119   6.707  16.806  0.4769 -0.2655 -0.4805
 4195TIP3    H236781   0.105   6.559  16.778  1.5559 -0.4423 -0.1372
 4196TIP3   OH236782   2.985   3.921  17.075 -0.0412  0.0599  0.0225
 4196TIP3    H136783   3.024   3.905  16.989  2.3122 -0.0574  1.0124
 4196TIP3    H236784   2.922   3.992  17.061  0.7007  0.4264 -1.6950
 4197TIP3   OH236785   5.908   5.209  16.748  0.1244 -0.0186  0.2754
 4197TIP3    H136786   5.864   5.282  16.793  1.4081  1.5781 -0.9127
 4197TIP3    H236787   6.000   5.218  16.774  0.3332 -1.1009 -0.0664
 4198TIP3   OH236788   4.010   4.533  17.360  0.1714 -0.1738 -0.5351
 4198TIP3    H136789   4.007   4.443  17.390  0.0367 -0.1418 -0.4517
 4198TIP3    H236790   3.974   4.584  17.433  2.8919  0.2620  0.6234
 4199TIP3   OH236791   1.435   2.372  19.032 -0.4360  0.2389 -0.9609
 4199TIP3    H136792   1.481   2.346  19.112  0.9677 -0.8688 -2.0779
 4199TIP3    H236793   1.366   2.431  19.062  1.5545  1.7933  0.8184
 4200TIP3   OH236794   4.476   2.629  16.651 -0.3367  0.4922  0.5091
 4200TIP3    H136795   4.401   2.570  16.655 -0.9467  1.1739 -0.4813
 4200TIP3    H236796   4.489   2.645  16.557  3.1544 -2.2464  0.3355
 4201TIP3   OH236797   4.346   4.362  19.205 -0.5705 -0.0596  0.0015
 4201TIP3    H136798   4.348   4.282  19.153  0.0925  0.1594 -0.3183
 4201TIP3    H236799   4.255   4.369  19.235 -0.6978 -0.7746 -0.2039
 4202TIP3   OH236800   2.940   2.848  17.631  0.1961  0.2112  0.7529
 4202TIP3    H136801   3.014   2.862  17.572 -0.2664  0.4075  0.2168
 4202TIP3    H236802   2.906   2.762  17.606 -0.1027  0.3688  0.6190
 4203TIP3   OH236803   5.239   6.649  17.222  0.1368 -1.0078 -0.1799
 4203TIP3    H136804   5.186   6.706  17.277  2.0082  1.2035 -0.5067
 4203TIP3    H236805   5.271   6.581  17.281 -0.9546 -0.8967  0.5577
 4204TIP3   OH236806   2.647   4.690  17.048 -0.0203 -0.0323 -0.0838
 4204TIP3    H136807   2.581   4.746  17.008  0.2259  1.1679  1.0901
 4204TIP3    H236808   2.730   4.721  17.013  0.0261 -0.6824 -0.5737
 4205TIP3   OH236809   3.286   0.605  18.255 -0.3362 -0.3800 -0.4675
 4205TIP3    H136810   3.316   0.568  18.338  0.4213  1.5892  0.2127
 4205TIP3    H236811   3.238   0.534  18.212 -1.2686 -1.2879  1.9177
 4206TIP3   OH236812   6.190   0.357  17.138  0.2573  0.0561  0.6148
 4206TIP3    H136813   6.103   0.396  17.135 -0.7806 -2.0414  1.0845
 4206TIP3    H236814   6.185   0.294  17.210  1.7982 -0.8897 -0.0514
 4207TIP3   OH236815   3.821   0.446  16.399 -0.1836  0.5630  0.1546
 4207TIP3    H136816   3.843   0.464  16.308 -0.5559 -0.8284 -0.2308
 4207TIP3    H236817   3.746   0.386  16.395  0.1881 -0.0170  1.3578
 4208TIP3   OH236818   5.896   0.241  16.291  0.0987 -0.1692 -0.5498
 4208TIP3    H136819   5.966   0.286  16.243  0.5171 -1.8288 -1.5491
 4208TIP3    H236820   5.816   0.266  16.245 -0.0729  1.9491  0.7566
 4209TIP3   OH236821   0.901   0.020  17.319 -0.6579  0.2552 -0.3460
 4209TIP3    H136822   0.874  -0.070  17.301 -0.5844 -0.0359  0.8913
 4209TIP3    H236823   0.917   0.058  17.233 -0.9390 -0.8342 -0.8989
 4210TIP3   OH236824   4.235   0.347  18.813 -0.1856  0.1665  0.3239
 4210TIP3    H136825   4.249   0.432  18.855  0.2297 -0.7207  2.0404
 4210TIP3    H236826   4.144   0.325  18.831 -0.3774  0.3484 -0.3675
 4211TIP3   OH236827   5.352   6.606  17.978  0.0842  0.3184  0.6333
 4211TIP3    H136828   5.381   6.515  17.972  0.5383  0.5187 -0.8275
 4211TIP3    H236829   5.271   6.608  17.926  0.9699  1.0557 -0.7667
 4212TIP3   OH236830   4.566   0.595  17.786 -0.4015  0.1277 -0.2102
 4212TIP3    H136831   4.607   0.552  17.861 -0.8861 -1.9464 -1.0752
 4212TIP3    H236832   4.506   0.659  17.825  1.9769  1.7549  1.0955
 4213TIP3   OH236833   5.872   1.790  17.672  0.4454 -0.0306  0.0434
 4213TIP3    H136834   5.963   1.813  17.689  1.2860 -2.6825 -0.4519
 4213TIP3    H236835   5.842   1.748  17.752 -0.7248  1.6371  0.5537
 4214TIP3   OH236836   3.176   0.333  16.321 -0.3259  0.1928 -0.9211
 4214TIP3    H136837   3.162   0.339  16.227 -0.2706 -0.2634 -0.9611
 4214TIP3    H236838   3.267   0.306  16.331  0.0689  1.5113 -0.6977
 4215TIP3   OH236839   5.057   5.629  18.355 -0.8680  0.3317  0.8181
 4215TIP3    H136840   5.146   5.607  18.384 -0.1652  2.0836  0.1224
 4215TIP3    H236841   5.064   5.718  18.321 -2.1681 -0.5951 -2.2910
 4216TIP3   OH236842   6.111   6.594  17.434  0.0773 -0.4600 -0.1077
 4216TIP3    H136843   6.142   6.513  17.475  1.0387  0.6977  1.5740
 4216TIP3    H236844   6.175   6.612  17.365 -1.1874 -2.0740 -1.8008
 4217TIP3   OH236845   5.717   4.652  18.960 -0.1313 -0.0039 -0.1103
 4217TIP3    H136846   5.712   4.730  19.015 -0.1288 -0.0661 -0.0209
 4217TIP3    H236847   5.652   4.592  18.997 -0.9083  0.3609 -0.8412
 4218TIP3   OH236848   4.889   6.428  16.867 -0.7029 -0.1140  0.3614
 4218TIP3    H136849   4.831   6.458  16.797 -1.9020  0.2796  1.4726
 4218TIP3    H236850   4.929   6.348  16.832 -0.3657  0.6968 -1.2036
 4219TIP3   OH236851   0.361   2.937  16.907  0.2133 -0.0521 -0.3136
 4219TIP3    H136852   0.337   3.001  16.840 -0.9577 -0.7165 -0.5613
 4219TIP3    H236853   0.455   2.920  16.892  0.3250  0.9514 -0.7851
 4220TIP3   OH236854   1.780   5.523  16.173 -0.1135  0.3009 -0.8691
 4220TIP3    H136855   1.749   5.463  16.106  0.6199  0.8582 -1.7177
 4220TIP3    H236856   1.863   5.486  16.203  0.5725  1.0930 -1.7168
 4221TIP3   OH236857   4.909   6.542  17.195 -0.1267 -0.1092 -0.2051
 4221TIP3    H136858   4.908   6.486  17.118 -1.4840 -0.7713  0.2782
 4221TIP3    H236859   4.890   6.630  17.161  0.5416 -0.1652 -0.7607
 4222TIP3   OH236860   2.037   5.024  18.957 -0.0304 -0.2129  0.2522
 4222TIP3    H136861   2.034   4.999  19.049 -2.5290  0.4679  0.4224
 4222TIP3    H236862   2.059   4.943  18.911 -1.2762 -1.1857  1.2968
 4223TIP3   OH236863   3.357   3.630  19.001  0.2087  0.4252  0.0330
 4223TIP3    H136864   3.372   3.658  19.092  1.0821  0.2923 -0.0583
 4223TIP3    H236865   3.288   3.564  19.008 -0.3840  1.0882  0.4917
 4224TIP3   OH236866   2.987   0.487  17.417  0.6637 -0.4889  0.5258
 4224TIP3    H136867   2.904   0.439  17.426  0.0430  0.6107  0.9765
 4224TIP3    H236868   2.996   0.534  17.500  1.9074 -0.8293  0.5945
 4225TIP3   OH236869   0.975   4.214  18.935 -0.2318  0.0895  0.3865
 4225TIP3    H136870   0.952   4.297  18.892 -1.1336 -0.1494  0.4058
 4225TIP3    H236871   0.945   4.147  18.874  3.8731 -0.3311 -1.5650
 4226TIP3   OH236872   4.581   0.107  18.594  0.1786 -0.5344  0.0025
 4226TIP3    H136873   4.570   0.186  18.541  2.3468  0.0926  0.3858
 4226TIP3    H236874   4.530   0.124  18.673  1.0276  0.7449  0.3057
 4227TIP3   OH236875   4.518   0.201  17.551 -0.0983  0.0181  0.2038
 4227TIP3    H136876   4.581   0.130  17.539 -0.3956 -0.1623 -0.2862
 4227TIP3    H236877   4.462   0.171  17.623  0.7103  0.4276  1.0392
 4228TIP3   OH236878   3.482   4.909  16.791  0.2126 -0.1856 -0.1065
 4228TIP3    H136879   3.502   4.823  16.827  1.5126  0.3828  0.6113
 4228TIP3    H236880   3.566   4.941  16.758 -0.4281  0.4444 -1.1884
 4229TIP3   OH236881   4.287   4.469  18.341  0.0924 -0.3797 -0.2992
 4229TIP3    H136882   4.290   4.559  18.373 -0.5770 -0.7825  0.9399
 4229TIP3    H236883   4.193   4.450  18.332  0.2357 -0.7128 -1.3127
 4230TIP3   OH236884   4.178   1.188  19.059 -1.2330  0.1986  0.2440
 4230TIP3    H136885   4.250   1.129  19.082  0.0831  1.2880 -0.9391
 4230TIP3    H236886   4.182   1.257  19.125  1.6904  2.6000 -2.1566
 4231TIP3   OH236887   3.292   0.875  16.133 -0.1865  0.2788 -0.2949
 4231TIP3    H136888   3.364   0.858  16.072 -2.3458  0.2520 -2.9941
 4231TIP3    H236889   3.266   0.965  16.115  0.4539  1.0357  2.1734
 4232TIP3   OH236890   0.157   3.264  19.553  0.3817 -0.2249  0.0687
 4232TIP3    H136891   0.121   3.177  19.536 -1.1481  0.0476  1.5546
 4232TIP3    H236892   0.231   3.249  19.612 -0.6325 -0.4937  1.3257
 4233TIP3   OH236893   2.515   0.094  18.843  0.0450  0.4786  0.3450
 4233TIP3    H136894   2.559   0.178  18.853  1.6071 -0.4227  1.7405
 4233TIP3    H236895   2.570   0.045  18.782 -0.2970  0.1241  0.3130
 4234TIP3   OH236896   4.381   2.143  18.713  0.3809  0.4152 -0.4916
 4234TIP3    H136897   4.293   2.131  18.676  0.6286  0.5841 -1.1398
 4234TIP3    H236898   4.438   2.151  18.637  1.1004 -0.6876 -0.0897
 4235TIP3   OH236899   2.079   6.064  16.881  0.3291 -0.2981  0.2846
 4235TIP3    H136900   2.172   6.081  16.871  0.4592 -0.6604  0.7783
 4235TIP3    H236901   2.045   6.141  16.926  0.5691 -0.5517  0.9134
 4236TIP3   OH236902   2.086   6.653  16.107 -0.1023  0.0453 -0.8544
 4236TIP3    H136903   2.001   6.681  16.140  0.3902  1.4046 -0.6821
 4236TIP3    H236904   2.096   6.699  16.023  0.9218  0.7688 -0.3511
 4237TIP3   OH236905   1.239   4.739  16.740 -0.2095 -0.6963 -0.2601
 4237TIP3    H136906   1.330   4.711  16.752  0.7032  2.4431  1.2239
 4237TIP3    H236907   1.208   4.759  16.828 -1.0525  1.6599 -1.0096
 4238TIP3   OH236908   6.424   5.564  16.345  0.1854  0.2135 -0.6574
 4238TIP3    H136909   6.342   5.558  16.296 -1.3958  1.1848  1.6594
 4238TIP3    H236910   6.431   5.480  16.389  0.2489  0.2571 -0.5841
 4239TIP3   OH236911   6.228   6.562  15.464 -0.3004  0.3207  0.0520
 4239TIP3    H136912   6.250   6.503  15.392  0.0585  0.0128  0.4075
 4239TIP3    H236913   6.172   6.628  15.424 -0.7907 -0.3095 -0.3371
 4240TIP3   OH236914   4.291   0.139  16.890  0.5278 -0.2160  0.0034
 4240TIP3    H136915   4.382   0.117  16.909  0.5549 -0.7593 -0.7131
 4240TIP3    H236916   4.292   0.167  16.798  0.0036 -0.0104  0.0583
 4241TIP3   OH236917   1.392   2.663  16.518 -0.0832  0.1683 -0.3408
 4241TIP3    H136918   1.315   2.649  16.573  0.5489 -0.2602  0.4600
 4241TIP3    H236919   1.360   2.716  16.445 -1.2514 -0.4572 -0.3141
 4242TIP3   OH236920   1.755   5.976  18.643 -0.1522  0.2881 -0.5284
 4242TIP3    H136921   1.785   5.905  18.587 -1.9081 -1.7414  0.9035
 4242TIP3    H236922   1.816   5.976  18.717 -0.9311 -0.7445  0.1491
 4243TIP3   OH236923   5.845   1.664  17.185 -0.2520  0.5925  0.1818
 4243TIP3    H136924   5.847   1.666  17.281  1.8805 -1.2164  0.2546
 4243TIP3    H236925   5.753   1.673  17.163 -0.7423  1.6835  2.3667
 4244TIP3   OH236926   3.148   6.678  18.744 -0.1366  0.3012 -0.7263
 4244TIP3    H136927   3.232   6.631  18.751 -1.2141 -2.1032 -2.3524
 4244TIP3    H236928   3.161   6.758  18.794  2.2412 -1.2375  1.3723
 4245TIP3   OH236929   0.533   0.287  19.080  0.3737  0.1708 -0.4916
 4245TIP3    H136930   0.452   0.306  19.127  1.1930 -0.5897  1.3681
 4245TIP3    H236931   0.514   0.209  19.029 -0.2288  0.3659 -0.5738
 4246TIP3   OH236932   5.746   4.184  17.435 -0.3670 -0.2653  0.1559
 4246TIP3    H136933   5.705   4.098  17.428 -3.1906  0.9374  0.3062
 4246TIP3    H236934   5.806   4.177  17.508  0.1392 -2.3165 -0.4055
 4247TIP3   OH236935   1.667   6.388  18.482  0.0460  0.4109 -0.1973
 4247TIP3    H136936   1.661   6.378  18.387 -1.2446  3.2885 -0.5414
 4247TIP3    H236937   1.590   6.342  18.516  0.3521 -0.3772 -0.5592
 4248TIP3   OH236938   3.384   3.036  17.907  0.1206 -0.0965  0.2464
 4248TIP3    H136939   3.381   3.120  17.861  1.8207 -0.4892 -0.6388
 4248TIP3    H236940   3.305   2.990  17.877  0.5522  0.1467 -1.3735
 4249TIP3   OH236941   2.505   3.208  19.277  0.4176 -0.0836  0.2520
 4249TIP3    H136942   2.544   3.294  19.262  0.6056  0.0034  1.1941
 4249TIP3    H236943   2.442   3.222  19.348 -1.8213 -0.0963 -1.5963
 4250TIP3   OH236944   2.646   4.433  15.937 -0.3389 -0.3069  0.2452
 4250TIP3    H136945   2.691   4.495  15.994  0.8259 -0.6131 -0.3051
 4250TIP3    H236946   2.679   4.453  15.849 -0.4411 -1.2731 -0.0243
 4251TIP3   OH236947   2.354   0.526  16.749  0.0221  0.0452 -0.2749
 4251TIP3    H136948   2.369   0.437  16.718  2.0876  1.0004 -2.2886
 4251TIP3    H236949   2.322   0.574  16.673  1.7614  1.6437 -0.1026
 4252TIP3   OH236950   1.977   6.314  18.462  0.0702  0.0187 -0.1268
 4252TIP3    H136951   1.885   6.297  18.480 -0.1813  0.8969 -0.5482
 4252TIP3    H236952   1.979   6.403  18.426  0.9620 -0.3498 -1.0502
 4253TIP3   OH236953   5.454   1.526  17.119  0.0753  0.3934  0.1744
 4253TIP3    H136954   5.465   1.435  17.146 -0.3476  0.3122  0.0683
 4253TIP3    H236955   5.495   1.530  17.032 -0.4988  0.1459 -0.1122
 4254TIP3   OH236956   4.985   1.517  18.762 -0.5895 -0.5854 -0.3627
 4254TIP3    H136957   4.918   1.453  18.783  1.1038 -2.5227 -0.5734
 4254TIP3    H236958   5.033   1.479  18.689 -0.8630  1.9682 -1.9910
 4255TIP3   OH236959   2.449   5.386  17.258 -0.7857  0.3424 -0.0218
 4255TIP3    H136960   2.357   5.393  17.235 -0.5254 -1.0729 -1.7821
 4255TIP3    H236961   2.494   5.380  17.173  0.7051 -1.0601  0.8161
 4256TIP3   OH236962   1.746   0.421  17.488  0.2339  0.1477 -0.0022
 4256TIP3    H136963   1.775   0.361  17.557 -1.5403 -2.2211 -1.1626
 4256TIP3    H236964   1.827   0.460  17.454  1.3352 -0.5801  1.6981
 4257TIP3   OH236965   3.458   6.191  18.158 -0.2220  0.5660  0.3943
 4257TIP3    H136966   3.517   6.201  18.083 -0.6948 -0.6732 -0.1710
 4257TIP3    H236967   3.448   6.279  18.192  1.3541  0.9226  0.0416
 4258TIP3   OH236968   1.428   1.545  19.510 -0.0099  0.0049 -0.0174
 4258TIP3    H136969   1.386   1.543  19.424 -1.2596  0.8518  0.5372
 4258TIP3    H236970   1.398   1.627  19.549 -1.0762 -1.2816  2.0037
 4259TIP3   OH236971   4.890   3.086  16.914 -0.0321  0.0232 -0.0288
 4259TIP3    H136972   4.870   3.060  17.003 -1.9491  2.2882  0.2901
 4259TIP3    H236973   4.863   3.012  16.860 -0.7354 -0.5716  1.1238
 4260TIP3   OH236974   0.909   2.504  18.028  0.3898 -0.3375 -0.3115
 4260TIP3    H136975   0.891   2.428  18.083  0.8041  0.2384  0.6394
 4260TIP3    H236976   0.947   2.468  17.948  0.8654 -1.1023  0.2557
 4261TIP3   OH236977   1.946   0.496  17.267  0.2075  0.1584 -0.3533
 4261TIP3    H136978   1.991   0.444  17.333 -0.5126 -1.1270 -0.8533
 4261TIP3    H236979   2.015   0.518  17.203  0.1224 -2.1096 -1.3053
 4262TIP3   OH236980   6.301   1.899  15.953  0.4658  0.1791  0.4928
 4262TIP3    H136981   6.376   1.956  15.968  0.9366 -0.3237  0.0435
 4262TIP3    H236982   6.315   1.825  16.013  1.0770 -0.6194 -0.6105
 4263TIP3   OH236983   4.495   4.249  17.491 -0.0235  0.1452  0.2489
 4263TIP3    H136984   4.586   4.263  17.517 -0.2844  2.3010  0.1604
 4263TIP3    H236985   4.480   4.312  17.420 -1.7408  0.2372  0.6505
 4264TIP3   OH236986   3.418   1.062  18.218  0.1265  0.2487 -0.0026
 4264TIP3    H136987   3.505   1.088  18.245 -0.4540  0.9103  1.2807
 4264TIP3    H236988   3.374   1.036  18.298 -0.7374 -0.4810 -0.6850
 4265TIP3   OH236989   1.065   1.053  18.556  0.5648 -0.0415  0.1586
 4265TIP3    H136990   1.066   1.066  18.651  2.4074 -2.2274  0.5394
 4265TIP3    H236991   1.157   1.059  18.530  0.2213 -0.6166 -1.2878
 4266TIP3   OH236992   1.008   6.487  19.277 -0.2219 -0.3931 -0.2191
 4266TIP3    H136993   0.943   6.418  19.261 -1.6336  0.7469  0.3385
 4266TIP3    H236994   1.075   6.473  19.211 -0.4104 -2.3430 -0.0697
 4267TIP3   OH236995   3.389   5.549  18.186 -0.4493  0.4758  0.1181
 4267TIP3    H136996   3.371   5.590  18.271 -0.4971  0.4414  0.1250
 4267TIP3    H236997   3.484   5.540  18.183 -0.5143 -0.3824  0.5654
 4268TIP3   OH236998   1.998   3.649  19.571  0.0025 -0.7415 -0.0798
 4268TIP3    H136999   1.968   3.623  19.484  1.0330 -0.4330 -0.5351
 4268TIP3    H237000   2.077   3.700  19.556 -0.3615  0.1749  0.9834
 4269TIP3   OH237001   4.622   3.220  17.692  0.0169 -0.3216 -0.5057
 4269TIP3    H137002   4.632   3.162  17.616  1.2642  0.9189 -1.3434
 4269TIP3    H237003   4.611   3.161  17.766 -3.2061 -1.6032 -1.7970
 4270TIP3   OH237004   4.691   4.448  17.131 -0.2529  0.1993 -0.1240
 4270TIP3    H137005   4.662   4.365  17.168 -3.1007  0.6883 -1.0143
 4270TIP3    H237006   4.775   4.428  17.090  0.6515 -1.4584  2.3377
 4271TIP3   OH237007   4.393   6.222  18.184 -0.3237 -0.0266  0.1884
 4271TIP3    H137008   4.357   6.302  18.146  0.2372 -0.1127 -0.5432
 4271TIP3    H237009   4.461   6.253  18.244  1.1985  0.0054 -1.4945
 4272TIP3   OH237010   6.149   2.109  16.694 -0.5746  0.0763 -0.0242
 4272TIP3    H137011   6.169   2.123  16.601  0.7748  4.0852  0.6909
 4272TIP3    H237012   6.055   2.089  16.695 -0.8071  0.7808 -2.1820
 4273TIP3   OH237013   0.968   6.171  17.729 -0.0376 -0.3754 -0.1154
 4273TIP3    H137014   0.885   6.195  17.769  1.8354  1.8164  2.8668
 4273TIP3    H237015   0.984   6.081  17.760  0.1696  0.3761  2.1827
 4274TIP3   OH237016   4.691   3.871  17.994 -0.0725 -0.2396 -0.0162
 4274TIP3    H137017   4.721   3.900  17.907  0.8463 -0.4253  0.2264
 4274TIP3    H237018   4.606   3.830  17.978  0.3271 -0.7363 -0.9053
 4275TIP3   OH237019   3.039   1.303  18.923 -0.2944 -0.0181  0.2156
 4275TIP3    H137020   3.018   1.338  19.010 -1.3218 -0.1289  0.0245
 4275TIP3    H237021   3.046   1.381  18.867  2.3124  0.1995  0.7615
 4276TIP3   OH237022   3.570   0.088  16.132  0.5579 -0.4721 -0.6753
 4276TIP3    H137023   3.577   0.047  16.046 -0.8680 -1.0470 -0.5503
 4276TIP3    H237024   3.650   0.140  16.141  0.3085  0.3423 -2.7186
 4277TIP3   OH237025   4.325   5.631  16.590 -0.0666  0.2771 -0.5091
 4277TIP3    H137026   4.389   5.681  16.641 -0.1586  0.0445 -0.1653
 4277TIP3    H237027   4.333   5.541  16.621 -0.6190  0.2586 -0.4047
 4278TIP3   OH237028   4.348   1.580  19.247  0.2853  0.1263 -0.1635
 4278TIP3    H137029   4.404   1.519  19.294  0.1050  0.6791  0.7992
 4278TIP3    H237030   4.368   1.665  19.286 -1.3866  0.2968  0.3947
 4279TIP3   OH237031   3.164   1.947  17.704 -0.3430  0.4139 -0.0218
 4279TIP3    H137032   3.162   1.932  17.609  1.2829  2.4245 -0.4586
 4279TIP3    H237033   3.122   2.032  17.716 -2.3527 -0.6921  1.3681
 4280TIP3   OH237034   3.670   4.393  16.699  0.3611 -0.6865 -0.5295
 4280TIP3    H137035   3.760   4.396  16.733  0.4346  1.0270 -0.7637
 4280TIP3    H237036   3.631   4.317  16.740  0.7326  0.7364  2.7274
 4281TIP3   OH237037   4.980   6.139  17.220 -0.1866 -0.3867 -0.2152
 4281TIP3    H137038   4.895   6.121  17.180 -0.4731  0.4303 -0.0055
 4281TIP3    H237039   5.028   6.056  17.214 -1.1046 -0.9391 -0.0653
 4282TIP3   OH237040   0.560   1.578  17.375  0.3777  0.1433  0.7203
 4282TIP3    H137041   0.633   1.634  17.401  2.7647 -2.0073 -0.8978
 4282TIP3    H237042   0.525   1.545  17.457  0.9007  1.5602  1.5497
 4283TIP3   OH237043   5.533   2.292  19.533 -0.2718 -0.0663  0.1778
 4283TIP3    H137044   5.593   2.219  19.523  0.2437  0.3577  0.1280
 4283TIP3    H237045   5.450   2.261  19.497  0.0259 -0.5160 -0.1206
 4284TIP3   OH237046   3.833   4.412  16.427 -0.1301 -0.3946  0.3237
 4284TIP3    H137047   3.858   4.341  16.369 -0.3691  0.7674 -1.2522
 4284TIP3    H237048   3.751   4.382  16.467 -1.0918 -0.4034 -1.5308
 4285TIP3   OH237049   2.555   5.391  18.650  0.2211 -0.2213 -0.6517
 4285TIP3    H137050   2.575   5.483  18.665 -0.3535 -0.0733 -0.7823
 4285TIP3    H237051   2.619   5.362  18.585 -0.6688  0.5376 -1.9058
 4286TIP3   OH237052   5.560   6.602  17.707  0.1268  0.2794 -0.1714
 4286TIP3    H137053   5.511   6.529  17.744 -1.8868  1.1705 -0.9757
 4286TIP3    H237054   5.578   6.659  17.782 -0.5942  0.2375  0.0377
 4287TIP3   OH237055   0.831   6.682  18.957 -0.1789  0.1921 -0.2200
 4287TIP3    H137056   0.868   6.727  18.881  0.6379 -0.4633 -0.2138
 4287TIP3    H237057   0.898   6.690  19.025 -0.2420 -0.5765 -0.0573
 4288TIP3   OH237058   0.898   4.579  16.720  0.5501  0.5749  0.4266
 4288TIP3    H137059   0.982   4.563  16.764  0.8792  1.0445 -0.0241
 4288TIP3    H237060   0.864   4.492  16.701  1.0746  0.3818  0.3566
 4289TIP3   OH237061   3.012   4.472  17.180 -0.4123  0.2271 -0.1857
 4289TIP3    H137062   2.928   4.503  17.212  0.7211  1.7474  1.5062
 4289TIP3    H237063   3.020   4.383  17.214  0.3342  1.4422  3.3026
 4290TIP3   OH237064   2.969   5.554  17.064 -0.3363 -0.1930  0.0185
 4290TIP3    H137065   3.019   5.507  16.998 -1.3758 -2.5926  0.8206
 4290TIP3    H237066   2.894   5.588  17.017 -0.6687 -1.2152 -0.2289
 4291TIP3   OH237067   5.224   2.427  19.061  0.2847  0.3653  0.0252
 4291TIP3    H137068   5.194   2.500  19.007  1.4487  0.7782 -0.0910
 4291TIP3    H237069   5.319   2.441  19.070  0.0518  0.7274  2.7900
 4292TIP3   OH237070   1.748   2.788  18.474  1.2284 -0.5388 -0.1792
 4292TIP3    H137071   1.671   2.781  18.418  0.8255 -2.5223  0.5529
 4292TIP3    H237072   1.719   2.755  18.559  2.2023  1.1411  0.8561
 4293TIP3   OH237073   4.611   4.470  18.629 -0.1778  0.2041  0.1932
 4293TIP3    H137074   4.566   4.390  18.655 -0.9863  0.6644  0.2531
 4293TIP3    H237075   4.703   4.453  18.647 -0.2924 -0.8392 -0.1345
 4294TIP3   OH237076   3.006   0.097  15.786 -0.7831  0.8251 -0.2862
 4294TIP3    H137077   3.020   0.031  15.854 -1.6599  1.7288  0.8095
 4294TIP3    H237078   2.920   0.134  15.806 -1.1200  1.0205 -1.9900
 4295TIP3   OH237079   2.451   6.275  16.143 -0.0264 -0.2181 -0.2506
 4295TIP3    H137080   2.491   6.215  16.205  0.7866  1.4112  0.8588
 4295TIP3    H237081   2.358   6.274  16.165 -0.2459 -1.9680 -1.0746
 4296TIP3   OH237082   5.907   6.688  17.218  0.1196  0.3850 -0.0266
 4296TIP3    H137083   5.958   6.608  17.231 -1.2433 -0.4400  0.5300
 4296TIP3    H237084   5.849   6.668  17.145  0.6653  1.3508 -0.7402
 4297TIP3   OH237085   5.181   5.505  17.435 -0.1764  0.7079 -0.2165
 4297TIP3    H137086   5.120   5.435  17.411  0.8740 -0.2968 -0.0447
 4297TIP3    H237087   5.126   5.570  17.478 -0.9387 -0.8659  1.3431
 4298TIP3   OH237088   3.147   0.445  18.588 -0.8290 -0.0385  0.0293
 4298TIP3    H137089   3.227   0.458  18.537 -1.7588 -0.5120 -1.6206
 4298TIP3    H237090   3.146   0.518  18.650 -0.4853  1.6021 -1.7745
 4299TIP3   OH237091   2.378   3.731  17.915 -0.3281  0.6627 -0.3367
 4299TIP3    H137092   2.339   3.646  17.937 -0.8315  0.4458 -1.9403
 4299TIP3    H237093   2.436   3.712  17.841  0.6235  1.4849  0.1896
 4300TIP3   OH237094   5.937   4.641  15.728 -0.6297  0.4366 -0.6794
 4300TIP3    H137095   5.917   4.550  15.707 -1.3519  0.4075  0.0579
 4300TIP3    H237096   6.030   4.651  15.708 -0.3192 -0.7170  0.1037
 4301TIP3   OH237097   6.486   0.514  17.210 -0.1600  0.1112 -0.0100
 4301TIP3    H137098   6.444   0.498  17.125 -0.0466 -0.3625  0.0233
 4301TIP3    H237099   6.569   0.556  17.188 -0.6348  1.0342 -0.0766
 4302TIP3   OH237100   1.288   0.893  17.658  0.5265 -0.1771 -0.3017
 4302TIP3    H137101   1.260   0.820  17.603  2.1925  0.4879 -2.1807
 4302TIP3    H237102   1.281   0.861  17.748  0.8750 -2.5036 -1.0435
 4303TIP3   OH237103   6.162   1.800  18.036 -0.7926 -0.0100  0.2218
 4303TIP3    H137104   6.173   1.765  18.124  1.3745  0.6393  0.2825
 4303TIP3    H237105   6.132   1.890  18.049 -1.3595 -0.2025  0.2574
 4304TIP3   OH237106   5.645   5.876  18.607 -0.6436  0.1204 -0.3354
 4304TIP3    H137107   5.649   5.785  18.576 -2.0054  0.4264 -1.4571
 4304TIP3    H237108   5.664   5.869  18.701  1.0487 -1.0981 -0.7016
 4305TIP3   OH237109   3.975   3.508  17.026  0.6574  0.2288 -0.0925
 4305TIP3    H137110   3.973   3.526  17.120 -1.0400  0.0541 -0.0579
 4305TIP3    H237111   3.937   3.421  17.018  1.7768 -0.2034 -0.8736
 4306TIP3   OH237112   1.374   5.127  17.749  0.1712  0.3034 -0.5844
 4306TIP3    H137113   1.386   5.035  17.722 -0.0618  0.0292  0.2248
 4306TIP3    H237114   1.447   5.143  17.809  1.2540  1.2080 -2.0682
 4307TIP3   OH237115   0.836   5.590  18.608 -0.3060 -0.0905 -0.0292
 4307TIP3    H137116   0.916   5.559  18.566 -0.3835  0.2334 -0.4272
 4307TIP3    H237117   0.783   5.511  18.621  0.2182 -0.3524  0.5559
 4308TIP3   OH237118   6.540   3.247  16.789  0.3038  0.4450  0.8249
 4308TIP3    H137119   6.501   3.160  16.798 -0.0704  0.5268  0.1058
 4308TIP3    H237120   6.475   3.307  16.825  0.9732  0.3655  2.2307
 4309TIP3   OH237121   0.289   5.488  18.857 -0.5617  0.4268  0.3378
 4309TIP3    H137122   0.326   5.496  18.945  1.9906  0.4305 -0.6579
 4309TIP3    H237123   0.351   5.533  18.800 -0.8857 -1.5741 -1.7529
 4310TIP3   OH237124   2.478   5.795  16.422  0.8064  0.2683 -0.2351
 4310TIP3    H137125   2.537   5.800  16.347  0.2896  1.1397 -0.6065
 4310TIP3    H237126   2.484   5.881  16.463  1.0579 -0.1928  0.7136
 4311TIP3   OH237127   6.092   5.628  18.329 -0.3906 -0.5402  0.4837
 4311TIP3    H137128   6.142   5.637  18.247 -2.1988  0.1769 -0.6047
 4311TIP3    H237129   6.157   5.602  18.394  1.1153 -1.1399 -1.1752
 4312TIP3   OH237130   4.730   5.479  18.708 -0.0071  0.3168 -0.4722
 4312TIP3    H137131   4.692   5.401  18.669  0.0523  0.4662 -0.8261
 4312TIP3    H237132   4.762   5.531  18.634  0.9862  0.1473 -0.1777
 4313TIP3   OH237133   2.192   5.932  18.563  0.1331 -0.6973 -0.3734
 4313TIP3    H137134   2.282   5.929  18.532  0.3944 -1.2245  0.4105
 4313TIP3    H237135   2.170   6.026  18.562  0.9160 -0.4984  0.0485
 4314TIP3   OH237136   2.146   2.312  18.756  0.0797 -0.1019  0.4125
 4314TIP3    H137137   2.181   2.322  18.845  0.1556  0.0476  0.3662
 4314TIP3    H237138   2.206   2.362  18.701 -0.5419  0.6403  0.4089
 4315TIP3   OH237139   2.548   6.651  17.907  0.0654 -0.7155 -0.0092
 4315TIP3    H137140   2.578   6.629  17.995  1.1639  2.1057  0.4335
 4315TIP3    H237141   2.603   6.597  17.849 -0.2533 -2.1461  0.9640
 4316TIP3   OH237142   5.949   3.564  18.239 -0.4658 -0.1406  0.1062
 4316TIP3    H137143   5.918   3.639  18.188 -0.8254 -1.1309 -1.1753
 4316TIP3    H237144   5.930   3.588  18.330  0.4570  1.7945 -0.1590
 4317TIP3   OH237145   0.249   1.151  18.227 -0.3800 -0.0587  0.4473
 4317TIP3    H137146   0.228   1.085  18.293  0.7394 -0.8099  0.0813
 4317TIP3    H237147   0.212   1.232  18.262 -0.0464 -0.4884  1.8686
 4318TIP3   OH237148   6.151   0.182  16.643  0.4682  0.3994  0.5046
 4318TIP3    H137149   6.197   0.175  16.560  0.8689  2.1163  0.5503
 4318TIP3    H237150   6.164   0.097  16.685 -0.7822 -0.9700 -1.6831
 4319TIP3   OH237151   3.989   2.655  19.442 -0.5920 -0.6767  0.1175
 4319TIP3    H137152   3.916   2.712  19.463  0.4815  0.3962  1.0641
 4319TIP3    H237153   4.057   2.714  19.408  0.0242 -1.5745 -0.2566
 4320TIP3   OH237154   3.310   6.382  17.263 -0.3593 -0.2972  0.0490
 4320TIP3    H137155   3.301   6.427  17.347  0.2508  0.2560 -0.1719
 4320TIP3    H237156   3.370   6.437  17.213 -1.7303  0.0923 -1.2509
 4321TIP3   OH237157   3.304   3.527  19.438  0.1362 -0.1744 -0.7713
 4321TIP3    H137158   3.230   3.544  19.496 -1.7584  1.5805 -3.4702
 4321TIP3    H237159   3.366   3.598  19.456 -1.3385  1.5357 -2.1675
 4322TIP3   OH237160   4.024   5.058  17.410 -0.1161  0.3501  0.0065
 4322TIP3    H137161   3.940   5.013  17.407 -1.0126  1.9642 -2.5746
 4322TIP3    H237162   4.004   5.148  17.384  2.5446  0.4434 -2.1521
 4323TIP3   OH237163   1.389   0.706  18.480  0.1954  0.0336  0.2991
 4323TIP3    H137164   1.339   0.755  18.545 -0.8363 -1.0195  0.3277
 4323TIP3    H237165   1.347   0.726  18.397  0.3023 -0.1508  0.2016
 4324TIP3   OH237166   1.972   3.226  18.545 -0.2424 -0.6761  0.2199
 4324TIP3    H137167   2.025   3.211  18.466  2.1770 -0.7308  1.7518
 4324TIP3    H237168   1.893   3.173  18.531 -1.3062  1.5260 -3.3571
 4325TIP3   OH237169   0.850   4.388  18.409 -0.5114  0.3506 -0.0831
 4325TIP3    H137170   0.781   4.376  18.344 -0.1177  2.1971 -0.9177
 4325TIP3    H237171   0.838   4.478  18.440  1.0611  0.4739  0.2716
 4326TIP3   OH237172   1.828   0.130  18.648 -0.1671 -0.3461 -0.5887
 4326TIP3    H137173   1.912   0.136  18.603  0.1873 -0.6987  0.0060
 4326TIP3    H237174   1.852   0.126  18.741 -0.7928 -1.3358 -0.4588
 4327TIP3   OH237175   2.196   2.432  17.705 -0.2135 -0.2544 -0.1109
 4327TIP3    H137176   2.289   2.412  17.690  0.7671  0.6876  3.6164
 4327TIP3    H237177   2.154   2.346  17.708  0.8851 -0.8196 -0.1579
 4328TIP3   OH237178   0.535   1.153  18.078  0.7429  0.3289  0.1375
 4328TIP3    H137179   0.484   1.223  18.036  0.8349  0.2585 -0.0906
 4328TIP3    H237180   0.545   1.182  18.168  0.6933  0.5640  0.0674
 4329TIP3   OH237181   5.943   6.580  18.485  0.1381  0.0308  0.3594
 4329TIP3    H137182   5.854   6.607  18.466  0.2409  0.1782  0.0898
 4329TIP3    H237183   5.948   6.490  18.452  0.1089  0.0438  0.3192
 4330TIP3   OH237184   2.587   2.166  19.183  0.1144  0.0878 -0.1204
 4330TIP3    H137185   2.502   2.128  19.160 -0.4914  1.3368 -0.0185
 4330TIP3    H237186   2.583   2.178  19.277 -0.6517  2.4782 -0.3712
 4331TIP3   OH237187   4.663   1.433  17.985 -0.2067  0.1864 -0.7755
 4331TIP3    H137188   4.585   1.395  17.944  0.3575 -2.3900  0.3418
 4331TIP3    H237189   4.661   1.400  18.075  0.4816  2.7636  0.2733
 4332TIP3   OH237190   1.968   3.922  17.279 -0.2079  0.1059  0.0029
 4332TIP3    H137191   2.018   3.950  17.356 -0.2137 -0.7771  0.3407
 4332TIP3    H237192   1.919   3.845  17.309 -1.2197  0.5179 -0.5199
 4333TIP3   OH237193   0.534   5.167  18.209 -0.2274  0.1553 -0.4238
 4333TIP3    H137194   0.480   5.096  18.244  0.5729  0.2737  1.1522
 4333TIP3    H237195   0.609   5.123  18.169  0.1072  0.0656  0.2717
 4334TIP3   OH237196   3.232   2.930  16.835 -0.2554  0.5220 -1.1632
 4334TIP3    H137197   3.169   2.921  16.764 -0.2532  0.5301 -1.1666
 4334TIP3    H237198   3.297   2.992  16.801  0.0774  0.0541 -1.3834
 4335TIP3   OH237199   5.411   1.891  19.231  0.1879  0.0718  0.1155
 4335TIP3    H137200   5.319   1.910  19.248 -0.0445 -0.4264 -0.5341
 4335TIP3    H237201   5.410   1.832  19.156  1.0530  0.3070 -0.0967
 4336TIP3   OH237202   5.430   5.287  18.069  0.1307  0.0048  0.2549
 4336TIP3    H137203   5.379   5.367  18.057 -0.2158 -0.3965 -1.2275
 4336TIP3    H237204   5.516   5.309  18.032  0.5362  0.1819  1.2935
 4337TIP3   OH237205   1.695   0.134  19.177 -0.0340 -0.0583  0.0803
 4337TIP3    H137206   1.633   0.070  19.213 -0.2631 -0.6438 -1.3104
 4337TIP3    H237207   1.780   0.090  19.181 -0.0648 -0.1366 -0.1256
 4338TIP3   OH237208   1.636   4.828  16.574  0.0652  0.3402 -0.3392
 4338TIP3    H137209   1.669   4.756  16.520  1.2615  0.8727 -0.3528
 4338TIP3    H237210   1.669   4.907  16.532 -2.5921  1.0507 -1.2666
 4339TIP3   OH237211   3.631   5.274  19.478 -0.1181  0.7276 -0.1880
 4339TIP3    H137212   3.682   5.329  19.537  0.3553 -0.0019  0.0923
 4339TIP3    H237213   3.571   5.335  19.434  0.4470  1.4734  0.0610
 4340TIP3   OH237214   0.943   0.372  19.543 -0.0812  0.6103  0.0182
 4340TIP3    H137215   1.012   0.317  19.504  1.3873  1.8123  0.8127
 4340TIP3    H237216   0.936   0.340  19.633 -0.1576  0.8585  0.1009
 4341TIP3   OH237217   0.239   1.996  19.006  0.3294  0.0470  0.0742
 4341TIP3    H137218   0.177   1.937  18.963 -0.9833  0.1000  1.7878
 4341TIP3    H237219   0.325   1.965  18.979 -0.4148 -0.1772 -2.1843
 4342TIP3   OH237220   4.317   5.419  18.425  0.0769  0.4521  0.0894
 4342TIP3    H137221   4.240   5.387  18.472  0.3544  0.2364  0.4050
 4342TIP3    H237222   4.282   5.456  18.344 -0.2956 -0.2908 -0.1028
 4343TIP3   OH237223   1.346   5.900  16.135 -0.1344 -0.6566  0.2809
 4343TIP3    H137224   1.274   5.859  16.183  0.0871 -2.8495 -1.0872
 4343TIP3    H237225   1.303   5.948  16.064 -0.3010 -1.2871 -0.0513
 4344TIP3   OH237226   4.224   0.332  18.521  0.2266 -0.7345 -0.4101
 4344TIP3    H137227   4.223   0.242  18.487 -2.8460 -1.9554  2.3276
 4344TIP3    H237228   4.241   0.322  18.614 -1.4809  1.3522  0.2080
 4345TIP3   OH237229   6.088   5.870  16.649 -0.6160 -0.5443  0.1763
 4345TIP3    H137230   6.056   5.883  16.560 -2.6947 -0.7718  0.8283
 4345TIP3    H237231   6.153   5.800  16.641  2.8271  2.5663 -1.7760
 4346TIP3   OH237232   5.136   4.925  19.084 -0.1687  0.6692 -0.2369
 4346TIP3    H137233   5.137   4.882  19.169  0.6650 -0.5816 -0.8471
 4346TIP3    H237234   5.172   5.012  19.101 -0.5120  0.6298  0.7663
 4347TIP3   OH237235   3.085   6.145  17.620 -0.9648 -0.1855 -0.0603
 4347TIP3    H137236   2.999   6.166  17.657 -2.3804 -1.5290 -2.3676
 4347TIP3    H237237   3.069   6.133  17.526  1.4738 -1.8633 -0.3627
 4348TIP3   OH237238   1.020   0.433  18.993 -0.1250  0.5320 -0.1793
 4348TIP3    H137239   1.017   0.340  19.016 -0.2543  0.2506 -1.2923
 4348TIP3    H237240   1.094   0.468  19.044  0.1860 -0.2682 -0.0638
 4349TIP3   OH237241   3.508   6.032  15.770  0.5383  0.5507 -0.2867
 4349TIP3    H137242   3.522   6.012  15.677  1.8239 -0.1042  0.0280
 4349TIP3    H237243   3.503   5.946  15.813  0.1955  0.8510  0.2880
 4350TIP3   OH237244   2.737   5.455  19.194  0.6877 -0.2574  0.4504
 4350TIP3    H137245   2.770   5.368  19.173  0.3432  0.0231 -1.4140
 4350TIP3    H237246   2.815   5.509  19.206  0.9206 -0.3793 -0.4442
 4351TIP3   OH237247   4.302   1.318  18.267  0.0318 -0.1152  0.2410
 4351TIP3    H137248   4.370   1.258  18.238 -1.1644 -1.0644 -0.7042
 4351TIP3    H237249   4.278   1.368  18.189 -0.0526  0.5339  0.6675
 4352TIP3   OH237250   3.551   1.771  18.003  0.7005  0.2922 -0.1295
 4352TIP3    H137251   3.586   1.834  18.066  0.4246 -1.8471  2.3334
 4352TIP3    H237252   3.464   1.806  17.980  0.2900  0.5424  1.6539
 4353TIP3   OH237253   2.710   1.070  15.684 -0.7092 -0.5174 -0.3947
 4353TIP3    H137254   2.643   1.137  15.672  0.0949  0.2771 -0.5245
 4353TIP3    H237255   2.665   0.988  15.662 -1.8041 -0.0785  0.1134
 4354TIP3   OH237256   5.500   6.351  18.970 -0.1521 -0.1117  0.0384
 4354TIP3    H137257   5.575   6.371  18.915  0.2008  1.6638  1.1069
 4354TIP3    H237258   5.513   6.259  18.996  2.1144  0.3929  0.8997
 4355TIP3   OH237259   6.610   1.313  17.743  0.0601  0.4794  0.0603
 4355TIP3    H137260   6.586   1.404  17.723 -1.2390 -0.5454 -4.1679
 4355TIP3    H237261   6.664   1.286  17.669 -2.0309 -2.9896 -0.4141
 4356TIP3   OH237262   5.436   5.485  18.308  0.3642  0.2090  0.6260
 4356TIP3    H137263   5.402   5.430  18.378  0.0825 -0.1943  0.1803
 4356TIP3    H237264   5.369   5.482  18.240  0.4135  0.9945  0.5421
 4357TIP3   OH237265   2.439   0.996  18.008 -0.0261  0.3153 -0.1592
 4357TIP3    H137266   2.380   1.052  17.957 -1.6708 -2.4968 -1.5546
 4357TIP3    H237267   2.387   0.966  18.082  0.2277 -0.7450 -0.3900
 4358TIP3   OH237268   6.451   1.336  19.032  0.2307  0.0644  0.2135
 4358TIP3    H137269   6.361   1.363  19.050  0.2485 -0.6130  1.4643
 4358TIP3    H237270   6.446   1.241  19.022  0.2408  0.3460 -3.6482
 4359TIP3   OH237271   5.204   3.225  17.332 -0.3800  0.1818  0.0104
 4359TIP3    H137272   5.239   3.138  17.350  2.6670  0.9001 -1.8099
 4359TIP3    H237273   5.120   3.209  17.289 -0.7532 -1.7534  1.3531
 4360TIP3   OH237274   6.626   1.541  17.363  0.6122  0.0709  0.4240
 4360TIP3    H137275   6.691   1.512  17.427  1.2168  1.5884  0.5384
 4360TIP3    H237276   6.551   1.569  17.417 -0.6115 -2.5961  0.2622
 4361TIP3   OH237277   1.253   2.683  17.598 -1.2090  0.2393 -0.2603
 4361TIP3    H137278   1.292   2.663  17.683  1.7516 -1.1995 -1.8127
 4361TIP3    H237279   1.196   2.609  17.580 -1.1414  0.1016  0.0844
 4362TIP3   OH237280   6.439   4.812  18.653 -0.1418  0.0526  0.5485
 4362TIP3    H137281   6.439   4.732  18.706 -0.2116 -0.8025 -0.6927
 4362TIP3    H237282   6.425   4.883  18.716  2.0010 -0.6943  1.9782
 4363TIP3   OH237283   2.283   1.077  18.809  0.0169  0.1925  0.2242
 4363TIP3    H137284   2.268   1.000  18.863 -0.5161 -0.3192 -0.6217
 4363TIP3    H237285   2.300   1.147  18.871 -2.4927  0.0714  1.1932
 4364TIP3   OH237286   0.831   1.814  18.192  0.2137 -0.0543 -0.1535
 4364TIP3    H137287   0.806   1.726  18.220  0.2445  0.3092  1.0834
 4364TIP3    H237288   0.851   1.805  18.099 -0.3183 -1.2347 -0.1688
 4365TIP3   OH237289   3.049   2.906  16.635  0.2391 -0.0891 -0.1211
 4365TIP3    H137290   3.040   2.835  16.572 -0.0568 -1.6223  1.5615
 4365TIP3    H237291   3.006   2.981  16.594  0.7619 -0.7856 -2.0444
 4366TIP3   OH237292   4.871   1.985  18.304 -0.3317  0.3466  1.0472
 4366TIP3    H137293   4.853   1.983  18.210  0.3817 -1.0834  0.9086
 4366TIP3    H237294   4.958   2.023  18.311  1.7431 -3.7322  0.6330
 4367TIP3   OH237295   6.577   0.121  17.848 -0.5970 -0.0409 -0.2943
 4367TIP3    H137296   6.618   0.043  17.885  0.6180 -0.0383 -1.5583
 4367TIP3    H237297   6.483   0.101  17.849 -0.4068 -0.9824  0.5812
 4368TIP3   OH237298   4.957   3.393  18.292  0.5179  0.2814  0.2579
 4368TIP3    H137299   4.943   3.472  18.239 -1.0659 -0.2839 -0.2329
 4368TIP3    H237300   4.869   3.366  18.318  1.0628 -1.0902  0.7630
 4369TIP3   OH237301   5.597   5.002  18.887 -0.0970 -0.0292  0.1110
 4369TIP3    H137302   5.517   4.974  18.930  0.0191  0.9725  1.0222
 4369TIP3    H237303   5.610   4.939  18.816 -1.7094 -0.1692 -0.0904
 4370TIP3   OH237304   0.664   4.716  16.705 -0.0116 -0.0546 -0.3556
 4370TIP3    H137305   0.754   4.684  16.708  0.1265  0.3840  1.3746
 4370TIP3    H237306   0.612   4.639  16.682  0.5268 -1.1200  1.6742
 4371TIP3   OH237307   3.972   4.249  18.493 -0.0333 -0.1193  0.0615
 4371TIP3    H137308   4.009   4.273  18.409 -0.9759  1.7525  0.1405
 4371TIP3    H237309   3.973   4.330  18.545 -0.9446 -0.8441  1.2844
 4372TIP3   OH237310   0.521   1.422  17.633  0.4160  0.0001 -0.1258
 4372TIP3    H137311   0.503   1.514  17.652  3.3056  0.4119  1.1850
 4372TIP3    H237312   0.446   1.374  17.669 -0.7244  1.7541 -0.0579
 4373TIP3   OH237313   3.688   5.153  17.723  0.2458  0.3216  0.1535
 4373TIP3    H137314   3.721   5.085  17.663 -1.6709  1.1438 -1.9720
 4373TIP3    H237315   3.688   5.233  17.670 -0.5359  1.3323  1.6206
 4374TIP3   OH237316   6.613   0.403  18.611  0.2237  0.7009  0.1325
 4374TIP3    H137317   6.542   0.394  18.546 -0.6287  0.9484  1.0105
 4374TIP3    H237318   6.654   0.317  18.613 -0.1405  0.5123 -0.2811
 4375TIP3   OH237319   3.725   5.276  16.732  0.1728  0.1841  0.7300
 4375TIP3    H137320   3.670   5.235  16.666  1.1769  0.4840 -0.3148
 4375TIP3    H237321   3.702   5.231  16.814 -1.4605  0.1696  0.2981
 4376TIP3   OH237322   0.164   4.211  17.284 -0.7767 -0.6652  0.0730
 4376TIP3    H137323   0.135   4.126  17.252  1.2781 -0.5280 -2.5618
 4376TIP3    H237324   0.250   4.193  17.324 -1.1315 -0.0606  1.1467
 4377TIP3   OH237325   2.780   3.057  18.508  0.2406  0.4097 -0.1106
 4377TIP3    H137326   2.697   3.104  18.517 -0.9986 -1.1360 -2.4750
 4377TIP3    H237327   2.759   2.966  18.531  0.8382 -0.2913 -2.0948
 4378TIP3   OH237328   0.976   4.403  17.117 -0.4286  0.1896 -0.0436
 4378TIP3    H137329   1.013   4.424  17.203 -1.6873 -0.1713  0.5952
 4378TIP3    H237330   0.952   4.310  17.122 -0.3863  0.1220 -0.8403
 4379TIP3   OH237331   4.003   2.247  19.518  0.1212  0.9670  0.0190
 4379TIP3    H137332   3.916   2.254  19.478 -0.0986 -2.4860 -0.4338
 4379TIP3    H237333   3.988   2.265  19.611 -0.6873  2.2035 -0.3258
 4380TIP3   OH237334   3.567   2.538  17.452  0.0528  0.0425 -0.0980
 4380TIP3    H137335   3.578   2.633  17.456 -3.6481  0.6619 -0.3618
 4380TIP3    H237336   3.647   2.505  17.412  1.3228  3.0837 -0.2918
 4381TIP3   OH237337   3.917   2.555  18.068 -0.1248  0.4011  0.5427
 4381TIP3    H137338   4.011   2.563  18.083 -0.1489 -0.0818  0.9888
 4381TIP3    H237339   3.878   2.612  18.134 -0.1778 -0.4325  1.2563
 4382TIP3   OH237340   0.019   1.666  18.374  0.1545  0.6311 -0.1034
 4382TIP3    H137341  -0.065   1.706  18.397 -0.3524  1.6833 -3.3620
 4382TIP3    H237342   0.077   1.741  18.358 -0.1495  0.2122 -4.0134
 4383TIP3   OH237343   4.054   4.013  17.148 -0.2003 -0.2049  0.5553
 4383TIP3    H137344   3.964   3.986  17.166 -0.4832  0.4698  0.1906
 4383TIP3    H237345   4.061   4.011  17.053 -0.6230  2.1191  0.3989
 4384TIP3   OH237346   6.500   0.668  15.852 -0.2784 -0.5441 -0.0464
 4384TIP3    H137347   6.595   0.673  15.858 -0.3835 -0.3948  2.5670
 4384TIP3    H237348   6.482   0.577  15.828  0.5179 -0.9528  0.8308
 4385TIP3   OH237349   5.376   1.351  17.419 -0.1941 -0.5722 -0.3340
 4385TIP3    H137350   5.364   1.307  17.335  0.9240 -1.7557  0.0880
 4385TIP3    H237351   5.287   1.358  17.455 -0.6130 -0.6277 -1.3052
 4386TIP3   OH237352   1.999   3.562  17.755  0.1072  0.3864 -0.0644
 4386TIP3    H137353   1.915   3.603  17.777 -0.2718  0.7383 -2.0429
 4386TIP3    H237354   1.992   3.539  17.663  1.2925 -1.8309  0.3128
 4387TIP3   OH237355   6.304   4.540  18.828 -0.4365  0.2566  0.0682
 4387TIP3    H137356   6.231   4.478  18.835 -0.0030 -0.1733  0.9456
 4387TIP3    H237357   6.284   4.607  18.893 -1.0163  1.1908 -1.0295
 4388TIP3   OH237358   6.320   3.048  17.207 -0.4225 -0.1426  0.4354
 4388TIP3    H137359   6.381   3.067  17.278 -0.9526  4.2468 -0.0379
 4388TIP3    H237360   6.373   3.054  17.128 -0.9404  1.1757  0.1686
 4389TIP3   OH237361   3.985   0.546  17.272 -0.6030  0.4496 -0.0990
 4389TIP3    H137362   4.006   0.514  17.360 -1.2338 -1.1215 -0.5042
 4389TIP3    H237363   3.977   0.641  17.284 -0.1716  0.3302  1.4352
 4390TIP3   OH237364   6.644   6.503  18.748  0.2273 -0.1525  0.5561
 4390TIP3    H137365   6.580   6.564  18.711  0.1509 -1.1352 -1.0132
 4390TIP3    H237366   6.729   6.535  18.717  0.1469 -1.0975 -0.7399
 4391TIP3   OH237367   5.521   1.526  17.934  0.3684  0.0807 -0.3012
 4391TIP3    H137368   5.511   1.435  17.906 -0.7150  0.9109 -2.9366
 4391TIP3    H237369   5.469   1.532  18.015 -0.6569 -1.3389 -0.8120
 4392TIP3   OH237370   3.155   4.221  17.883  0.1004 -0.2219  0.2023
 4392TIP3    H137371   3.062   4.202  17.870  0.2079 -0.3183 -0.4441
 4392TIP3    H237372   3.164   4.312  17.854  0.1938 -0.1920  0.3290
 4393TIP3   OH237373   3.484   2.175  16.942  0.4249  0.2739 -0.3415
 4393TIP3    H137374   3.454   2.122  17.016  0.1812 -1.0970 -1.3959
 4393TIP3    H237375   3.416   2.241  16.930 -0.6694 -0.8951 -0.7488
 4394TIP3   OH237376   2.333   6.156  17.488  0.1258 -0.2619  0.3284
 4394TIP3    H137377   2.258   6.115  17.444 -1.1573  1.1062  1.1478
 4394TIP3    H237378   2.364   6.221  17.426 -1.1842  1.1180  1.0663
 4395TIP3   OH237379   3.951   2.460  16.701  0.4011  0.2545 -0.1748
 4395TIP3    H137380   3.979   2.419  16.782  0.9388 -1.1434 -1.0245
 4395TIP3    H237381   4.032   2.468  16.649 -0.4284 -2.9518 -2.2895
 4396TIP3   OH237382   2.956   5.172  18.764 -1.0684  0.4103 -0.0484
 4396TIP3    H137383   2.880   5.230  18.775 -0.0550  1.5808  1.1280
 4396TIP3    H237384   3.018   5.201  18.831  0.7316 -0.0271 -1.4668
 4397TIP3   OH237385   5.773   3.124  19.529 -0.3923 -0.3578  0.1859
 4397TIP3    H137386   5.780   3.029  19.524  1.4633 -0.2007 -1.8669
 4397TIP3    H237387   5.689   3.140  19.571  0.7363 -2.8821  3.9585
 4398TIP3   OH237388   4.554   3.674  19.495  0.0224 -0.2769  0.1037
 4398TIP3    H137389   4.462   3.685  19.472  0.2826  0.2858 -0.7025
 4398TIP3    H237390   4.575   3.584  19.472 -0.5290 -0.6655  1.0530
 4399TIP3   OH237391   3.580   5.332  18.527  0.2209  0.2570  0.3244
 4399TIP3    H137392   3.639   5.350  18.601  0.2757  0.8020  0.1529
 4399TIP3    H237393   3.504   5.291  18.567  0.1102  0.8490  0.7309
 4400TIP3   OH237394   4.600   3.118  17.936  0.0503 -0.1799  0.6829
 4400TIP3    H137395   4.673   3.122  17.998 -0.5623 -0.9719  1.4724
 4400TIP3    H237396   4.522   3.129  17.989 -0.4020  2.5958 -0.3713
 4401TIP3   OH237397   1.423   1.168  19.439  0.5540  0.2418  0.0701
 4401TIP3    H137398   1.345   1.214  19.468  0.3861  0.8992 -1.3617
 4401TIP3    H237399   1.391   1.083  19.409  0.5858 -0.0064  0.7089
 4402TIP3   OH237400   5.774   2.697  16.529 -0.0543  0.5543 -0.4330
 4402TIP3    H137401   5.843   2.726  16.470  1.0446 -1.7359 -0.3670
 4402TIP3    H237402   5.724   2.634  16.478  0.9691 -1.5274  1.0066
 4403TIP3   OH237403   6.609   0.760  18.564 -0.8981  0.2188 -0.0187
 4403TIP3    H137404   6.567   0.840  18.532 -1.9158  0.0264  0.7828
 4403TIP3    H237405   6.556   0.735  18.640 -2.2869 -2.6984 -1.7844
 4404TIP3   OH237406   5.658   2.296  19.204  0.1000 -0.0190  0.0074
 4404TIP3    H137407   5.623   2.223  19.256 -1.0846  0.9679  0.6504
 4404TIP3    H237408   5.749   2.305  19.233 -0.1836 -0.2870  1.0078
 4405TIP3   OH237409   5.706   5.359  17.774 -0.0273  0.0219  0.7176
 4405TIP3    H137410   5.736   5.425  17.711 -1.6088 -0.9219 -1.1264
 4405TIP3    H237411   5.786   5.317  17.805  0.8138  0.3349 -0.9214
 4406TIP3   OH237412   6.450   4.772  16.170 -0.4058 -0.3363  0.7259
 4406TIP3    H137413   6.492   4.700  16.216 -0.2029 -0.0028  1.0686
 4406TIP3    H237414   6.394   4.729  16.105  0.5198 -0.7749  0.2093
 4407TIP3   OH237415   3.184   0.374  18.124  0.4177 -0.2557  0.5351
 4407TIP3    H137416   3.267   0.330  18.106  0.3701  0.1101 -0.6946
 4407TIP3    H237417   3.145   0.324  18.196  0.1586 -2.5230 -1.0548
 4408TIP3   OH237418   3.944   5.333  17.384 -0.4989 -0.3752  0.4561
 4408TIP3    H137419   3.988   5.349  17.468 -0.5842  1.0157  0.2478
 4408TIP3    H237420   3.989   5.388  17.321 -2.2974  0.8649  0.1706
 4409TIP3   OH237421   0.473   3.456  16.814  0.0445  0.2152  0.2082
 4409TIP3    H137422   0.522   3.458  16.731  0.7168  0.9510  0.6030
 4409TIP3    H237423   0.540   3.472  16.881 -0.7277  1.2213  0.7629
 4410TIP3   OH237424   3.680   2.276  18.271  0.3186  0.0842 -0.3344
 4410TIP3    H137425   3.769   2.259  18.303 -0.1624  0.7213  1.4386
 4410TIP3    H237426   3.687   2.360  18.227  0.1604  1.3969  1.9755
 4411TIP3   OH237427   3.218   4.035  18.344 -0.1160 -0.5976  0.2668
 4411TIP3    H137428   3.253   4.042  18.256  0.4758 -0.0588  0.5324
 4411TIP3    H237429   3.287   4.072  18.400 -0.6227 -0.6186  0.9169
 4412TIP3   OH237430   3.683   5.213  18.802 -0.0581  0.7869  0.1344
 4412TIP3    H137431   3.664   5.204  18.895  1.9149  0.4607  0.5507
 4412TIP3    H237432   3.777   5.235  18.799  0.4159 -1.2103 -1.8277
 4413TIP3   OH237433   1.449   0.728  19.087 -0.2671  0.1758  0.1453
 4413TIP3    H137434   1.532   0.744  19.131 -0.8950  1.6346  0.8735
 4413TIP3    H237435   1.471   0.721  18.994  0.6653  0.5682  0.3261
 4414TIP3   OH237436   6.103   4.447  17.281 -0.5530 -0.4042  0.3533
 4414TIP3    H137437   6.157   4.411  17.352 -0.2566  0.5853  0.6463
 4414TIP3    H237438   6.156   4.433  17.202  0.4756  1.1650  0.7236
 4415TIP3   OH237439   0.608   5.522  17.337  0.2349  0.2996  0.1751
 4415TIP3    H137440   0.698   5.498  17.315  0.8274  1.7581  0.8813
 4415TIP3    H237441   0.612   5.614  17.360 -1.5651  0.5546 -0.3434
 4416TIP3   OH237442   4.368   0.523  15.953 -0.4816  0.3127  0.6067
 4416TIP3    H137443   4.281   0.548  15.983  0.1784  1.0697  2.0252
 4416TIP3    H237444   4.353   0.465  15.879 -2.2851 -2.0119  2.6155
 4417TIP3   OH237445   0.127   5.903  17.419 -0.2860  0.2832 -0.3679
 4417TIP3    H137446   0.154   5.922  17.508  0.0413 -0.3543 -0.3300
 4417TIP3    H237447   0.207   5.876  17.374 -0.4569  0.5448 -0.8431
 4418TIP3   OH237448   5.560   0.144  17.246  0.3496 -0.2200 -0.3519
 4418TIP3    H137449   5.644   0.134  17.290  1.0097 -0.4706 -1.6267
 4418TIP3    H237450   5.559   0.075  17.180 -0.7527 -0.0611 -0.5294
 4419TIP3   OH237451   2.227   1.253  18.294 -0.2720 -0.3736 -0.6051
 4419TIP3    H137452   2.284   1.326  18.268  0.4862 -0.6063  0.3256
 4419TIP3    H237453   2.170   1.291  18.361  1.0634 -0.9314  0.9170
 4420TIP3   OH237454   6.119   2.952  16.112 -0.1782 -0.1070 -0.2048
 4420TIP3    H137455   6.026   2.970  16.121 -0.0402 -0.1764  1.8005
 4420TIP3    H237456   6.125   2.891  16.038 -1.6979 -0.0174 -0.4292
 4421TIP3   OH237457   1.407   6.413  18.331  0.0252  0.1327 -0.3762
 4421TIP3    H137458   1.315   6.408  18.305  0.1126  0.1225 -0.6809
 4421TIP3    H237459   1.409   6.372  18.418 -0.2753  0.2330 -0.3199
 4422TIP3   OH237460   0.595   3.783  16.547 -0.0643  0.5757 -0.4124
 4422TIP3    H137461   0.636   3.713  16.597 -2.5667 -0.0340  0.9794
 4422TIP3    H237462   0.641   3.784  16.463  0.7342 -2.0149 -0.0774
 4423TIP3   OH237463   3.289   1.022  18.732 -0.1676  0.2303 -0.3574
 4423TIP3    H137464   3.303   0.946  18.788  3.0631  2.4487  2.2911
 4423TIP3    H237465   3.197   1.045  18.746  0.4882  0.9829  4.9799
 4424TIP3   OH237466   0.251   0.525  17.071  0.4632  0.0360 -0.3933
 4424TIP3    H137467   0.277   0.552  17.159 -0.3956 -0.1491 -0.0746
 4424TIP3    H237468   0.266   0.430  17.069 -0.2982 -0.0973 -0.1563
 4425TIP3   OH237469   5.766   1.912  16.906 -0.0111 -0.3334  0.4782
 4425TIP3    H137470   5.700   1.948  16.966  0.9950 -0.8686  1.9841
 4425TIP3    H237471   5.848   1.952  16.936  0.7206 -1.7343  0.3939
 4426TIP3   OH237472   3.606   3.467  18.482  0.6036 -0.1378  0.3152
 4426TIP3    H137473   3.517   3.432  18.479  0.7730 -0.6046  0.4755
 4426TIP3    H237474   3.658   3.405  18.429  0.5666  0.9924 -1.0929
 4427TIP3   OH237475   6.055   3.164  17.107  0.0381  0.1690 -0.6357
 4427TIP3    H137476   6.141   3.124  17.101  0.3308  0.5853  0.5929
 4427TIP3    H237477   5.994   3.091  17.118  0.3192 -0.0629 -0.6282
 4428TIP3   OH237478   5.239   2.188  16.661  0.1835  0.3389  0.5284
 4428TIP3    H137479   5.238   2.092  16.666  1.3665  0.3124  0.5909
 4428TIP3    H237480   5.226   2.207  16.568 -0.7569  0.1500  0.6123
 4429TIP3   OH237481   4.769   5.893  18.285 -0.1968  0.8577  0.0138
 4429TIP3    H137482   4.850   5.922  18.326 -0.6615  2.2460 -0.0107
 4429TIP3    H237483   4.700   5.917  18.347 -0.6236 -0.0771 -0.0790
 4430TIP3   OH237484   3.499   5.244  17.201 -0.1002  0.1664 -0.7575
 4430TIP3    H137485   3.410   5.220  17.224 -0.0673 -0.5574 -1.3233
 4430TIP3    H237486   3.553   5.210  17.273 -0.3077  0.9505 -0.2214
 4431TIP3   OH237487   1.984   3.282  17.910 -0.5112 -0.0094  1.1464
 4431TIP3    H137488   1.903   3.319  17.878  0.9079  1.9890 -0.3969
 4431TIP3    H237489   1.957   3.219  17.976 -3.2437  1.2621  1.3819
 4432TIP3   OH237490   1.334   5.114  18.333  0.4780 -0.0997 -0.3895
 4432TIP3    H137491   1.408   5.150  18.285 -0.7865  2.4086 -0.6404
 4432TIP3    H237492   1.266   5.181  18.327 -2.0839 -2.4849 -0.7234
 4433TIP3   OH237493   4.263   3.526  17.383 -0.2486  0.2898 -0.6968
 4433TIP3    H137494   4.224   3.448  17.423 -2.1355  0.8519 -1.3333
 4433TIP3    H237495   4.326   3.491  17.319  1.7149 -0.6241  1.5635
 4434TIP3   OH237496   5.999   5.143  18.021  0.4528  0.0032 -0.0984
 4434TIP3    H137497   6.032   5.055  18.000  3.0450  0.9188 -0.2908
 4434TIP3    H237498   6.044   5.166  18.103 -1.8647  0.3670  1.1560
 4435TIP3   OH237499   0.679   4.898  17.457  0.6409  0.0430 -0.3794
 4435TIP3    H137500   0.751   4.960  17.466  0.3404  0.2890  0.4159
 4435TIP3    H237501   0.720   4.817  17.426  0.8627  1.0150 -2.9250
 4436TIP3   OH237502   3.029   3.947  18.105 -0.1863 -0.3316 -0.2551
 4436TIP3    H137503   3.095   3.992  18.159  0.0130 -0.0307 -0.7337
 4436TIP3    H237504   2.946   3.986  18.132 -0.0287  0.2502 -0.5728
 4437TIP3   OH237505   2.324   5.270  17.670 -0.4844  0.0148 -0.3398
 4437TIP3    H137506   2.231   5.291  17.669 -0.1085  1.8646 -1.1464
 4437TIP3    H237507   2.361   5.321  17.598  0.8851 -2.1398 -1.2589
 4438TIP3   OH237508   5.591   0.333  19.211 -0.2220 -0.2878  0.4738
 4438TIP3    H137509   5.507   0.357  19.173 -0.1381  0.3101  0.6589
 4438TIP3    H237510   5.571   0.258  19.267 -0.9927  0.9739  1.9773
 4439TIP3   OH237511   6.091   0.814  17.195  0.2194  0.3618 -0.8528
 4439TIP3    H137512   6.103   0.774  17.109 -0.4696  0.2788 -0.9167
 4439TIP3    H237513   6.004   0.852  17.192 -0.1624 -0.3848  0.1067
 4440TIP3   OH237514   4.535   4.765  18.638  0.2469 -0.3964  0.3902
 4440TIP3    H137515   4.466   4.769  18.704  1.4564 -0.1864  1.7095
 4440TIP3    H237516   4.546   4.672  18.620 -0.8351 -0.3899 -0.3517
 4441TIP3   OH237517   0.840   6.211  17.149  0.6201 -0.0326  0.1399
 4441TIP3    H137518   0.798   6.209  17.063  0.5186  0.8907  0.1603
 4441TIP3    H237519   0.774   6.177  17.209  0.3481  0.2371 -0.0064
 4442TIP3   OH237520   6.324   5.000  16.208  0.1983 -0.4298  0.1680
 4442TIP3    H137521   6.400   4.953  16.174 -0.6108 -0.5611 -1.5460
 4442TIP3    H237522   6.357   5.047  16.284  1.5184 -2.0897  0.6882
 4443TIP3   OH237523   0.379   4.802  18.969  0.3183  0.4208  0.5956
 4443TIP3    H137524   0.430   4.876  18.934  0.9101  0.2501  1.0754
 4443TIP3    H237525   0.434   4.725  18.950 -1.0850 -0.1446 -1.5178
 4444TIP3   OH237526   6.088   6.561  16.615  0.7645  0.3573 -0.2397
 4444TIP3    H137527   6.005   6.604  16.636 -0.4835 -0.5753 -2.8344
 4444TIP3    H237528   6.092   6.486  16.673 -1.2091 -0.6467 -1.2932
 4445TIP3   OH237529   6.672   2.033  19.298  0.0585 -0.1421  0.2112
 4445TIP3    H137530   6.720   1.951  19.293  0.0240 -0.2647  1.6211
 4445TIP3    H237531   6.690   2.067  19.385  2.0805  2.5981 -1.1025
 4446TIP3   OH237532   4.926   3.450  18.934  0.2427 -0.5993  0.3007
 4446TIP3    H137533   4.999   3.446  18.872  0.0220  1.0076 -0.0941
 4446TIP3    H237534   4.957   3.506  19.005 -0.4257 -0.3042  0.3718
 4447TIP3   OH237535   4.373   4.993  18.586  0.2236  0.3125 -0.2706
 4447TIP3    H137536   4.359   5.038  18.669 -1.3295 -1.6988  0.6591
 4447TIP3    H237537   4.436   4.924  18.607 -1.0012 -0.9081 -0.4079
 4448TIP3   OH237538   5.431   6.724  15.590  0.2127  0.2440 -0.0439
 4448TIP3    H137539   5.340   6.708  15.614  0.6424 -0.7705  1.0206
 4448TIP3    H237540   5.475   6.741  15.674  1.2023 -0.3943 -0.4148
 4449TIP3   OH237541   1.558   1.327  17.022 -0.4088  0.4110  0.2388
 4449TIP3    H137542   1.590   1.332  17.112  1.5262 -0.1265 -0.3705
 4449TIP3    H237543   1.558   1.234  17.001 -2.2833  0.3996  0.1341
 4450TIP3   OH237544   3.857   6.478  18.569 -0.3233 -0.6063 -0.1578
 4450TIP3    H137545   3.780   6.440  18.611  0.1988 -0.3606  1.0408
 4450TIP3    H237546   3.930   6.457  18.627  0.1011  1.6151  0.1957
 4451TIP3   OH237547   0.209   1.859  18.316 -0.3925 -0.3452  0.1328
 4451TIP3    H137548   0.249   1.841  18.231 -0.3542  0.4620 -0.0325
 4451TIP3    H237549   0.202   1.955  18.319 -1.3654 -0.4235  0.5959
 4452TIP3   OH237550   3.421   1.694  18.789  0.9919 -0.2789  0.3022
 4452TIP3    H137551   3.363   1.635  18.741  3.6726 -1.6009 -1.5613
 4452TIP3    H237552   3.380   1.780  18.781 -0.5965 -1.1169 -1.0948
 4453TIP3   OH237553   3.398   3.390  17.957  0.7265  0.3734  0.2671
 4453TIP3    H137554   3.472   3.432  18.001  1.1748  0.8190 -0.8824
 4453TIP3    H237555   3.341   3.361  18.028  1.6179  0.7334  1.1459
 4454TIP3   OH237556   4.424   1.060  16.444  0.1648 -0.0742 -0.2518
 4454TIP3    H137557   4.427   0.970  16.475 -1.0694 -0.5980 -1.5395
 4454TIP3    H237558   4.331   1.076  16.426  0.5513  0.9264 -1.5020
 4455TIP3   OH237559   6.053   0.505  19.229 -0.3428 -0.5346 -0.2732
 4455TIP3    H137560   5.971   0.487  19.183  0.5073 -0.6342 -1.8208
 4455TIP3    H237561   6.063   0.433  19.291 -1.6787 -0.2342  0.3105
 4456TIP3   OH237562   5.361   5.061  18.541 -0.4227 -0.0846 -0.4091
 4456TIP3    H137563   5.297   5.132  18.539  0.5453  0.8551  0.6228
 4456TIP3    H237564   5.353   5.019  18.455 -1.0124  1.2638 -1.0359
 4457TIP3   OH237565   3.583   4.758  16.366  0.1157  0.5335  0.0826
 4457TIP3    H137566   3.652   4.821  16.384 -0.0079  1.1288 -1.3733
 4457TIP3    H237567   3.502   4.802  16.392  0.2335 -0.0289  1.4583
 4458TIP3   OH237568   3.769   1.163  18.765  0.3958 -0.1813  1.0522
 4458TIP3    H137569   3.824   1.160  18.843  1.0857  0.8986  0.6344
 4458TIP3    H237570   3.831   1.161  18.691 -0.0403  1.6192  0.5799
 4459TIP3   OH237571   0.603   0.001  18.653  0.1731 -0.0575  0.2722
 4459TIP3    H137572   0.694  -0.017  18.677  0.8068  0.5868 -1.5000
 4459TIP3    H237573   0.604   0.010  18.558 -1.6862  0.3837  0.2499
 4460TIP3   OH237574   4.390   2.789  19.445  0.6621 -0.6019 -0.0064
 4460TIP3    H137575   4.324   2.843  19.403  0.5996 -1.2090 -0.7197
 4460TIP3    H237576   4.439   2.849  19.500  1.1897  0.3795 -1.4762
 4461TIP3   OH237577   3.230   5.139  18.318 -0.1165  0.3808  0.1319
 4461TIP3    H137578   3.264   5.192  18.391 -0.2833  1.4907 -0.5740
 4461TIP3    H237579   3.308   5.102  18.277 -0.0268 -0.3290  0.9242
 4462TIP3   OH237580   0.489   1.992  18.607 -0.4497 -0.0204  0.3112
 4462TIP3    H137581   0.584   1.978  18.611 -0.3062  0.5892 -0.6282
 4462TIP3    H237582   0.457   1.920  18.552 -0.7000 -0.9121  1.5977
 4463TIP3   OH237583   1.728   2.451  17.848  0.3403 -0.5864 -0.3085
 4463TIP3    H137584   1.756   2.529  17.800 -1.4107  0.3173  0.0698
 4463TIP3    H237585   1.675   2.485  17.920  0.9646 -2.0468  0.8943
 4464TIP3   OH237586   6.417   3.473  17.768  0.4315 -0.3476 -1.0190
 4464TIP3    H137587   6.431   3.501  17.859 -0.6226 -0.7038 -0.7306
 4464TIP3    H237588   6.400   3.555  17.721  0.8224 -0.1757 -0.8669
 4465TIP3   OH237589   4.564   1.967  17.027 -0.0020  0.4963 -0.4582
 4465TIP3    H137590   4.501   1.899  17.001 -0.4403  1.0972 -1.0003
 4465TIP3    H237591   4.537   2.045  16.979  0.3857  1.1143  0.2918
 4466TIP3   OH237592   0.420   4.627  17.275 -0.2912  0.0762  0.3091
 4466TIP3    H137593   0.328   4.609  17.255 -0.8788  3.2572 -0.3353
 4466TIP3    H237594   0.461   4.637  17.189  0.4747 -0.3138  0.6164
 4467TIP3   OH237595   2.430   3.423  18.860  0.1015  0.2154 -0.6304
 4467TIP3    H137596   2.371   3.497  18.878  1.6370  1.2656  0.3222
 4467TIP3    H237597   2.409   3.398  18.770 -2.3711 -0.0395 -0.0512
 4468TIP3   OH237598   3.430   0.059  17.224  0.0521 -0.3721  0.1666
 4468TIP3    H137599   3.516   0.100  17.219 -0.3177  0.3501 -0.5122
 4468TIP3    H237600   3.402   0.050  17.133 -0.9459  0.1955  0.4009
 4469TIP3   OH237601   1.138   4.933  18.451 -0.2627 -0.3320  0.0602
 4469TIP3    H137602   1.209   4.991  18.423 -0.6662 -0.2222 -0.7591
 4469TIP3    H237603   1.156   4.850  18.406 -1.5697  0.1986 -1.5460
 4470TIP3   OH237604   6.190   6.328  17.937 -0.0810  0.0855 -0.0767
 4470TIP3    H137605   6.158   6.395  17.877 -0.1306 -1.6841 -2.1426
 4470TIP3    H237606   6.188   6.370  18.023  0.3844  2.8847 -1.3182
 4471TIP3   OH237607   0.630   2.501  19.188  0.3855  0.0140 -0.2485
 4471TIP3    H137608   0.612   2.435  19.255  0.8521 -1.2851 -1.3630
 4471TIP3    H237609   0.572   2.479  19.116  1.6519 -0.1556 -1.2465
 4472TIP3   OH237610   4.151   6.728  15.607  0.6551  0.0669 -0.0273
 4472TIP3    H137611   4.231   6.698  15.564 -0.4396  0.4065 -2.4495
 4472TIP3    H237612   4.164   6.822  15.620  1.0076 -0.0461  0.4584
 4473TIP3   OH237613   1.040   1.228  19.270  0.4788 -0.5925  0.0317
 4473TIP3    H137614   0.967   1.237  19.332 -0.0316  0.3628 -0.6897
 4473TIP3    H237615   1.118   1.232  19.325  0.0103 -0.7424  0.7210
 4474TIP3   OH237616   3.605   5.527  17.865  0.7625  0.4873 -0.6823
 4474TIP3    H137617   3.510   5.536  17.874  0.8397  2.4424 -1.4028
 4474TIP3    H237618   3.628   5.453  17.921 -1.1485  0.1681 -0.2772
 4475TIP3   OH237619   3.156   2.820  18.918  0.0144 -0.2467 -0.0644
 4475TIP3    H137620   3.087   2.848  18.977  0.4963 -1.5339  1.1577
 4475TIP3    H237621   3.236   2.827  18.969  0.3816 -1.8573 -0.3529
 4476TIP3   OH237622   6.526   5.649  17.853 -0.0690  0.1846  0.3568
 4476TIP3    H137623   6.510   5.687  17.939 -0.5485  0.9778 -0.0685
 4476TIP3    H237624   6.475   5.568  17.852 -0.1088  0.2041  0.7920
 4477TIP3   OH237625   3.728   3.778  18.900 -0.0829  0.0799  0.1699
 4477TIP3    H137626   3.706   3.697  18.854 -0.1420  0.3117 -0.2232
 4477TIP3    H237627   3.711   3.847  18.835 -0.1772  0.4141  0.5474
 4478TIP3   OH237628   0.286   4.217  18.319 -0.4149 -0.4530  0.7895
 4478TIP3    H137629   0.325   4.190  18.236  1.3083  0.6677  1.1894
 4478TIP3    H237630   0.193   4.230  18.299  0.2941  1.9155 -1.5375
 4479TIP3   OH237631   1.742   6.590  18.741 -0.5131  0.2930 -0.3012
 4479TIP3    H137632   1.837   6.597  18.734 -0.3096 -1.4073  0.3777
 4479TIP3    H237633   1.709   6.652  18.676  0.9954  2.4616  0.8881
 4480TIP3   OH237634   0.923   1.984  19.150  0.5560  0.1691 -0.0808
 4480TIP3    H137635   0.871   1.949  19.077  0.2748 -0.2420  0.3126
 4480TIP3    H237636   0.859   2.030  19.204  0.9466  1.4486 -0.6739
 4481TIP3   OH237637   2.991   1.412  19.168  0.0579 -0.4025 -0.4257
 4481TIP3    H137638   3.041   1.486  19.201 -0.6189  0.1489 -0.6060
 4481TIP3    H237639   2.982   1.353  19.243 -1.7072  0.9616  0.5035
 4482TIP3   OH237640   5.274   4.841  18.679 -0.2000  0.2378 -0.5671
 4482TIP3    H137641   5.338   4.823  18.748  0.3868  0.5140 -1.0297
 4482TIP3    H237642   5.307   4.920  18.635  0.2475 -0.7716 -2.1148
 4483TIP3   OH237643   5.950   1.207  16.478 -0.0523 -0.0500  0.1766
 4483TIP3    H137644   5.984   1.123  16.446  0.6974  0.1392  0.4319
 4483TIP3    H237645   5.915   1.250  16.401 -0.4931 -0.6226  0.0507
 4484TIP3   OH237646   4.853   5.258  19.451 -0.3335  0.3174  0.1835
 4484TIP3    H137647   4.810   5.327  19.400 -0.7055 -0.7126 -0.9561
 4484TIP3    H237648   4.788   5.188  19.455  0.4018 -0.3610  0.4581
 4485TIP3   OH237649   0.098   4.413  16.934 -0.1764  0.2230 -0.1432
 4485TIP3    H137650   0.184   4.456  16.932 -0.0950  0.0947  0.4832
 4485TIP3    H237651   0.108   4.335  16.881  1.3193 -2.0269  3.1328
 4486TIP3   OH237652   3.241   6.521  17.943  0.1585 -0.3482 -0.6437
 4486TIP3    H137653   3.162   6.576  17.946  0.2707 -0.2300  0.6855
 4486TIP3    H237654   3.238   6.480  17.856  0.9696  3.0559 -2.4705
 4487TIP3   OH237655   1.080   3.634  17.419 -0.2922 -0.0851  0.3931
 4487TIP3    H137656   1.064   3.572  17.347 -0.4639 -0.5933  0.8660
 4487TIP3    H237657   0.995   3.642  17.463 -0.0657 -0.1606  0.8432
 4488TIP3   OH237658   5.477   4.929  17.008  0.1481 -0.0353 -0.0586
 4488TIP3    H137659   5.447   5.007  16.962 -0.0180 -0.6773 -1.0645
 4488TIP3    H237660   5.472   4.859  16.943 -1.6871 -1.3209  1.3592
 4489TIP3   OH237661   6.351   3.114  19.121 -0.6251  0.0160  0.1624
 4489TIP3    H137662   6.350   3.135  19.214  0.3442  0.5972  0.0565
 4489TIP3    H237663   6.380   3.023  19.117  1.3983  0.6004  0.3672
 4490TIP3   OH237664   3.001   1.738  18.234  0.6710  0.1357 -0.0532
 4490TIP3    H137665   2.930   1.798  18.255  1.2915  0.2010  2.1449
 4490TIP3    H237666   3.025   1.759  18.144 -1.9852  0.1689 -0.8249
 4491TIP3   OH237667   0.066   5.902  16.300  0.0256 -0.2344  0.1205
 4491TIP3    H137668  -0.024   5.870  16.297 -0.7652  1.8987 -2.0401
 4491TIP3    H237669   0.073   5.944  16.386 -1.4769  0.6180 -0.1388
 4492TIP3   OH237670   5.485   3.501  17.533  0.1451 -0.1176 -0.3823
 4492TIP3    H137671   5.503   3.553  17.611  1.4640 -0.2963 -0.5400
 4492TIP3    H237672   5.569   3.498  17.486 -0.0579 -1.8103 -0.7087
 4493TIP3   OH237673   6.687   0.352  17.950  0.0896 -0.2255  0.3233
 4493TIP3    H137674   6.636   0.422  17.909  1.5714  0.5002 -0.3506
 4493TIP3    H237675   6.677   0.277  17.891 -2.5568 -1.0889  1.6903
 4494TIP3   OH237676   4.310   4.756  18.401 -0.8256  0.2116 -0.3418
 4494TIP3    H137677   4.375   4.773  18.333  0.2045 -0.2049  0.5195
 4494TIP3    H237678   4.302   4.839  18.448  0.4912 -0.2231  0.7140
 4495TIP3   OH237679   4.270   5.688  17.263  0.1717 -0.1893 -0.0416
 4495TIP3    H137680   4.246   5.777  17.286 -0.5552 -0.6095  0.8710
 4495TIP3    H237681   4.192   5.651  17.222 -0.1092 -0.9377  1.1393
 4496TIP3   OH237682   3.836   6.141  18.710 -0.1112  0.1947  0.7478
 4496TIP3    H137683   3.784   6.152  18.789 -0.0395  0.5087  0.7541
 4496TIP3    H237684   3.772   6.145  18.639  0.0132  1.6092  0.6951
 4497TIP3   OH237685   5.090   5.159  18.713  0.1210 -0.8084  0.0276
 4497TIP3    H137686   5.074   5.227  18.779  0.6724 -0.6109 -0.0313
 4497TIP3    H237687   5.017   5.166  18.652 -1.1093 -1.8656  1.3168
 4498TIP3   OH237688   1.221   4.137  17.107 -0.7081 -0.0524 -0.4957
 4498TIP3    H137689   1.218   4.116  17.200 -1.2736  1.7908 -0.0588
 4498TIP3    H237690   1.253   4.227  17.103 -0.4793 -0.1721 -2.0977
 4499TIP3   OH237691   5.768   3.927  18.376  0.4163 -0.3166 -0.0947
 4499TIP3    H137692   5.674   3.926  18.357  0.5461 -0.2355 -0.7436
 4499TIP3    H237693   5.809   3.889  18.299  0.9117 -0.4808  0.2472
 4500TIP3   OH237694   4.284   5.341  15.841  0.1442 -0.4567 -0.2760
 4500TIP3    H137695   4.208   5.291  15.811 -0.5055  1.1046 -1.3973
 4500TIP3    H237696   4.312   5.390  15.763  1.1844  0.3518  0.5806
 4501TIP3   OH237697   0.231   0.157  17.866 -0.5245 -0.1531  0.1742
 4501TIP3    H137698   0.265   0.191  17.783 -1.6883 -1.4758 -0.8839
 4501TIP3    H237699   0.193   0.072  17.843 -0.9973 -0.4758  2.0473
 4502TIP3   OH237700   3.575   1.615  16.644 -0.0561 -0.0985  0.0647
 4502TIP3    H137701   3.545   1.570  16.565 -1.8221 -0.7093  1.0314
 4502TIP3    H237702   3.590   1.705  16.616 -0.6028 -0.3145 -0.9742
 4503TIP3   OH237703   0.015   4.045  18.558 -0.6675  0.0498 -0.4235
 4503TIP3    H137704  -0.011   4.089  18.639 -0.6359  1.7923 -1.3278
 4503TIP3    H237705   0.110   4.033  18.567 -0.3822  1.7513 -0.8739
 4504TIP3   OH237706   6.175   4.998  19.314 -0.0120 -0.0957 -0.1318
 4504TIP3    H137707   6.099   4.971  19.263  0.1117 -2.3974  0.7742
 4504TIP3    H237708   6.147   4.988  19.405 -0.1654  3.7313  0.4040
 4505TIP3   OH237709   6.213   0.873  18.497 -0.0414  0.3028  0.1488
 4505TIP3    H137710   6.279   0.922  18.546 -0.2743 -1.6765  2.6585
 4505TIP3    H237711   6.139   0.866  18.557 -0.7628 -1.3653 -0.8609
 4506TIP3   OH237712   0.965   6.642  16.373 -0.3838  0.3180  0.1412
 4506TIP3    H137713   0.970   6.698  16.295 -1.8394  1.2028  0.6297
 4506TIP3    H237714   1.039   6.668  16.427 -0.6798  1.3555  0.0684
 4507TIP3   OH237715   4.687   5.017  18.317  0.0664  0.1766 -0.2011
 4507TIP3    H137716   4.667   5.110  18.300  0.0464 -0.0159 -1.3160
 4507TIP3    H237717   4.772   5.003  18.275 -0.3488 -0.5234 -0.8261
 4508TIP3   OH237718   0.272   0.195  18.853  0.5239  0.5988  0.1735
 4508TIP3    H137719   0.246   0.283  18.879  0.5333  0.1816  1.7253
 4508TIP3    H237720   0.366   0.192  18.869  0.7285  0.6349 -0.9357
 4509TIP3   OH237721   2.600   4.246  17.701 -0.1868 -0.1298 -0.0020
 4509TIP3    H137722   2.516   4.286  17.721 -0.3075 -0.2213 -0.3097
 4509TIP3    H237723   2.610   4.176  17.765  0.6083  1.1851  1.3499
 4510TIP3   OH237724   3.589   3.365  17.198 -0.0745  0.1253 -0.7034
 4510TIP3    H137725   3.526   3.402  17.136 -0.7314 -0.6004 -0.4957
 4510TIP3    H237726   3.671   3.361  17.150 -0.4779 -0.0449 -1.3968
 4511TIP3   OH237727   1.305   2.164  19.326  0.1374  0.3564 -0.3644
 4511TIP3    H137728   1.244   2.238  19.326 -2.8768 -1.9080  1.1619
 4511TIP3    H237729   1.266   2.100  19.267  2.9976  0.0713 -2.1455
 4512TIP3   OH237730   4.772   4.700  16.957 -0.1208 -0.0207  0.4427
 4512TIP3    H137731   4.772   4.718  16.863  0.4254  1.5235  0.7028
 4512TIP3    H237732   4.793   4.607  16.964 -1.5748 -0.4947 -0.9947
 4513TIP3   OH237733   6.506   6.447  16.104  0.1841 -0.5465  0.1225
 4513TIP3    H137734   6.438   6.404  16.154  0.4843 -0.7091  0.3941
 4513TIP3    H237735   6.464   6.526  16.070 -0.1191 -0.6118  0.3406
 4514TIP3   OH237736   4.678   6.278  18.814  0.0900 -0.3774  0.1730
 4514TIP3    H137737   4.631   6.315  18.889 -1.9375 -0.2137 -1.1364
 4514TIP3    H237738   4.678   6.183  18.830  0.2805 -0.2987  0.6889
 4515TIP3   OH237739   4.435   5.874  16.669  0.0554 -0.1022 -0.0015
 4515TIP3    H137740   4.380   5.930  16.615 -0.2752 -1.0057 -0.6304
 4515TIP3    H237741   4.501   5.933  16.705 -0.1591  0.6531 -0.8059
 4516TIP3   OH237742   3.326   5.477  17.906  0.1137  0.1128  0.2872
 4516TIP3    H137743   3.291   5.389  17.900  1.7949 -0.6483  0.9325
 4516TIP3    H237744   3.317   5.500  17.999 -2.4205  1.5843 -0.2428
 4517TIP3   OH237745   0.355   2.924  18.378 -0.2318 -0.0277 -0.2955
 4517TIP3    H137746   0.261   2.919  18.395 -0.1008 -0.2920  0.3793
 4517TIP3    H237747   0.394   2.858  18.436  0.4179  0.4352 -0.1939
 4518TIP3   OH237748   1.386   6.622  18.713 -0.2388 -0.5326 -0.2640
 4518TIP3    H137749   1.412   6.561  18.781  1.5409 -0.2809 -0.6748
 4518TIP3    H237750   1.325   6.682  18.756  1.6535  0.2896  1.4376
 4519TIP3   OH237751   0.702   2.436  18.575  0.0263 -0.5382 -0.0028
 4519TIP3    H137752   0.624   2.491  18.583 -0.3522 -1.2250  1.3369
 4519TIP3    H237753   0.772   2.490  18.612  0.4841  0.5349 -2.2421
 4520TIP3   OH237754   0.786   6.534  17.961 -0.0738  0.2726 -0.5898
 4520TIP3    H137755   0.804   6.565  18.050  0.6758 -0.5147 -0.4483
 4520TIP3    H237756   0.708   6.581  17.934  1.5161  2.9849 -0.7575
 4521TIP3   OH237757   2.196   3.501  17.939 -0.3782  0.1181  0.2524
 4521TIP3    H137758   2.141   3.425  17.959  0.1062 -0.5760 -0.9276
 4521TIP3    H237759   2.164   3.533  17.855 -0.0956  0.7669  0.3837
 4522TIP3   OH237760   3.156   3.433  16.997  0.5554  0.0150  0.4006
 4522TIP3    H137761   3.168   3.496  17.069  1.3144 -0.9804  1.1817
 4522TIP3    H237762   3.197   3.475  16.921 -0.4810  1.1900  0.4705
 4523TIP3   OH237763   3.396   4.682  17.346  0.4738  0.1013  0.3958
 4523TIP3    H137764   3.380   4.745  17.275 -0.7641  1.1593  1.5454
 4523TIP3    H237765   3.491   4.672  17.349  0.5678  0.1179 -1.3047
 4524TIP3   OH237766   6.145   2.667  17.783 -0.4339  0.1319 -0.2713
 4524TIP3    H137767   6.100   2.730  17.839  0.8454  0.0092  0.9537
 4524TIP3    H237768   6.237   2.694  17.784 -0.1821 -0.5742 -1.3759
 4525TIP3   OH237769   3.280   4.255  18.649 -0.4131 -0.3924 -0.6442
 4525TIP3    H137770   3.348   4.199  18.610 -1.0236 -1.3812 -0.3241
 4525TIP3    H237771   3.295   4.248  18.744  0.7745  1.6294 -0.6187
 4526TIP3   OH237772   1.010   2.518  18.933  0.2237  0.1063 -0.4496
 4526TIP3    H137773   1.087   2.519  18.989 -1.1119  1.7100  1.4876
 4526TIP3    H237774   0.961   2.440  18.959 -0.8169  1.2879  1.3625
 4527TIP3   OH237775   0.470   5.611  18.363  0.3403 -0.1123 -0.1770
 4527TIP3    H137776   0.531   5.559  18.417  1.8431 -0.0554 -1.7224
 4527TIP3    H237777   0.386   5.567  18.374  1.4314 -2.6486 -0.9812
 4528TIP3   OH237778   5.720   2.737  17.573  0.2969 -0.0289  0.0014
 4528TIP3    H137779   5.765   2.806  17.623 -0.9715  1.0056 -0.2163
 4528TIP3    H237780   5.664   2.694  17.637 -0.3946  0.4747 -0.2471
 4529TIP3   OH237781   6.131   6.155  18.446 -0.1482  0.0900 -0.3824
 4529TIP3    H137782   6.162   6.068  18.472  0.6402  0.4314 -0.1392
 4529TIP3    H237783   6.180   6.175  18.366 -0.3921  0.2675 -0.4868
 4530TIP3   OH237784   6.228   4.173  16.203  0.7463 -0.3090  0.2715
 4530TIP3    H137785   6.138   4.171  16.170  0.0383 -2.1066  2.0973
 4530TIP3    H237786   6.240   4.262  16.237 -0.6225 -0.2577  0.6548
 4531TIP3   OH237787   2.408   2.906  19.407  0.2552 -0.2363  0.3329
 4531TIP3    H137788   2.482   2.961  19.383 -0.9157  0.6862 -1.3867
 4531TIP3    H237789   2.422   2.825  19.358  0.0625  0.0074 -0.1371
 4532TIP3   OH237790   4.169   0.061  19.111  0.2417 -0.2576 -0.1519
 4532TIP3    H137791   4.189   0.038  19.202  0.1067  1.1393  0.2457
 4532TIP3    H237792   4.211   0.146  19.098 -0.8284  0.1670 -0.9901
 4533TIP3   OH237793   5.550   3.553  17.986 -0.0249 -0.4715  0.2590
 4533TIP3    H137794   5.541   3.581  18.077 -0.1144  0.8768 -0.1485
 4533TIP3    H237795   5.624   3.492  17.987  0.5118  0.1808  1.0909
 4534TIP3   OH237796   6.660   4.315  17.172  0.5150 -0.2273 -0.5842
 4534TIP3    H137797   6.731   4.349  17.228  0.6141  2.1811 -2.0125
 4534TIP3    H237798   6.696   4.320  17.083 -0.9068 -0.4254 -1.1966
 4535TIP3   OH237799   2.793   3.424  17.422 -0.0796  0.1446  0.3401
 4535TIP3    H137800   2.770   3.428  17.514 -1.2538 -0.1339  0.0722
 4535TIP3    H237801   2.805   3.331  17.404 -2.3239 -0.0834 -0.3301
 4536TIP3   OH237802   3.148   0.782  18.521  0.5314  0.3649  0.3181
 4536TIP3    H137803   3.102   0.789  18.437  0.4722  1.7237  0.4416
 4536TIP3    H237804   3.097   0.719  18.571  1.0360 -1.1039 -0.9551
 4537TIP3   OH237805   5.554   5.006  16.704  0.2896  0.2650 -0.4190
 4537TIP3    H137806   5.593   4.924  16.674  0.0740 -0.8373  2.0612
 4537TIP3    H237807   5.613   5.037  16.773 -1.1160  0.6161  0.6896
 4538TIP3   OH237808   4.614   2.864  18.423  0.1774 -0.1201  0.3052
 4538TIP3    H137809   4.560   2.940  18.402 -0.0762 -0.2461  0.4917
 4538TIP3    H237810   4.617   2.862  18.519 -1.6594 -1.6080  0.3876
 4539TIP3   OH237811   1.635   0.474  15.703 -0.3141  0.0584  0.1873
 4539TIP3    H137812   1.553   0.517  15.730  0.5131  0.7285  1.7938
 4539TIP3    H237813   1.657   0.515  15.619 -1.5164 -0.0075 -0.1824
 4540TIP3   OH237814   0.902   2.116  16.101  0.3578 -0.0470  0.4089
 4540TIP3    H137815   0.913   2.023  16.121  1.5332 -0.3193 -1.3620
 4540TIP3    H237816   0.976   2.158  16.144  1.3503 -0.2918 -1.0176
 4541TIP3   OH237817   2.314   2.345  17.108 -0.0336 -0.3143 -0.2653
 4541TIP3    H137818   2.400   2.336  17.067 -0.0758 -0.8521 -0.2392
 4541TIP3    H237819   2.255   2.365  17.035  0.1050  0.0293 -0.2877
 4542TIP3   OH237820   6.360   1.795  17.064  0.4916 -0.5402  0.4328
 4542TIP3    H137821   6.303   1.853  17.115 -0.2166 -2.2895  1.7113
 4542TIP3    H237822   6.369   1.839  16.979 -1.2375  0.6920  0.8408
 4543TIP3   OH237823   0.965   2.966  18.268  0.5502  0.1231  0.0994
 4543TIP3    H137824   0.932   2.894  18.214  0.7271 -1.3645  1.8695
 4543TIP3    H237825   0.911   2.963  18.347  0.4666  2.0637  0.1576
 4544TIP3   OH237826   5.655   4.165  16.204 -0.0333 -0.3763 -0.7490
 4544TIP3    H137827   5.614   4.087  16.241 -1.4937  0.1537 -1.1747
 4544TIP3    H237828   5.699   4.133  16.125 -1.3948 -0.6655 -1.4330
 4545TIP3   OH237829   4.468   1.247  17.350 -0.1996  0.1254 -0.5980
 4545TIP3    H137830   4.467   1.154  17.372  0.6653  0.4859  1.1457
 4545TIP3    H237831   4.483   1.250  17.256  2.5155 -1.5032 -0.3016
 4546TIP3   OH237832   2.781   3.063  18.995 -0.0443  0.0870  0.3373
 4546TIP3    H137833   2.811   2.985  19.043 -0.3455  0.1613  0.6487
 4546TIP3    H237834   2.689   3.045  18.975  0.0993  0.0219 -0.2870
 4547TIP3   OH237835   0.465   0.010  16.545  0.0499 -0.3346  0.2352
 4547TIP3    H137836   0.405  -0.057  16.511 -0.8075  0.8543 -0.6633
 4547TIP3    H237837   0.532   0.019  16.476  1.3729 -1.6899  1.2509
 4548TIP3   OH237838   1.635   6.519  17.041 -0.4337  0.3887 -0.0469
 4548TIP3    H137839   1.724   6.534  17.074 -1.0414  0.3063  1.7246
 4548TIP3    H237840   1.583   6.590  17.079 -1.5884 -0.9668  0.9797
 4549TIP3   OH237841   1.320   2.219  18.764  0.3073 -0.1141  0.2552
 4549TIP3    H137842   1.401   2.236  18.813  1.6247 -1.9009 -1.1831
 4549TIP3    H237843   1.260   2.183  18.830  1.1975 -0.1968  1.0533
 4550TIP3   OH237844   6.221   4.724  15.790 -0.1207 -0.6509  0.4324
 4550TIP3    H137845   6.290   4.687  15.845 -0.9089  2.0709  3.5363
 4550TIP3    H237846   6.257   4.808  15.761 -1.7279  0.3685  1.3118
 4551TIP3   OH237847   5.641   6.124  18.535 -0.2480 -0.1717  0.8138
 4551TIP3    H137848   5.552   6.158  18.544 -0.2776 -0.5085  2.0027
 4551TIP3    H237849   5.633   6.030  18.551  0.2765 -0.2433  0.6766
 4552TIP3   OH237850   1.890   2.229  18.499  0.1168 -0.0196 -0.7398
 4552TIP3    H137851   1.844   2.308  18.468 -1.7905 -0.3402  1.0825
 4552TIP3    H237852   1.892   2.238  18.594  2.2970 -0.9410 -0.6448
 4553TIP3   OH237853   3.627   1.735  16.092 -0.2339 -0.3964  0.2363
 4553TIP3    H137854   3.657   1.817  16.052  1.4477 -1.2874 -0.4190
 4553TIP3    H237855   3.680   1.667  16.051 -0.0185 -1.6070  2.3447
 4554TIP3   OH237856   2.072   2.053  16.958 -0.2153  0.1917 -0.0638
 4554TIP3    H137857   2.025   2.115  17.014  0.9923  2.1714 -1.0898
 4554TIP3    H237858   2.160   2.091  16.951  0.8186 -2.0963 -0.1420
 4555TIP3   OH237859   1.260   0.383  17.393 -0.3283 -0.2791  0.0228
 4555TIP3    H137860   1.280   0.323  17.465  1.6346  2.0867  1.6097
 4555TIP3    H237861   1.345   0.401  17.354 -0.5869  2.5557  0.5898
 4556TIP3   OH237862   2.367   2.498  18.802  0.1134 -0.4423 -0.2937
 4556TIP3    H137863   2.454   2.481  18.764  1.3148  1.6946  1.2781
 4556TIP3    H237864   2.360   2.436  18.875  0.3474 -0.5661 -0.3751
 4557TIP3   OH237865   0.940   6.011  15.495  0.1573 -0.4537  0.1511
 4557TIP3    H137866   0.911   6.088  15.446 -1.5520 -0.1617  1.5514
 4557TIP3    H237867   0.943   5.941  15.430  0.1692  0.4268 -0.8197
 4558TIP3   OH237868   1.283   1.421  16.918 -0.2723  0.6959 -1.1482
 4558TIP3    H137869   1.361   1.396  16.967 -0.9844 -1.1500 -0.8731
 4558TIP3    H237870   1.293   1.379  16.833 -1.6714 -1.0169 -0.5443
 4559TIP3   OH237871   0.598   0.348  17.080  0.4746 -0.6620  0.0672
 4559TIP3    H137872   0.571   0.416  17.018 -0.6111  1.0993  2.3207
 4559TIP3    H237873   0.669   0.303  17.035  0.1383  0.8781 -2.2162
 4560TIP3   OH237874   4.065   4.481  17.737 -0.4675  0.0252 -0.6998
 4560TIP3    H137875   3.985   4.500  17.785  0.7156 -0.5625  1.6329
 4560TIP3    H237876   4.035   4.440  17.655 -2.5123 -0.6449  0.3244
 4561TIP3   OH237877   5.630   0.690  17.455 -0.0215  0.4341  0.7052
 4561TIP3    H137878   5.583   0.672  17.537  0.3827 -0.8179  0.6763
 4561TIP3    H237879   5.689   0.762  17.477  0.3154 -0.0988  1.6140
 4562TIP3   OH237880   1.414   0.865  17.928  0.2671  0.1777  0.1263
 4562TIP3    H137881   1.321   0.884  17.937  0.2000  0.1487 -0.4250
 4562TIP3    H237882   1.431   0.793  17.988 -0.0209  0.3318  0.3888
 4563TIP3   OH237883   6.323   5.840  17.795  0.1905  0.0907  0.2716
 4563TIP3    H137884   6.265   5.915  17.786  0.7459  0.6597  1.3024
 4563TIP3    H237885   6.264   5.765  17.806 -0.3818  0.7360  1.9444
 4564TIP3   OH237886   2.062   6.471  18.959  0.4254  0.5576 -0.3168
 4564TIP3    H137887   2.054   6.514  18.874 -1.3401 -2.2645 -1.7524
 4564TIP3    H237888   2.137   6.412  18.950  0.2078  0.2151  0.0374
 4565TIP3   OH237889   0.021   6.327  17.110 -0.0040  0.1938 -0.5351
 4565TIP3    H137890   0.056   6.286  17.189  1.3774  0.8633 -0.7635
 4565TIP3    H237891   0.025   6.258  17.043 -2.0510 -0.6616  0.1619
 4566TIP3   OH237892   2.959   6.716  16.156 -0.0450  0.1515 -0.2930
 4566TIP3    H137893   2.907   6.688  16.081 -2.9389  1.9758  0.8625
 4566TIP3    H237894   2.952   6.811  16.157  0.1104  0.2126  2.1033
 4567TIP3   OH237895   5.458   6.712  16.551 -0.6158 -0.5056 -0.2506
 4567TIP3    H137896   5.516   6.784  16.575 -1.9187  0.3680  0.3885
 4567TIP3    H237897   5.422   6.681  16.634  0.0473 -2.0365 -0.5004
 4568TIP3   OH237898   1.545   5.442  16.747 -0.2413 -0.1797 -0.2154
 4568TIP3    H137899   1.506   5.498  16.814 -0.8784  0.5232 -1.1595
 4568TIP3    H237900   1.544   5.354  16.786  0.9770  0.4553  1.3735
 4569TIP3   OH237901   0.060   3.571  18.468  0.3174  0.1105 -0.2135
 4569TIP3    H137902   0.090   3.483  18.491  0.7926  0.2967 -0.1081
 4569TIP3    H237903   0.104   3.629  18.530  0.3391  0.4610 -0.5487
 4570TIP3   OH237904   3.123   2.233  17.670  0.5675  0.2304 -0.5239
 4570TIP3    H137905   3.138   2.321  17.704 -1.5501  0.7071 -0.7182
 4570TIP3    H237906   3.119   2.244  17.575 -0.6077  0.1024 -0.5047
 4571TIP3   OH237907   0.282   3.640  17.743  0.1726  1.0944 -0.4850
 4571TIP3    H137908   0.202   3.686  17.768  0.0947  0.9527 -0.4725
 4571TIP3    H237909   0.298   3.668  17.653 -1.0466 -0.4627 -1.2282
 4572TIP3   OH237910   0.195   4.198  16.762  0.1311  0.6442  0.4600
 4572TIP3    H137911   0.241   4.238  16.689  0.7236 -0.5571  0.1485
 4572TIP3    H237912   0.246   4.120  16.783 -0.9142  0.1113  1.1236
 4573TIP3   OH237913   5.911   0.553  16.421 -0.0821  0.5892  0.0482
 4573TIP3    H137914   5.879   0.535  16.332 -1.1010  1.8882  0.1234
 4573TIP3    H237915   5.970   0.480  16.440 -2.6222 -1.7652 -0.3079
 4574TIP3   OH237916   2.830   0.465  17.727 -0.1130  0.4140  0.1042
 4574TIP3    H137917   2.892   0.425  17.787 -1.3519 -1.9330 -0.0494
 4574TIP3    H237918   2.877   0.539  17.688  2.0793 -0.4677  0.9597
 4575TIP3   OH237919   4.364   5.016  17.751  0.8559  0.1591  0.0991
 4575TIP3    H137920   4.370   5.012  17.655  1.6538  0.5268  0.1264
 4575TIP3    H237921   4.384   5.107  17.773  3.6158 -0.5218  0.7760
 4576TIP3   OH237922   4.996   1.136  17.025  0.7470  0.2559  0.3361
 4576TIP3    H137923   5.021   1.088  17.104  1.0030 -0.0880  0.0475
 4576TIP3    H237924   4.963   1.069  16.965  2.7091  0.1633 -0.7252
 4577TIP3   OH237925   3.741   2.228  19.436  0.2250  0.1327  0.3629
 4577TIP3    H137926   3.705   2.176  19.364 -0.4143 -0.9388  1.4250
 4577TIP3    H237927   3.716   2.318  19.416 -1.0168 -0.3051 -0.1204
 4578TIP3   OH237928   2.390   0.413  18.950 -0.0888  0.2693  0.8587
 4578TIP3    H137929   2.411   0.394  19.041 -1.4464 -0.7200  0.9886
 4578TIP3    H237930   2.339   0.338  18.920 -1.6559  1.5958 -0.0118
 4579TIP3   OH237931   4.643   5.639  17.706 -0.0758  0.7869  0.1331
 4579TIP3    H137932   4.621   5.719  17.658  1.0193  1.3796  0.5815
 4579TIP3    H237933   4.656   5.573  17.638 -0.6956  1.0497 -0.2568
 4580TIP3   OH237934   5.434   4.871  19.274  0.4699 -0.4468  0.4003
 4580TIP3    H137935   5.435   4.960  19.308  1.0263 -0.8779  1.5459
 4580TIP3    H237936   5.414   4.816  19.350 -2.7177 -1.1277 -0.7346
 4581TIP3   OH237937   4.518   6.518  17.681 -0.0446 -0.4966 -0.1427
 4581TIP3    H137938   4.538   6.531  17.774 -0.3647 -1.8906  0.1538
 4581TIP3    H237939   4.562   6.435  17.660 -0.9045 -0.7586 -0.9331
 4582TIP3   OH237940   3.026   5.097  16.394  0.0171  0.0353  0.3002
 4582TIP3    H137941   2.959   5.043  16.437 -0.8672 -0.0603 -1.1382
 4582TIP3    H237942   3.011   5.084  16.300  2.3741 -0.3626 -0.0744
 4583TIP3   OH237943   4.667   1.190  16.832 -0.3847  0.1668 -0.1858
 4583TIP3    H137944   4.691   1.256  16.897 -1.5881  0.3683  0.0718
 4583TIP3    H237945   4.734   1.122  16.841  0.8173  1.2929 -0.3922
 4584TIP3   OH237946   4.029   1.720  17.986 -0.1801 -0.2699  0.1007
 4584TIP3    H137947   3.986   1.781  17.926  1.0952  0.2411 -0.3329
 4584TIP3    H237948   4.115   1.705  17.947 -0.2998 -2.0214  0.4341
 4585TIP3   OH237949   6.706   1.256  17.465 -0.3491 -0.0004  0.4387
 4585TIP3    H137950   6.780   1.195  17.460 -0.2223  0.1629  0.3042
 4585TIP3    H237951   6.684   1.274  17.374 -1.2098 -0.8310  0.4764
 4586TIP3   OH237952   0.511   1.169  16.488 -0.5785 -0.0857 -0.3907
 4586TIP3    H137953   0.506   1.077  16.463 -0.1300 -0.1101 -0.3918
 4586TIP3    H237954   0.512   1.217  16.405 -0.2713 -0.1091 -0.4021
 4587TIP3   OH237955   4.978   4.795  16.347 -0.1574  0.2002  0.2158
 4587TIP3    H137956   4.963   4.798  16.253 -0.4224  0.9820  0.2746
 4587TIP3    H237957   5.066   4.833  16.359 -0.4529  0.8528  0.3464
 4588TIP3   OH237958   2.736   4.019  18.148  0.0248 -0.1511  0.9724
 4588TIP3    H137959   2.663   3.966  18.117 -0.5700 -0.0016  2.0564
 4588TIP3    H237960   2.728   4.016  18.244 -0.9816  3.1480  1.0896
 4589TIP3   OH237961   4.779   5.227  16.642 -0.5427 -0.3136 -0.3162
 4589TIP3    H137962   4.859   5.277  16.624  0.8463 -1.0689  3.0679
 4589TIP3    H237963   4.782   5.154  16.580  2.3777 -1.2810  0.7915
 4590TIP3   OH237964   1.142   6.732  18.811 -0.4158  0.1988 -0.1313
 4590TIP3    H137965   1.116   6.640  18.815 -1.9446  0.6203  0.8342
 4590TIP3    H237966   1.081   6.771  18.748  0.6159  0.4639 -0.9998
 4591TIP3   OH237967   1.614   0.847  17.697 -0.4470 -0.2270 -0.3421
 4591TIP3    H137968   1.654   0.806  17.773 -1.8578 -0.5146  0.2734
 4591TIP3    H237969   1.523   0.862  17.722 -0.7324  0.4645 -1.6649
 4592TIP3   OH237970   2.714   0.014  17.490  0.4161  0.1600  0.1661
 4592TIP3    H137971   2.629   0.002  17.448  0.6573 -0.3209 -0.1907
 4592TIP3    H237972   2.720   0.108  17.506  0.3692  0.3688 -0.9838
 4593TIP3   OH237973   4.856   2.852  18.685  0.2001  0.4491  0.1440
 4593TIP3    H137974   4.886   2.768  18.651  2.1600  0.7269  1.0594
 4593TIP3    H237975   4.911   2.918  18.642 -0.3024  1.1546  0.5438
 4594TIP3   OH237976   4.982   2.981  17.449  0.2208 -0.2243  0.0374
 4594TIP3    H137977   5.006   2.930  17.372  1.7871 -0.3240  0.5535
 4594TIP3    H237978   4.987   2.919  17.522  1.7307  0.5137  0.6069
 4595TIP3   OH237979   0.015   3.471  17.771 -0.0739  0.3757  0.2631
 4595TIP3    H137980  -0.043   3.399  17.795 -0.2846  0.2185 -0.7105
 4595TIP3    H237981   0.054   3.444  17.688 -0.4634  1.5716 -0.3184
 4596TIP3   OH237982   1.480   4.560  15.914  0.0133 -0.2151  0.1842
 4596TIP3    H137983   1.427   4.636  15.935 -1.5530 -0.9077 -1.0457
 4596TIP3    H237984   1.418   4.487  15.914  0.4168 -0.7168 -3.6260
 4597TIP3   OH237985   4.998   6.469  16.205 -0.1574 -0.2874 -0.5470
 4597TIP3    H137986   4.991   6.382  16.166  0.0963  0.1278 -1.5682
 4597TIP3    H237987   4.925   6.518  16.166 -0.2033  0.0000 -0.1043
 4598TIP3   OH237988   6.075   0.586  16.102  0.8711  0.7465  0.4000
 4598TIP3    H137989   5.985   0.569  16.128  0.3068  3.9199  1.0377
 4598TIP3    H237990   6.104   0.506  16.059 -1.5718 -1.0757  1.8769
 4599TIP3   OH237991   0.602   6.099  17.274 -0.8130 -0.1480 -0.3968
 4599TIP3    H137992   0.564   6.177  17.234  2.3446  1.4155 -0.7126
 4599TIP3    H237993   0.638   6.131  17.357  1.5370 -0.9258 -1.0446
 4600TIP3   OH237994   4.171   1.080  18.761 -0.0908  0.7492 -0.0370
 4600TIP3    H137995   4.152   1.169  18.790 -1.5782  0.6931 -0.7439
 4600TIP3    H237996   4.262   1.083  18.733  0.6307  1.4194  2.1863
 4601TIP3   OH237997   3.204   2.046  16.726  0.4377 -0.1133  0.4626
 4601TIP3    H137998   3.268   2.088  16.668 -0.5090  0.8585  0.0797
 4601TIP3    H237999   3.201   1.955  16.697  0.2542  0.2704 -0.7993
 4602TIP3   OH238000   2.414   3.484  17.377  0.2076  0.1139  0.0920
 4602TIP3    H138001   2.452   3.401  17.406  0.7328  0.2726 -0.1280
 4602TIP3    H238002   2.352   3.507  17.446 -0.4471 -0.7966 -0.1765
 4603TIP3   OH238003   2.190   1.836  19.446  0.0025  0.3577 -0.3827
 4603TIP3    H138004   2.171   1.791  19.528 -1.4706  1.4225 -0.0981
 4603TIP3    H238005   2.279   1.811  19.424  0.6538  0.5466  1.8782
 4604TIP3   OH238006   4.773   0.512  17.358  0.2282  0.5391 -0.4427
 4604TIP3    H138007   4.708   0.480  17.421  0.5230  0.2722 -0.2713
 4604TIP3    H238008   4.759   0.458  17.280  0.3063  0.4143 -0.3715
 4605TIP3   OH238009   1.107   2.647  19.375 -0.6254 -0.0362 -0.2838
 4605TIP3    H138010   1.025   2.645  19.326  0.1309  0.0003 -1.6229
 4605TIP3    H238011   1.165   2.701  19.322  0.9210 -1.8076 -0.5050
 4606TIP3   OH238012   5.344   6.046  18.106 -0.0287  0.0453 -0.4294
 4606TIP3    H138013   5.297   6.110  18.053 -0.9713  0.5878  0.9882
 4606TIP3    H238014   5.409   6.097  18.154 -0.6685 -0.0606  0.5789
 4607TIP3   OH238015   4.136   5.412  17.221  0.3426  0.0512 -0.3714
 4607TIP3    H138016   4.107   5.442  17.135  1.1160 -1.4148 -1.1697
 4607TIP3    H238017   4.205   5.349  17.203 -0.9851 -1.9991  1.2116
 4608TIP3   OH238018   6.316   5.336  19.168  0.2074  0.7112  0.0673
 4608TIP3    H138019   6.271   5.356  19.250 -1.4231  1.5664 -0.9906
 4608TIP3    H238020   6.299   5.243  19.153  2.1683  0.0306  1.6267
 4609TIP3   OH238021   3.817   6.727  17.656  0.1470  0.3529  0.0327
 4609TIP3    H138022   3.745   6.767  17.607 -0.1797 -0.7760 -0.4288
 4609TIP3    H238023   3.774   6.676  17.725  0.3420 -2.0083 -1.4753
 4610TIP3   OH238024   3.905   4.158  16.685 -0.3779  0.2625 -0.0104
 4610TIP3    H138025   3.927   4.187  16.597  0.7967  0.5580  0.3602
 4610TIP3    H238026   3.814   4.129  16.679 -0.1604 -0.1938 -1.4271
 4611TIP3   OH238027   1.114   6.451  18.764  0.0762 -0.2942  0.0995
 4611TIP3    H138028   1.202   6.434  18.799 -0.0103 -1.2711 -0.1479
 4611TIP3    H238029   1.077   6.364  18.750  0.2183  0.0282 -2.7347
 4612TIP3   OH238030   2.363   3.501  18.211 -0.2471 -0.0859 -0.2735
 4612TIP3    H138031   2.347   3.584  18.256  1.0787 -0.5689  1.1631
 4612TIP3    H238032   2.277   3.476  18.177 -1.3076  0.3978  1.8714
 4613TIP3   OH238033   2.347   2.639  17.064  0.5999 -0.7505 -0.4267
 4613TIP3    H138034   2.371   2.574  17.130  0.6238  1.1432  1.5412
 4613TIP3    H238035   2.426   2.690  17.051 -0.6537  2.1115  2.0314
 4614TIP3   OH238036   4.711   1.698  16.872  0.6495 -0.3026 -0.2822
 4614TIP3    H138037   4.787   1.714  16.817  0.1187  0.6976 -0.7533
 4614TIP3    H238038   4.737   1.729  16.959 -0.3449  3.4337 -1.1640
 4615TIP3   OH238039   2.705   6.277  18.193  0.5091 -0.6738 -0.1904
 4615TIP3    H138040   2.767   6.209  18.222  0.4777 -0.5788  0.0981
 4615TIP3    H238041   2.756   6.358  18.196  0.3492 -0.5838  0.1203
 4616TIP3   OH238042   1.873   0.652  19.185 -1.0674  0.3331 -0.0811
 4616TIP3    H138043   1.915   0.636  19.100 -0.2848  0.7681  0.2100
 4616TIP3    H238044   1.826   0.571  19.204  1.6051 -1.1899  0.6781
 4617TIP3   OH238045   3.800   2.834  19.515  0.3145  0.1876 -0.6067
 4617TIP3    H138046   3.706   2.817  19.520  0.4429 -0.5920 -0.6528
 4617TIP3    H238047   3.810   2.925  19.541 -0.5018  0.4126 -1.0498
 4618TIP3   OH238048   4.199   3.371  19.510 -0.0219 -0.4599  0.5665
 4618TIP3    H138049   4.153   3.308  19.455 -1.1332  1.3467 -0.6987
 4618TIP3    H238050   4.145   3.379  19.589 -0.8837  0.2170 -0.0696
 4619TIP3   OH238051   6.264   2.272  17.276  0.7767 -0.1129  0.2316
 4619TIP3    H138052   6.175   2.304  17.287  0.6127 -0.5683  0.2473
 4619TIP3    H238053   6.319   2.346  17.300  0.4262 -0.4055  2.0793
 4620TIP3   OH238054   6.376   1.784  17.384 -0.0057 -0.3440 -0.5144
 4620TIP3    H138055   6.396   1.827  17.301 -0.8335  1.4361  0.1587
 4620TIP3    H238056   6.413   1.842  17.450  2.8841 -2.9401  0.3975
 4621TIP3   OH238057   1.544   1.320  16.708 -0.2054 -0.5416  0.2203
 4621TIP3    H138058   1.559   1.332  16.614  0.7282 -2.7016  0.0264
 4621TIP3    H238059   1.449   1.313  16.716 -0.3478  0.3835 -0.4384
 4622TIP3   OH238060   6.468   4.106  16.407  0.0059  0.3648  0.4467
 4622TIP3    H138061   6.374   4.113  16.387 -0.2175 -2.2425  0.2778
 4622TIP3    H238062   6.483   4.012  16.420  2.9057  0.5024 -1.0943
 4623TIP3   OH238063   5.682   3.926  19.174  0.2625 -0.2429 -0.5731
 4623TIP3    H138064   5.662   4.009  19.218  0.8987 -0.6316  0.5103
 4623TIP3    H238065   5.699   3.865  19.246  1.0657 -0.9897 -1.3765
 4624TIP3   OH238066   2.403   5.743  18.866 -0.2987  0.5829 -0.0381
 4624TIP3    H138067   2.385   5.689  18.789 -0.6215 -1.1799  1.1910
 4624TIP3    H238068   2.317   5.761  18.903 -0.0755 -0.7313  1.2380
 4625TIP3   OH238069   3.455   1.278  16.571  0.6023 -0.0873 -0.0235
 4625TIP3    H138070   3.458   1.194  16.617  2.0486 -1.4201 -2.4021
 4625TIP3    H238071   3.363   1.287  16.543 -0.0877  0.3036  2.1404
 4626TIP3   OH238072   4.144   6.366  18.025 -0.2307  0.0892  0.2527
 4626TIP3    H138073   4.155   6.461  18.013 -2.5301  0.4013  0.1092
 4626TIP3    H238074   4.117   6.357  18.116  1.0156 -0.5851  0.5845
 4627TIP3   OH238075   5.222   6.202  17.839  0.3771  0.0977 -0.4241
 4627TIP3    H138076   5.201   6.258  17.765  2.2403 -0.7280 -1.6414
 4627TIP3    H238077   5.270   6.260  17.900 -0.0907  0.4778 -0.4110
 4628TIP3   OH238078   1.635   0.410  18.067 -0.1058 -0.6261 -0.5615
 4628TIP3    H138079   1.724   0.447  18.065  0.0003 -0.8984 -1.0232
 4628TIP3    H238080   1.601   0.426  17.979 -0.1466 -1.4178 -0.6912
 4629TIP3   OH238081   5.515   4.239  18.923  0.0148  0.2134  0.0168
 4629TIP3    H138082   5.570   4.285  18.987 -0.2705 -0.2760  0.6201
 4629TIP3    H238083   5.553   4.151  18.919 -0.6124 -0.0754  0.3128
 4630TIP3   OH238084   5.510   1.926  18.278  0.0961  0.4545  0.2932
 4630TIP3    H138085   5.534   1.990  18.345  1.7461  0.3315 -0.1346
 4630TIP3    H238086   5.417   1.910  18.292 -0.2930  2.7101  0.6135
 4631TIP3   OH238087   2.008   1.283  18.904 -0.5306 -0.1757 -0.0094
 4631TIP3    H138088   2.029   1.361  18.956 -0.0041 -0.5333  0.3274
 4631TIP3    H238089   2.010   1.211  18.967  0.2460 -0.6308 -0.5305
 4632TIP3   OH238090   1.048   1.181  17.867 -0.4295  0.0948 -0.4150
 4632TIP3    H138091   1.085   1.247  17.925 -0.6479  2.0347 -2.3717
 4632TIP3    H238092   0.954   1.196  17.868 -0.5732 -0.7359 -0.2652
 4633TIP3   OH238093   0.554   5.455  15.170 -0.2892  0.1515  0.5227
 4633TIP3    H138094   0.541   5.548  15.185  0.7071  0.5191 -0.8271
 4633TIP3    H238095   0.645   5.439  15.193 -1.1683 -1.1404  3.6691
 4634TIP3   OH238096   6.213   3.238  16.627  0.5136 -0.1460  0.2954
 4634TIP3    H138097   6.153   3.203  16.561  0.6067 -1.4075  0.8381
 4634TIP3    H238098   6.180   3.326  16.645  0.6638  0.3410 -1.6071
 4635TIP3   OH238099   2.296   2.604  17.438 -0.0674 -0.0238  0.5238
 4635TIP3    H138100   2.261   2.517  17.420 -0.2956  0.0533  0.5911
 4635TIP3    H238101   2.389   2.590  17.458 -0.2327 -0.3114  1.0928
 4636TIP3   OH238102   6.715   2.711  17.509 -0.3079  0.0235  0.5262
 4636TIP3    H138103   6.667   2.672  17.583  0.0589 -2.1559 -0.3136
 4636TIP3    H238104   6.798   2.663  17.507  1.0192  2.1926  0.5720
 4637TIP3   OH238105   4.067   6.383  18.273  0.3383  0.6822  0.2583
 4637TIP3    H138106   3.980   6.405  18.307  1.4305  3.8666  1.4104
 4637TIP3    H238107   4.108   6.332  18.344  0.7117  2.6223  1.5191
 4638TIP3   OH238108   1.392   6.442  16.541  0.3023  0.3641  0.7917
 4638TIP3    H138109   1.299   6.431  16.522  0.4034  0.9454 -0.0829
 4638TIP3    H238110   1.397   6.522  16.594  0.1263 -0.7163  2.5352
 4639TIP3   OH238111   0.893   5.908  15.919  0.4019  0.5962  0.0507
 4639TIP3    H138112   0.975   5.943  15.954  0.1474  0.3445  0.9161
 4639TIP3    H238113   0.827   5.936  15.982  0.1704 -1.3270  0.7233
 4640TIP3   OH238114   6.624   2.935  16.293  0.8638 -0.2733 -0.0616
 4640TIP3    H138115   6.576   2.889  16.225  2.0621 -1.5889 -0.0719
 4640TIP3    H238116   6.714   2.940  16.260  0.5691  3.4887 -0.7431
 4641TIP3   OH238117   6.079   0.989  17.724 -0.0629  0.0051 -0.0216
 4641TIP3    H138118   6.130   0.948  17.654  0.7141 -0.0783  0.5711
 4641TIP3    H238119   6.028   0.918  17.762 -0.5739  0.0729 -0.5712
 4642TIP3   OH238120   0.566   2.926  18.175 -0.7651 -0.4235  0.3249
 4642TIP3    H138121   0.617   2.998  18.211  2.2527 -1.3546 -1.6857
 4642TIP3    H238122   0.512   2.896  18.248  0.7160  1.4228  2.3176
 4643TIP3   OH238123   2.950   1.298  17.320  0.0335  0.3868 -0.3001
 4643TIP3    H138124   2.925   1.215  17.360  1.8678 -0.5043 -0.9318
 4643TIP3    H238125   2.867   1.339  17.298 -0.9498 -0.6454  1.2446
 4644TIP3   OH238126   2.448   0.785  18.715 -0.4383 -0.1095  0.5011
 4644TIP3    H138127   2.458   0.814  18.806 -0.9226 -0.4616  0.6700
 4644TIP3    H238128   2.533   0.801  18.675 -0.3591  0.4729  0.8961
 4645TIP3   OH238129   3.011   5.632  18.542 -0.4376  0.3919 -1.0258
 4645TIP3    H138130   2.982   5.552  18.499  1.0087 -0.3920 -0.5716
 4645TIP3    H238131   3.011   5.611  18.636 -1.9937  1.5825 -0.6976
 4646TIP3   OH238132   3.047   6.597  16.640 -0.6259  0.2883  0.1154
 4646TIP3    H138133   3.057   6.681  16.685  0.4312 -0.4712  1.3783
 4646TIP3    H238134   3.068   6.616  16.549 -1.3903  1.5819  0.1774
 4647TIP3   OH238135   2.657   0.479  18.567 -0.4149 -0.1637  1.0771
 4647TIP3    H138136   2.735   0.532  18.580 -1.2649  0.8823  2.1133
 4647TIP3    H238137   2.593   0.514  18.629 -2.0262 -0.3789 -0.3830
 4648TIP3   OH238138   3.753   1.123  17.705  0.6639  0.0942 -0.1204
 4648TIP3    H138139   3.838   1.152  17.741  0.4986  1.7531 -0.9686
 4648TIP3    H238140   3.750   1.163  17.618 -0.1737 -1.5338 -0.8641
 4649TIP3   OH238141   0.862   1.160  16.649  0.5423  0.0599 -0.7978
 4649TIP3    H138142   0.878   1.240  16.699  0.5311 -0.3945 -0.0376
 4649TIP3    H238143   0.902   1.176  16.564  2.3378  0.1367  0.0095
 4650TIP3   OH238144   4.005   4.306  18.013  0.0937  0.2769  0.3764
 4650TIP3    H138145   3.998   4.212  17.999 -0.1873  0.4771 -0.9459
 4650TIP3    H238146   3.940   4.344  17.954  0.4800  1.3196  0.6037
 4651TIP3   OH238147   2.848   4.170  18.941  0.1477 -0.4047 -0.3287
 4651TIP3    H138148   2.766   4.125  18.921 -2.0330  3.1504 -0.2266
 4651TIP3    H238149   2.877   4.206  18.858  2.2798 -2.3874 -0.5581
 4652TIP3   OH238150   6.521   2.311  16.849  0.6567  0.3170  0.2479
 4652TIP3    H138151   6.484   2.327  16.761  2.2617 -0.2467 -0.5670
 4652TIP3    H238152   6.505   2.392  16.896 -1.9594 -0.0076  0.1186
 4653TIP3   OH238153   1.785   1.696  19.777  0.2174  0.0609  0.2628
 4653TIP3    H138154   1.816   1.619  19.730  0.4145 -0.4584  1.2330
 4653TIP3    H238155   1.742   1.662  19.855 -0.9307  0.8726  0.0168
 4654TIP3   OH238156   3.230   0.835  18.939  0.1806 -0.9768  0.1495
 4654TIP3    H138157   3.282   0.766  18.979  1.6586 -0.1643 -0.3203
 4654TIP3    H238158   3.194   0.885  19.013  1.5819 -0.4481  0.5065
 4655TIP3   OH238159   1.239   1.272  16.687  0.5341  0.0776 -0.1059
 4655TIP3    H138160   1.161   1.229  16.723  1.8069 -0.4699  2.1379
 4655TIP3    H238161   1.297   1.199  16.663  0.5057  0.4908 -1.5257
 4656TIP3   OH238162   6.715   3.018  19.288 -0.1340 -0.1622  0.1739
 4656TIP3    H138163   6.682   3.090  19.343 -0.2079  0.4414 -0.6412
 4656TIP3    H238164   6.637   2.971  19.261 -0.0260 -1.1394  1.4667
 4657TIP3   OH238165   4.050   1.471  18.353  0.3828 -0.0023  0.0099
 4657TIP3    H138166   4.033   1.477  18.447  2.0297  2.1767  0.2620
 4657TIP3    H238167   4.142   1.446  18.347  0.2439 -0.3163 -1.0385
 4658TIP3   OH238168   6.549   5.821  16.425  0.1836 -0.0594 -0.0076
 4658TIP3    H138169   6.616   5.766  16.466 -0.2685 -0.4481  0.2162
 4658TIP3    H238170   6.466   5.785  16.455 -0.1246  1.1227  0.6493
 4659TIP3   OH238171   4.743   3.690  18.801  0.5105 -0.0970  0.0868
 4659TIP3    H138172   4.835   3.691  18.775  0.0383 -0.7124 -1.7081
 4659TIP3    H238173   4.725   3.599  18.823  0.3512  0.0398  0.5422
 4660TIP3   OH238174   5.063   0.759  15.556  0.3113 -0.3223  0.2414
 4660TIP3    H138175   4.995   0.783  15.619 -0.8797 -1.1258 -0.6854
 4660TIP3    H238176   5.095   0.843  15.522 -1.4632  0.0868 -0.5595
 4661TIP3   OH238177   1.553   2.891  19.085  0.2812 -0.0329  0.4352
 4661TIP3    H138178   1.547   2.950  19.010 -0.1789 -1.8765 -1.0560
 4661TIP3    H238179   1.627   2.924  19.136 -0.1100  1.9298 -0.2162
 4662TIP3   OH238180   0.727   5.857  17.035 -0.0633 -0.1596 -0.5274
 4662TIP3    H138181   0.799   5.836  16.975  0.8002  0.3864  0.2865
 4662TIP3    H238182   0.770   5.893  17.112 -1.1472 -0.8830  0.4543
 4663TIP3   OH238183   4.079   5.155  15.828 -0.1263 -0.1946 -0.1511
 4663TIP3    H138184   4.157   5.109  15.861  0.4975  0.4874 -0.6503
 4663TIP3    H238185   4.006   5.104  15.862  0.5293 -0.6715  0.5955
 4664TIP3   OH238186   3.818   4.995  16.779  0.5762 -0.5390  0.2329
 4664TIP3    H138187   3.856   4.943  16.708  0.3708 -0.8303  0.3330
 4664TIP3    H238188   3.825   5.085  16.749  1.7854 -0.5458  0.4546
 4665TIP3   OH238189   4.826   3.542  16.711 -0.3104 -0.5063 -0.4481
 4665TIP3    H138190   4.761   3.532  16.642 -1.2602 -0.0050  0.3560
 4665TIP3    H238191   4.810   3.629  16.747  1.1006 -0.1942 -0.5230
 4666TIP3   OH238192   4.361   1.005  15.649  0.6165  0.1218  0.2271
 4666TIP3    H138193   4.316   1.011  15.734 -0.0060 -1.0334 -0.0088
 4666TIP3    H238194   4.454   0.999  15.672  0.4205 -0.6729  0.8682
 4667TIP3   OH238195   1.170   2.018  19.524  0.6923  0.0255 -0.3794
 4667TIP3    H138196   1.081   2.048  19.503  0.2451 -1.9736 -1.5370
 4667TIP3    H238197   1.227   2.070  19.467  0.1586  0.3449 -0.6323
 4668TIP3   OH238198   4.936   4.714  17.440  0.0877 -0.4214 -0.0793
 4668TIP3    H138199   4.881   4.774  17.389  1.2221  0.6490 -0.1032
 4668TIP3    H238200   5.022   4.757  17.441  0.2183 -0.6195  2.3610
 4669TIP3   OH238201   4.324   5.382  16.836 -0.3019  0.0414  1.1090
 4669TIP3    H138202   4.251   5.328  16.804 -0.7879  1.3930 -0.1703
 4669TIP3    H238203   4.397   5.359  16.778  0.4726 -1.6107  2.6427
 4670TIP3   OH238204   2.683   5.313  16.759  0.7472  0.1083 -0.4469
 4670TIP3    H138205   2.651   5.381  16.700  0.3729 -1.1781 -1.7763
 4670TIP3    H238206   2.638   5.330  16.842 -1.0638  0.1595 -1.4036
 4671TIP3   OH238207   3.743   4.485  17.062 -0.2387  0.1561  0.3327
 4671TIP3    H138208   3.761   4.577  17.045 -2.2921  0.5060 -0.2029
 4671TIP3    H238209   3.822   4.439  17.031  0.1058  1.5773 -1.0446
 4672TIP3   OH238210   5.588   2.604  17.807 -0.7783  0.3014 -0.4264
 4672TIP3    H138211   5.519   2.541  17.782 -1.0517  0.3293  0.2475
 4672TIP3    H238212   5.557   2.642  17.889  0.2977 -0.0805  0.1790
 4673TIP3   OH238213   4.531   2.280  19.077  0.1581  0.1596 -0.7668
 4673TIP3    H138214   4.504   2.312  19.164  0.2700 -0.2343 -0.5862
 4673TIP3    H238215   4.609   2.227  19.095  0.7085  0.8098 -1.2150
 4674TIP3   OH238216   1.721   6.040  19.306  0.4333  0.4499  0.2296
 4674TIP3    H138217   1.680   6.044  19.220  0.1032 -0.4891  0.3369
 4674TIP3    H238218   1.781   6.115  19.307 -0.6208  1.3330 -0.2512
 4675TIP3   OH238219   0.593   5.868  18.317 -0.3209  0.1198  0.0742
 4675TIP3    H138220   0.653   5.861  18.391  0.1241  1.9903 -0.0716
 4675TIP3    H238221   0.542   5.787  18.321  1.7894 -1.2702  0.5320
 4676TIP3   OH238222   4.514   2.576  18.135 -0.5872  0.0048  0.0358
 4676TIP3    H138223   4.434   2.618  18.166 -0.3877  2.2513 -2.1399
 4676TIP3    H238224   4.584   2.634  18.165 -0.2370  0.8787 -2.2453
 4677TIP3   OH238225   4.738   4.994  18.880 -0.3914  0.5785  0.3267
 4677TIP3    H138226   4.815   4.937  18.887  0.3958  1.4882 -0.6166
 4677TIP3    H238227   4.741   5.028  18.791 -1.5888  1.0676  0.4508
 4678TIP3   OH238228   4.833   3.752  19.439 -0.1159 -0.1706 -0.2238
 4678TIP3    H138229   4.761   3.690  19.452  0.4441 -0.7296  0.3255
 4678TIP3    H238230   4.905   3.698  19.406  0.0937  0.3564 -0.6422
 4679TIP3   OH238231   2.271   1.756  19.064 -0.3814 -0.1874 -0.2179
 4679TIP3    H138232   2.212   1.727  19.133 -1.3594 -0.1075 -1.0040
 4679TIP3    H238233   2.291   1.677  19.014 -2.4738  0.2763 -1.9247
 4680TIP3   OH238234   5.841   5.194  16.470  0.9352 -0.1461  0.1666
 4680TIP3    H138235   5.752   5.224  16.488  0.3261 -0.4636 -2.0383
 4680TIP3    H238236   5.888   5.211  16.551 -0.9441  0.7130  1.1591
 4681TIP3   OH238237   0.146   5.437  16.841  0.0267 -0.4367  0.1442
 4681TIP3    H138238   0.188   5.520  16.818  0.8662 -1.1518 -0.9995
 4681TIP3    H238239   0.216   5.383  16.876 -0.2741 -1.0564 -0.1879
 4682TIP3   OH238240   6.635   4.445  18.303 -0.4810  0.5655 -0.0558
 4682TIP3    H138241   6.682   4.520  18.339  1.8615 -0.1840 -1.3690
 4682TIP3    H238242   6.591   4.406  18.379 -0.2666  2.1791  0.9590
 4683TIP3   OH238243   4.738   2.794  18.156 -0.3543  0.1677 -0.1919
 4683TIP3    H138244   4.658   2.836  18.126 -1.3371 -1.3502  0.2007
 4683TIP3    H238245   4.732   2.798  18.252  0.8975  1.5672 -0.1393
 4684TIP3   OH238246   3.771   0.408  17.262 -0.3997  0.4277 -0.4557
 4684TIP3    H138247   3.701   0.473  17.259  0.6043  1.6368  0.9366
 4684TIP3    H238248   3.849   0.456  17.235  0.1192 -0.6034 -0.8383
 4685TIP3   OH238249   2.039   0.485  18.602  0.4615  0.0508  0.3735
 4685TIP3    H138250   2.066   0.570  18.637  0.6810  1.3407 -2.6058
 4685TIP3    H238251   1.948   0.475  18.632  0.1258  1.7954  0.0655
 4686TIP3   OH238252   5.037   5.133  18.078 -0.4229 -0.5448 -0.1714
 4686TIP3    H138253   5.126   5.100  18.064 -0.3773  0.2146 -1.9907
 4686TIP3    H238254   4.981   5.055  18.074  0.1825 -1.0851  1.4593
 4687TIP3   OH238255   1.817   0.799  17.543  0.2289 -0.1332 -0.4644
 4687TIP3    H138256   1.798   0.818  17.451  0.6623  0.3033 -0.4682
 4687TIP3    H238257   1.737   0.826  17.590  0.3840  0.5968 -0.6056
 4688TIP3   OH238258   4.292   1.081  17.848 -0.4326  0.3520  0.2618
 4688TIP3    H138259   4.354   1.154  17.848 -0.9831  0.8357 -0.5004
 4688TIP3    H238260   4.244   1.091  17.766 -3.6009  1.7724  2.0889
 4689TIP3   OH238261   0.840   3.684  18.821 -0.2533 -0.2842 -0.2991
 4689TIP3    H138262   0.918   3.639  18.787 -1.1079 -1.3811 -0.8879
 4689TIP3    H238263   0.869   3.723  18.904  1.2188  0.3290 -1.0724
 4690TIP3   OH238264   2.032   3.729  18.788  0.3426 -0.0634 -0.1700
 4690TIP3    H138265   2.006   3.820  18.803  0.5148 -0.1366  0.5979
 4690TIP3    H238266   1.997   3.709  18.701  2.2903  1.4649 -1.3786
 4691TIP3   OH238267   1.201   1.993  19.157 -0.1352 -0.2095  0.9307
 4691TIP3    H138268   1.109   1.985  19.184 -0.1896 -0.3467  0.7137
 4691TIP3    H238269   1.198   1.983  19.062  0.5425 -4.4061  1.1633
 4692TIP3   OH238270   2.633   3.123  17.268 -0.0553 -0.2028 -0.0913
 4692TIP3    H138271   2.584   3.135  17.187  0.6404  1.3088 -0.3380
 4692TIP3    H238272   2.721   3.096  17.239  0.4341  1.1205  0.0649
 4693TIP3   OH238273   1.974   0.855  16.321 -0.2420 -0.0686 -0.2659
 4693TIP3    H138274   1.881   0.875  16.318 -0.2519 -0.1326 -0.4583
 4693TIP3    H238275   1.981   0.766  16.287 -0.2256 -0.4938  0.8464
 4694TIP3   OH238276   6.356   3.025  16.724 -0.6666 -0.7548  0.1296
 4694TIP3    H138277   6.300   3.099  16.698  0.3272  0.6528  1.8197
 4694TIP3    H238278   6.346   2.963  16.652 -1.8490  0.8366 -1.1863
 4695TIP3   OH238279   3.414   3.863  17.398  0.0920  0.6599 -0.5348
 4695TIP3    H138280   3.473   3.938  17.393  0.9400 -0.0688 -2.5512
 4695TIP3    H238281   3.354   3.876  17.324 -0.5185 -0.0180 -0.1587
 4696TIP3   OH238282   0.241   1.596  18.718 -0.2965  0.2406 -0.0001
 4696TIP3    H138283   0.234   1.683  18.679 -1.5030  0.5543  0.8573
 4696TIP3    H238284   0.189   1.540  18.661 -1.3490  0.5311  0.6505
 4697TIP3   OH238285   1.001   3.907  18.490  0.2070  0.2454 -0.0974
 4697TIP3    H138286   0.945   3.829  18.500  1.7567 -1.3411 -2.6585
 4697TIP3    H238287   1.090   3.875  18.505  0.9111  1.4014 -1.5633
 4698TIP3   OH238288   5.555   0.893  18.231  0.3037  1.0443 -0.0061
 4698TIP3    H138289   5.599   0.827  18.285 -0.3177  0.7987  0.2078
 4698TIP3    H238290   5.491   0.843  18.180  0.3728  1.3788 -0.4260
 4699TIP3   OH238291   0.469   4.744  18.595  0.6165 -0.0441 -0.4534
 4699TIP3    H138292   0.446   4.837  18.599  1.6747  0.1754  1.3147
 4699TIP3    H238293   0.384   4.699  18.594  0.0560  0.8833  1.2580
 4700TIP3   OH238294   0.020   3.528  16.338 -0.1993  0.2124  0.3844
 4700TIP3    H138295   0.106   3.489  16.354 -0.4964 -0.5972  0.0487
 4700TIP3    H238296   0.001   3.577  16.417  0.6125  0.4849  0.4293
 4701TIP3   OH238297   0.223   3.339  16.363  0.1968 -0.4220  0.0148
 4701TIP3    H138298   0.220   3.252  16.322  0.2971  0.4516 -1.9717
 4701TIP3    H238299   0.316   3.357  16.376  0.2935  0.0668 -1.2029
 4702TIP3   OH238300   1.972   6.657  17.741 -0.0658 -0.0701 -0.4619
 4702TIP3    H138301   1.878   6.641  17.730 -0.1961  0.1968  0.2140
 4702TIP3    H238302   2.007   6.574  17.773  0.0670 -0.4101 -1.4781
 4703TIP3   OH238303   4.802   6.615  18.351  0.2694  0.0847  0.1131
 4703TIP3    H138304   4.744   6.551  18.391  0.0144  1.3755  1.9335
 4703TIP3    H238305   4.887   6.600  18.392  0.6396 -0.1769 -0.7204
 4704TIP3   OH238306   5.411   3.042  17.416 -0.3794 -0.0390  0.2637
 4704TIP3    H138307   5.390   2.973  17.478 -0.0193 -1.0087 -0.6770
 4704TIP3    H238308   5.468   3.001  17.351  3.2505  2.0373  1.8023
 4705TIP3   OH238309   2.689   5.381  16.192 -0.0118 -0.7402 -0.2747
 4705TIP3    H138310   2.609   5.416  16.154  0.1651 -1.2450 -1.1615
 4705TIP3    H238311   2.717   5.313  16.130  1.2761 -0.3509 -0.1609
 4706TIP3   OH238312   3.899   5.453  17.824  0.6848  0.4267  0.5048
 4706TIP3    H138313   3.918   5.545  17.841  0.0740  0.8822 -1.0848
 4706TIP3    H238314   3.832   5.430  17.888 -0.1081  1.4837  0.0820
 4707TIP3   OH238315   0.586   1.155  19.165 -0.2887  0.1821 -0.4518
 4707TIP3    H138316   0.555   1.200  19.086 -1.0305  0.5953  0.0697
 4707TIP3    H238317   0.576   1.062  19.144 -0.4874  0.2901 -0.8518
 4708TIP3   OH238318   1.372   5.299  19.026  0.3346 -0.3299  0.5084
 4708TIP3    H138319   1.342   5.382  19.064 -0.1920  0.1515 -0.9035
 4708TIP3    H238320   1.410   5.323  18.942  2.6848 -1.2090  1.2255
 4709TIP3   OH238321   3.128   1.113  16.282 -0.2647 -0.4714  0.1314
 4709TIP3    H138322   3.171   1.194  16.255 -1.3996  0.5523  1.3081
 4709TIP3    H238323   3.109   1.067  16.200  0.6173  0.3170 -0.5323
 4710TIP3   OH238324   3.177   0.275  16.058  0.2095 -0.2336 -0.3794
 4710TIP3    H138325   3.206   0.184  16.063  0.5440 -0.2396 -1.9648
 4710TIP3    H238326   3.082   0.270  16.067  0.2804 -0.6707  0.1699
 4711TIP3   OH238327   6.729   5.506  18.823  0.3581  0.4596  0.0638
 4711TIP3    H138328   6.823   5.489  18.819  0.3174  0.1361  0.5364
 4711TIP3    H238329   6.697   5.454  18.896 -0.5453 -1.0736 -1.3443
 4712TIP3   OH238330   5.413   2.376  17.221  0.3873 -0.0713  0.2127
 4712TIP3    H138331   5.368   2.406  17.142  0.0484 -1.8861 -0.3243
 4712TIP3    H238332   5.349   2.322  17.266  1.4813 -1.4218  0.2316
 4713TIP3   OH238333   2.952   4.808  17.300  0.2136  0.5929 -0.8918
 4713TIP3    H138334   2.952   4.851  17.214  0.8285  1.4898 -0.4667
 4713TIP3    H238335   3.031   4.755  17.301 -0.6291 -0.7288 -1.4776
 4714TIP3   OH238336   5.083   0.640  16.341  0.3226 -0.3825  0.1401
 4714TIP3    H138337   5.159   0.662  16.287 -0.1591 -0.5427 -0.6176
 4714TIP3    H238338   5.008   0.673  16.292 -0.0070  1.6375  1.8358
 4715TIP3   OH238339   6.039   6.466  16.942  0.2805  0.4150 -0.4344
 4715TIP3    H138340   6.008   6.382  16.908  0.1866  0.3461 -0.1818
 4715TIP3    H238341   6.031   6.458  17.037  0.6474  0.5648 -0.3882
 4716TIP3   OH238342   1.580   2.228  19.248 -0.4946 -0.5294  0.0274
 4716TIP3    H138343   1.492   2.198  19.269 -0.3291 -0.1755  1.3602
 4716TIP3    H238344   1.600   2.293  19.316 -0.1252  1.1910 -1.6662
 4717TIP3   OH238345   5.242   0.414  17.200 -0.6069  0.0385 -0.3892
 4717TIP3    H138346   5.167   0.372  17.157 -0.7539 -2.1906  1.8302
 4717TIP3    H238347   5.204   0.463  17.273 -0.1402  1.6625 -1.1862
 4718TIP3   OH238348   0.861   6.272  19.180 -0.2702 -0.0677  0.3551
 4718TIP3    H138349   0.884   6.189  19.137  2.2609 -0.2781  1.9135
 4718TIP3    H238350   0.779   6.298  19.138 -0.0757 -2.2892 -1.6639
 4719TIP3   OH238351   1.097   6.307  18.531 -0.0097  0.3558 -0.2638
 4719TIP3    H138352   1.113   6.345  18.445  1.6434  1.2752  0.3906
 4719TIP3    H238353   1.084   6.383  18.588 -0.6510 -0.2231  0.3681
 4720TIP3   OH238354   4.960   0.727  16.734  0.3771 -0.2774 -0.0538
 4720TIP3    H138355   4.971   0.666  16.661 -0.8695 -0.1774 -0.3490
 4720TIP3    H238356   5.035   0.786  16.727  0.2241 -0.1907 -1.3468
 4721TIP3   OH238357   5.858   0.262  15.855 -0.3497  0.8881  0.2084
 4721TIP3    H138358   5.788   0.326  15.866 -0.7834  0.1881  1.9035
 4721TIP3    H238359   5.867   0.252  15.760 -2.2764  1.2818 -0.0546
 4722TIP3   OH238360   1.012   2.308  18.707  0.6123 -0.5980 -0.0568
 4722TIP3    H138361   1.092   2.356  18.685 -1.2478  2.7276 -0.3869
 4722TIP3    H238362   0.978   2.277  18.623  0.0488  0.7477 -0.3574
 4723TIP3   OH238363   6.107   1.659  17.074 -0.4026 -0.5096  0.1807
 4723TIP3    H138364   6.019   1.667  17.111 -0.4704 -1.1045  0.1436
 4723TIP3    H238365   6.165   1.663  17.151 -0.3711  1.2174  0.1059
 4724TIP3   OH238366   5.593   2.640  18.786  0.2902 -0.5495 -0.5273
 4724TIP3    H138367   5.581   2.567  18.846  0.7778 -0.9015 -0.8512
 4724TIP3    H238368   5.678   2.624  18.745  0.9586  0.7865  0.2342
 4725TIP3   OH238369   6.483   2.593  16.611  0.0653  0.1849 -0.6617
 4725TIP3    H138370   6.525   2.679  16.599 -2.6386  1.5989 -0.6468
 4725TIP3    H238371   6.474   2.558  16.523  2.5958 -0.9098 -0.5743
 4726TIP3   OH238372   6.750   2.974  17.237  0.4604  0.0166  0.0693
 4726TIP3    H138373   6.836   2.997  17.202  0.5243 -0.5450 -0.1655
 4726TIP3    H238374   6.750   2.878  17.236 -0.1055  0.0155  0.2236
 4727TIP3   OH238375   1.369   1.933  17.530 -0.2118 -0.2862 -0.1503
 4727TIP3    H138376   1.450   1.944  17.580 -1.3837 -0.2423  1.8509
 4727TIP3    H238377   1.375   1.998  17.460  1.0097  0.4817  0.6298
 4728TIP3   OH238378   2.359   4.630  17.832 -0.5594  0.3760 -0.0926
 4728TIP3    H138379   2.418   4.665  17.899 -0.5778  2.5050 -1.1009
 4728TIP3    H238380   2.289   4.588  17.882  1.0208 -0.9562  1.1428
 4729TIP3   OH238381   0.271   6.665  17.715  0.1314 -0.2123  0.3507
 4729TIP3    H138382   0.356   6.704  17.737  0.7460 -0.5627 -1.2456
 4729TIP3    H238383   0.267   6.585  17.768  1.3125 -0.7754 -0.3835
 4730TIP3   OH238384   3.256   3.166  17.063 -0.0428  0.5644  0.1495
 4730TIP3    H138385   3.285   3.115  16.987 -0.1046  0.6537  0.0667
 4730TIP3    H238386   3.220   3.247  17.026 -0.3468  0.4786  0.2551
 4731TIP3   OH238387   2.567   1.599  18.358 -0.0570  0.5015  0.2584
 4731TIP3    H138388   2.662   1.594  18.357 -0.0482 -0.1736  1.6751
 4731TIP3    H238389   2.546   1.678  18.308  1.2332  0.6208 -0.1233
 4732TIP3   OH238390   5.224   4.507  18.516 -0.7201  0.2756 -0.0394
 4732TIP3    H138391   5.303   4.455  18.506 -0.2603  0.6596  1.2743
 4732TIP3    H238392   5.228   4.540  18.606 -0.9991  2.5259 -0.7811
 4733TIP3   OH238393   1.359   3.631  17.360 -0.4955 -0.7694 -0.9845
 4733TIP3    H138394   1.317   3.664  17.439  0.0554 -0.0604 -0.9799
 4733TIP3    H238395   1.348   3.536  17.365 -0.9324 -0.6904 -0.3258
 4734TIP3   OH238396   0.897   4.657  17.129  0.4701  0.0047  0.3059
 4734TIP3    H138397   0.948   4.705  17.063 -2.4070  1.0761 -1.3500
 4734TIP3    H238398   0.918   4.565  17.114  0.8610  0.3242 -1.2815
 4735TIP3   OH238399   5.203   2.921  18.607 -0.0122 -0.2536 -0.2499
 4735TIP3    H138400   5.139   2.966  18.551 -1.4616 -0.0565  1.4869
 4735TIP3    H238401   5.182   2.828  18.597 -1.1600 -0.1450  0.9473
 4736TIP3   OH238402   3.842   4.951  17.634 -0.4876 -0.0366  0.3321
 4736TIP3    H138403   3.931   4.980  17.653 -0.7744  1.1069  0.0234
 4736TIP3    H238404   3.808   4.919  17.717 -0.1311  0.4954  0.6840
 4737TIP3   OH238405   3.013   3.289  19.368 -0.6935  0.0115 -0.1927
 4737TIP3    H138406   3.043   3.372  19.331 -0.2731 -0.8358 -1.8432
 4737TIP3    H238407   2.952   3.254  19.303 -1.8352 -0.4337  1.0397
 4738TIP3   OH238408   1.298   3.795  16.238 -0.2180 -0.3097 -0.3413
 4738TIP3    H138409   1.282   3.824  16.328  1.3047  0.1393 -0.1821
 4738TIP3    H238410   1.393   3.802  16.227 -0.3465 -0.6052 -1.9109
 4739TIP3   OH238411   3.189   5.210  17.969  0.0376  0.1695 -0.2113
 4739TIP3    H138412   3.237   5.132  17.999  0.2447  0.8079  1.1675
 4739TIP3    H238413   3.103   5.201  18.009 -0.8472 -0.6356 -2.1533
 4740TIP3   OH238414   3.248   4.443  17.385 -0.1376  0.2693  0.1018
 4740TIP3    H138415   3.298   4.522  17.364 -0.7704  0.8863  0.8748
 4740TIP3    H238416   3.230   4.403  17.300 -0.2576  1.2409 -0.3441
 4741TIP3   OH238417   5.987   2.093  17.738  0.4137  0.5570 -0.4584
 4741TIP3    H138418   6.042   2.015  17.740  1.4722  1.2380 -1.4841
 4741TIP3    H238419   6.029   2.153  17.800 -0.3557  0.3545  0.2752
 4742TIP3   OH238420   3.407   0.025  17.895  0.7322  0.0899  0.0405
 4742TIP3    H138421   3.381  -0.063  17.867 -0.6091  0.6281 -0.4749
 4742TIP3    H238422   3.376   0.083  17.825  2.0783  0.9408  0.0990
 4743TIP3   OH238423   0.886   0.037  18.673  0.0267 -0.3638 -0.3470
 4743TIP3    H138424   0.862   0.128  18.694  0.2969  0.1791 -2.2369
 4743TIP3    H238425   0.946   0.045  18.599  0.3543 -2.0836 -0.2952
 4744TIP3   OH238426   5.071   3.495  18.033  0.4981 -0.3968 -0.4324
 4744TIP3    H138427   5.024   3.555  18.091 -1.9750 -1.3689 -1.2794
 4744TIP3    H238428   5.090   3.548  17.955 -0.9180 -0.4375 -0.8346
 4745TIP3   OH238429   5.719   0.262  18.804 -0.7407 -0.0153 -0.2858
 4745TIP3    H138430   5.778   0.330  18.773 -0.5136 -0.6744 -1.3189
 4745TIP3    H238431   5.773   0.207  18.860 -1.0184  0.8500  0.8798
 4746TIP3   OH238432   3.718   5.670  15.892 -0.1304 -0.2153 -0.0065
 4746TIP3    H138433   3.740   5.731  15.822 -1.3370  0.6814  0.3682
 4746TIP3    H238434   3.625   5.684  15.908  0.0573 -0.6094  1.5868
 4747TIP3   OH238435   2.867   0.406  16.489  0.4442 -0.2340  0.4598
 4747TIP3    H138436   2.895   0.397  16.398  1.4346 -0.2029  0.7532
 4747TIP3    H238437   2.839   0.317  16.514 -0.6566 -0.0775 -0.1164
 4748TIP3   OH238438   4.272   2.059  16.076 -0.3600 -0.4383 -0.2151
 4748TIP3    H138439   4.199   2.029  16.022  0.1036 -0.1095 -1.0396
 4748TIP3    H238440   4.341   1.994  16.062  0.3714  0.5470 -1.3954
 4749TIP3   OH238441   2.121   0.578  17.083 -0.0067 -0.2914 -0.1707
 4749TIP3    H138442   2.106   0.632  17.005  0.0827 -1.2589 -0.8885
 4749TIP3    H238443   2.207   0.539  17.068 -0.1824 -0.8266  0.2056
 4750TIP3   OH238444   1.492   5.735  16.931 -0.5792 -0.7707 -1.1466
 4750TIP3    H138445   1.504   5.788  16.852  0.3044  1.6385  0.4838
 4750TIP3    H238446   1.575   5.688  16.940  0.4792  1.1600 -0.1930
 4751TIP3   OH238447   4.937   4.674  18.710 -0.3243 -0.1446  0.0235
 4751TIP3    H138448   4.968   4.707  18.626  0.2010 -1.3544 -0.2746
 4751TIP3    H238449   4.975   4.733  18.775 -0.8898  0.9156 -0.5758
 4752TIP3   OH238450   0.216   2.759  17.079 -0.6762 -0.6293  0.5582
 4752TIP3    H138451   0.275   2.742  17.153 -1.2255 -2.1084  0.6973
 4752TIP3    H238452   0.265   2.819  17.023  0.3942 -0.7155  1.3545
 4753TIP3   OH238453   3.712   5.571  19.168 -0.2504 -0.8000  0.2811
 4753TIP3    H138454   3.663   5.490  19.158  0.9013 -1.3206 -1.6455
 4753TIP3    H238455   3.666   5.634  19.113  0.8793 -1.1673 -1.1552
 4754TIP3   OH238456   3.288   5.107  16.707  0.5232 -0.1979  0.5424
 4754TIP3    H138457   3.370   5.085  16.750 -0.5294 -2.7544  1.4611
 4754TIP3    H238458   3.311   5.121  16.615  1.8838 -1.7235  0.6116
 4755TIP3   OH238459   5.203   2.037  19.114  0.0555  0.5610  0.1842
 4755TIP3    H138460   5.260   2.001  19.046 -1.5680  0.0857 -0.9884
 4755TIP3    H238461   5.239   2.123  19.132 -0.3836  1.4014 -2.5000
 4756TIP3   OH238462   3.831   0.881  17.794 -0.2621  0.3668  0.0090
 4756TIP3    H138463   3.793   0.850  17.876 -0.5282 -2.3185 -1.0450
 4756TIP3    H238464   3.780   0.959  17.772 -1.9492 -0.3824  1.0713
 4757TIP3   OH238465   4.639   4.114  19.278 -0.2806  0.6192 -0.2226
 4757TIP3    H138466   4.653   4.086  19.369  2.3996 -1.1062 -1.0684
 4757TIP3    H238467   4.660   4.207  19.279 -0.1226  0.5943  0.8881
 4758TIP3   OH238468   2.459   5.501  17.535  0.1594 -0.1130 -0.2902
 4758TIP3    H138469   2.432   5.510  17.444 -1.9122 -0.8068  0.1933
 4758TIP3    H238470   2.429   5.582  17.577  0.8310  0.0746 -0.1645
 4759TIP3   OH238471   4.396   0.876  15.388  0.3200  0.5856  0.3335
 4759TIP3    H138472   4.491   0.875  15.386  0.3537  2.1597 -0.7067
 4759TIP3    H238473   4.373   0.919  15.470  0.5449  1.1009  0.1322
 4760TIP3   OH238474   2.832   1.823  18.997 -0.1103  0.0586  0.3479
 4760TIP3    H138475   2.848   1.806  18.904  0.0926 -0.2259  0.4355
 4760TIP3    H238476   2.916   1.851  19.032 -0.0704 -0.3184  0.5559
 4761TIP3   OH238477   5.906   5.685  19.022  0.4553  0.4035  0.6695
 4761TIP3    H138478   5.930   5.607  18.972 -0.9653  1.2279 -1.4701
 4761TIP3    H238479   5.911   5.757  18.959 -2.3423  1.3736  1.3728
 4762TIP3   OH238480   2.773   1.581  17.531 -0.6004  0.0224 -0.3676
 4762TIP3    H138481   2.835   1.526  17.578 -1.0733 -0.8182 -0.6990
 4762TIP3    H238482   2.787   1.669  17.566  1.5052  0.0788 -1.1620
 4763TIP3   OH238483   3.266   6.424  17.527  0.3661  0.0779  0.4468
 4763TIP3    H138484   3.297   6.515  17.527 -0.8977  0.5559 -0.9183
 4763TIP3    H238485   3.205   6.419  17.600  0.2722  0.4028  0.3931
 4764TIP3   OH238486   4.857   5.278  19.067  1.2308  0.2385  0.0119
 4764TIP3    H138487   4.768   5.294  19.036  0.6103 -0.0788  1.5101
 4764TIP3    H238488   4.851   5.197  19.117  3.0241 -1.4271 -2.2956
 4765TIP3   OH238489   0.556   6.532  17.660 -0.8852 -0.2907  0.2176
 4765TIP3    H138490   0.592   6.555  17.746 -0.9299  1.5336 -0.2144
 4765TIP3    H238491   0.619   6.568  17.598 -1.4471 -0.5870 -0.5321
 4766TIP3   OH238492   5.962   3.243  18.871  0.3827  0.0172 -0.0788
 4766TIP3    H138493   6.015   3.306  18.822  1.4478 -0.9267 -0.2075
 4766TIP3    H238494   5.958   3.279  18.960  1.5807 -0.0479  0.0271
 4767TIP3   OH238495   6.624   2.959  18.557 -0.2401 -0.0574 -0.6159
 4767TIP3    H138496   6.535   2.944  18.524 -0.6752  0.5142  0.2538
 4767TIP3    H238497   6.628   2.909  18.638  0.5003 -0.6835 -1.0195
 4768TIP3   OH238498   3.061   5.263  16.713  0.0784 -0.3057 -0.2554
 4768TIP3    H138499   3.145   5.217  16.713  1.3501  1.8778 -0.4757
 4768TIP3    H238500   3.023   5.241  16.798  2.5981  1.4827  1.4970
 4769TIP3   OH238501   3.656   3.228  17.661 -0.4661 -0.2963 -0.5738
 4769TIP3    H138502   3.702   3.302  17.700 -0.3695 -1.1976  1.1056
 4769TIP3    H238503   3.566   3.235  17.694 -0.6749 -0.4519 -1.0952
 4770TIP3   OH238504   3.002   4.910  17.044  0.0494 -0.3187  0.2028
 4770TIP3    H138505   3.095   4.893  17.059  0.4082  1.8203  0.6511
 4770TIP3    H238506   2.983   4.865  16.961  1.7374  0.0673 -0.4349
 4771TIP3   OH238507   2.866   3.070  18.026  0.7035 -0.6668 -0.0663
 4771TIP3    H138508   2.782   3.043  18.062  0.7825  0.0526  0.6728
 4771TIP3    H238509   2.915   2.989  18.014 -0.3953 -1.1811 -1.3091
 4772TIP3   OH238510   5.230   1.548  16.112 -0.2889 -0.5275  0.2567
 4772TIP3    H138511   5.225   1.486  16.185  0.3877 -0.8139  0.0679
 4772TIP3    H238512   5.156   1.608  16.126 -0.1932 -0.6082  1.1490
 4773TIP3   OH238513   6.248   2.147  17.825 -0.1766  0.6222 -0.2635
 4773TIP3    H138514   6.274   2.217  17.764 -1.3932 -0.2906 -1.9320
 4773TIP3    H238515   6.245   2.189  17.910  0.6852  2.2065 -0.9755
 4774TIP3   OH238516   1.723   4.073  18.119  0.1095 -0.1735  0.6122
 4774TIP3    H138517   1.670   4.152  18.129 -0.7060 -0.5062 -0.8271
 4774TIP3    H238518   1.660   4.001  18.125  0.6372 -0.6476  0.4913
 4775TIP3   OH238519   2.070   6.694  16.785 -0.1298 -0.2282  0.4653
 4775TIP3    H138520   2.090   6.602  16.768 -1.1884 -0.7715  1.9366
 4775TIP3    H238521   2.127   6.718  16.858 -0.2020  0.1338  0.4062
 4776TIP3   OH238522   4.026   5.961  18.788  0.3186 -0.1697 -0.4044
 4776TIP3    H138523   3.992   6.047  18.764 -1.1321 -0.3128  0.9152
 4776TIP3    H238524   4.119   5.975  18.806  0.2225  1.0038 -0.7656
 4777TIP3   OH238525   0.817   0.288  18.862  0.1716  0.0077  0.2705
 4777TIP3    H138526   0.812   0.356  18.794  0.5826 -0.2807 -0.0496
 4777TIP3    H238527   0.861   0.331  18.935  2.5644 -0.5401 -0.7511
 4778TIP3   OH238528   1.825   6.625  16.656  0.4182  0.5136 -0.0905
 4778TIP3    H138529   1.896   6.647  16.716  0.6999  2.3430 -1.0135
 4778TIP3    H238530   1.746   6.637  16.708  0.7285 -0.7278  0.7078
 4779TIP3   OH238531   1.759   2.039  16.716  0.2457  0.3092  0.6582
 4779TIP3    H138532   1.732   2.055  16.806  0.2356  2.8834  0.2810
 4779TIP3    H238533   1.742   1.946  16.701 -0.7848  0.0805  2.9448
 4780TIP3   OH238534   5.485   6.062  18.911 -0.4444  0.3630 -0.2935
 4780TIP3    H138535   5.466   6.075  18.818 -0.7233 -1.0560 -0.4481
 4780TIP3    H238536   5.562   6.005  18.913  1.0569  2.2927  0.3637
 4781TIP3   OH238537   0.186   2.416  17.450  0.7353 -0.2335  0.4713
 4781TIP3    H138538   0.189   2.327  17.485  0.3079 -0.0453  0.9975
 4781TIP3    H238539   0.109   2.417  17.394  1.4518 -0.5522 -0.5611
 4782TIP3   OH238540   4.660   4.839  16.157  0.0758 -0.0173  0.1502
 4782TIP3    H138541   4.747   4.817  16.124  0.6541 -0.3527  1.8015
 4782TIP3    H238542   4.603   4.772  16.120  0.5466  0.0572 -0.7483
 4783TIP3   OH238543   6.713   4.176  17.522  0.5153 -0.7880 -0.5915
 4783TIP3    H138544   6.786   4.159  17.461  0.1233 -0.3738 -1.1822
 4783TIP3    H238545   6.647   4.111  17.498 -0.0848  0.0943 -1.3507
 4784TIP3   OH238546   1.990   0.613  17.680 -0.0250 -0.3687 -0.1636
 4784TIP3    H138547   2.007   0.657  17.763  1.1213 -1.3337  0.1385
 4784TIP3    H238548   1.920   0.665  17.639  0.2684  0.8488  0.8250
 4785TIP3   OH238549   1.846   0.172  18.921  0.6632  0.0719  0.1665
 4785TIP3    H138550   1.803   0.205  19.000  0.9947 -0.5966  0.6317
 4785TIP3    H238551   1.867   0.081  18.941  1.6239  0.1705 -0.3319
 4786TIP3   OH238552   3.708   3.062  19.732 -0.1265  0.1370 -0.4376
 4786TIP3    H138553   3.655   3.060  19.812  0.1458 -0.3416 -0.2689
 4786TIP3    H238554   3.643   3.057  19.661 -0.2928 -1.0196 -0.2267
 4787TIP3   OH238555   1.787   1.993  17.012 -0.0345  0.3997 -0.7011
 4787TIP3    H138556   1.775   1.982  17.106  1.7228 -2.6494 -0.7218
 4787TIP3    H238557   1.828   2.080  17.004 -0.2787  0.7586  1.3273
 4788TIP3   OH238558   1.318   4.320  18.138  0.4294  0.0110  0.0149
 4788TIP3    H138559   1.273   4.402  18.159  1.2806 -0.0153  2.2350
 4788TIP3    H238560   1.248   4.260  18.112 -0.3696  1.0183 -0.2184
 4789TIP3   OH238561   0.267   5.471  17.417 -1.0676 -0.4586 -0.1883
 4789TIP3    H138562   0.205   5.544  17.420 -0.6307 -0.1167  1.4379
 4789TIP3    H238563   0.293   5.466  17.325 -1.0782  1.4783 -0.3503
 4790TIP3   OH238564   0.443   3.140  17.364 -0.8574  0.0514  0.3927
 4790TIP3    H138565   0.402   3.145  17.451  0.2970  1.2092  0.9004
 4790TIP3    H238566   0.520   3.084  17.377 -0.4888  0.5096  0.1985
 4791TIP3   OH238567   2.303   5.467  18.718 -0.0253 -1.0072 -0.1711
 4791TIP3    H138568   2.382   5.414  18.712 -0.9601 -2.3864 -0.8450
 4791TIP3    H238569   2.311   5.530  18.646  1.6069  0.5760  1.2992
 4792TIP3   OH238570   4.676   0.904  16.199 -0.6744 -0.4920  0.3794
 4792TIP3    H138571   4.768   0.932  16.192 -0.1306 -2.4101 -1.0535
 4792TIP3    H238572   4.634   0.944  16.123 -0.5227 -1.2690 -0.1276
 4793TIP3   OH238573   2.321   4.322  16.941  0.1340  0.6380 -0.4907
 4793TIP3    H138574   2.253   4.363  16.994  0.6910  2.6153 -1.2063
 4793TIP3    H238575   2.400   4.373  16.960  0.8391 -0.0345 -1.5129
 4794TIP3   OH238576   1.818   6.122  16.540 -0.3343 -0.2840 -0.2540
 4794TIP3    H138577   1.764   6.049  16.571  0.6038  0.2016  2.9543
 4794TIP3    H238578   1.825   6.180  16.616  2.1847  1.1646 -1.4544
 4795TIP3   OH238579   5.902   0.186  18.997  0.4828 -0.3588 -0.1611
 4795TIP3    H138580   5.918   0.139  19.079  0.7121 -0.2507 -0.1438
 4795TIP3    H238581   5.884   0.276  19.025  0.9476 -0.2344 -0.2542
 4796TIP3   OH238582   0.642   4.110  17.344  0.0442  0.5459 -0.0104
 4796TIP3    H138583   0.672   4.024  17.372  0.3461  1.1999  1.7840
 4796TIP3    H238584   0.681   4.171  17.406  1.1073  2.1806 -2.1156
 4797TIP3   OH238585   0.259   2.303  18.811 -0.0517  0.5556  0.7800
 4797TIP3    H138586   0.348   2.274  18.790  0.1160  1.7629 -0.3105
 4797TIP3    H238587   0.211   2.296  18.728 -0.8879  0.2139  1.2840
 4798TIP3   OH238588   4.818   3.300  18.607  0.4333 -0.6633  0.0027
 4798TIP3    H138589   4.750   3.341  18.553  0.4598  0.0859  0.5268
 4798TIP3    H238590   4.873   3.373  18.636  1.2148 -1.2111 -0.0572
 4799TIP3   OH238591   2.776   4.933  18.096  0.0008 -0.4621 -0.3017
 4799TIP3    H138592   2.832   4.976  18.031  0.1090 -0.5747 -0.2860
 4799TIP3    H238593   2.831   4.863  18.131  0.2266  0.1028  0.4910
 4800TIP3   OH238594   4.817   4.256  16.064  0.0517 -0.0212 -0.2712
 4800TIP3    H138595   4.825   4.198  16.140  2.0597  1.4238  0.7025
 4800TIP3    H238596   4.742   4.312  16.085  1.5816  1.4765  1.5106
 4801TIP3   OH238597   2.691   4.565  17.926 -0.0466 -0.3359 -0.3748
 4801TIP3    H138598   2.647   4.492  17.970  1.0426 -0.0066  1.3256
 4801TIP3    H238599   2.745   4.522  17.859  1.3785 -1.2532  1.2734
 4802TIP3   OH238600   4.371   6.605  17.473 -0.3331  0.4939 -0.6287
 4802TIP3    H138601   4.426   6.580  17.548  0.8575  2.7762 -0.6502
 4802TIP3    H238602   4.287   6.629  17.513  0.5027  2.3597  0.1404
 4803TIP3   OH238603   3.315   2.461  16.161 -0.4192  0.6521 -0.2507
 4803TIP3    H138604   3.385   2.525  16.160 -0.2875  0.5137  0.0285
 4803TIP3    H238605   3.360   2.376  16.168 -0.5594  0.4851 -1.1618
 4804TIP3   OH238606   1.474   6.333  17.701  0.6465 -0.1888  0.1681
 4804TIP3    H138607   1.387   6.302  17.675 -0.1503  1.3197  0.9309
 4804TIP3    H238608   1.468   6.428  17.697  2.2715 -0.0595  0.2609
 4805TIP3   OH238609   2.075   2.067  19.366  0.0551 -0.1189 -0.5510
 4805TIP3    H138610   1.994   2.052  19.413  0.7394 -0.4556  0.5579
 4805TIP3    H238611   2.130   1.992  19.389  0.4304 -0.2711 -1.8605
 4806TIP3   OH238612   2.713   2.390  18.418  0.5158 -0.2890 -1.2861
 4806TIP3    H138613   2.786   2.356  18.470  2.8301  3.7116 -1.5010
 4806TIP3    H238614   2.728   2.356  18.330 -0.0864 -2.3837 -0.6458
 4807TIP3   OH238615   6.098   0.785  19.254  0.3494 -0.2502 -0.3356
 4807TIP3    H138616   6.057   0.698  19.250 -0.9164  0.3210 -0.1238
 4807TIP3    H238617   6.154   0.788  19.177  2.8979 -2.4253  1.2172
 4808TIP3   OH238618   2.424   6.527  18.229  0.2925  0.6299 -0.4291
 4808TIP3    H138619   2.422   6.534  18.324  2.4608  1.5522 -0.3873
 4808TIP3    H238620   2.465   6.442  18.212 -0.6464  0.1964 -0.5590
 4809TIP3   OH238621   4.439   3.537  18.673  0.3611 -0.1006 -0.4010
 4809TIP3    H138622   4.429   3.467  18.737 -0.4841 -0.5929 -1.0562
 4809TIP3    H238623   4.519   3.514  18.625  0.2933 -0.4171 -0.3648
 4810TIP3   OH238624   6.518   5.321  18.143  0.2660 -0.2055  0.0013
 4810TIP3    H138625   6.558   5.256  18.085 -0.2837 -0.2073 -0.3857
 4810TIP3    H238626   6.562   5.403  18.122 -2.3753  0.6280 -3.1446
 4811TIP3   OH238627   4.102   4.083  17.471  0.1724  0.1276  0.2751
 4811TIP3    H138628   4.155   4.004  17.455 -0.5453 -0.3752  0.3228
 4811TIP3    H238629   4.152   4.154  17.430  0.0927 -0.5803 -1.0976
 4812TIP3   OH238630   3.319   2.404  16.926 -0.4927 -0.9386 -0.8862
 4812TIP3    H138631   3.327   2.453  17.008 -1.4120  0.8468 -1.7970
 4812TIP3    H238632   3.227   2.376  16.924 -0.3904 -1.2499 -1.1459
 4813TIP3   OH238633   4.756   5.060  17.588 -0.4660  0.5963 -0.0547
 4813TIP3    H138634   4.820   5.026  17.651  2.7897  0.0239 -3.3319
 4813TIP3    H238635   4.682   5.000  17.594  1.0738 -1.3295  1.0173
 4814TIP3   OH238636   6.372   6.512  16.506  0.2301  0.0759 -0.0806
 4814TIP3    H138637   6.292   6.548  16.543 -0.0851  0.9132 -1.4733
 4814TIP3    H238638   6.428   6.493  16.581 -1.4174 -0.9253  0.9384
 4815TIP3   OH238639   3.354   1.569  18.531 -0.1859  0.2208 -0.1272
 4815TIP3    H138640   3.332   1.615  18.450 -2.1692 -0.1350  0.1568
 4815TIP3    H238641   3.395   1.487  18.502 -1.1874 -0.0553 -0.8200
 4816TIP3   OH238642   2.776   4.083  16.946 -0.2950  0.1380  0.0544
 4816TIP3    H138643   2.692   4.078  16.990  0.3497 -1.1975  1.2045
 4816TIP3    H238644   2.769   4.022  16.873  0.3974 -1.7687  1.5053
 4817TIP3   OH238645   4.305   5.021  17.203  0.1053  0.1098 -0.3895
 4817TIP3    H138646   4.316   5.102  17.153  1.2223 -0.1862 -0.6548
 4817TIP3    H238647   4.334   5.043  17.291 -1.8821  0.6365  0.1858
 4818TIP3   OH238648   6.041   3.897  19.313 -0.1272  0.3271 -0.1965
 4818TIP3    H138649   5.997   3.812  19.309 -0.5719  0.5410 -0.0212
 4818TIP3    H238650   6.100   3.897  19.239  1.0689 -0.7796  0.7096
 4819TIP3   OH238651   6.280   0.566  18.428 -0.1295  0.2833 -0.1715
 4819TIP3    H138652   6.288   0.658  18.452 -1.7288  0.2342  0.7688
 4819TIP3    H238653   6.222   0.566  18.352 -0.7735  0.0330  0.3053
 4820TIP3   OH238654   4.078   6.168  18.537 -0.2599 -0.0314 -0.5182
 4820TIP3    H138655   3.997   6.133  18.575  1.0185 -0.7298  1.7586
 4820TIP3    H238656   4.092   6.251  18.584  0.3824  0.0472 -0.8413
 4821TIP3   OH238657   5.207   4.507  16.299 -0.2108 -0.0428  0.4247
 4821TIP3    H138658   5.216   4.593  16.257  0.2476 -0.9675 -1.4809
 4821TIP3    H238659   5.294   4.489  16.335 -0.1101 -0.0091  0.2007
 4822TIP3   OH238660   6.275   2.770  17.197 -0.3493  0.0269  0.2758
 4822TIP3    H138661   6.294   2.858  17.163 -0.7858 -0.0823 -0.2537
 4822TIP3    H238662   6.344   2.755  17.262  0.4264  0.2931 -0.4700
 4823TIP3   OH238663   0.206   1.351  19.362  0.6651 -0.4950  0.3526
 4823TIP3    H138664   0.182   1.264  19.330 -0.6959  0.4148 -1.2389
 4823TIP3    H238665   0.298   1.343  19.389  0.5579 -2.4045  0.2565
 4824TIP3   OH238666   2.818   0.715  19.357 -0.0422  0.0197 -0.1523
 4824TIP3    H138667   2.791   0.771  19.284  0.0806 -0.3290 -0.4684
 4824TIP3    H238668   2.898   0.756  19.390 -1.1065  1.2769  1.0293
 4825TIP3   OH238669   6.380   2.885  16.484  0.0234  0.1468  0.0923
 4825TIP3    H138670   6.469   2.919  16.485 -0.4947  1.7025 -1.1986
 4825TIP3    H238671   6.383   2.811  16.424  0.3802  0.4437 -0.2608
 4826TIP3   OH238672   4.097   2.074  18.095  0.1651 -0.3035  0.1296
 4826TIP3    H138673   4.108   2.034  18.008 -2.7705 -1.6331  0.2393
 4826TIP3    H238674   4.047   2.154  18.078  0.9140  0.2495  0.4798
 4827TIP3   OH238675   5.731   2.819  18.052 -0.4673 -0.0400 -0.2748
 4827TIP3    H138676   5.792   2.831  18.124  0.6615 -0.6515 -1.1053
 4827TIP3    H238677   5.667   2.756  18.086 -0.3196  0.1551  0.3946
 4828TIP3   OH238678   0.802   1.829  16.638 -0.3674 -0.6931  0.1776
 4828TIP3    H138679   0.807   1.922  16.614 -0.3722 -0.9891 -0.9942
 4828TIP3    H238680   0.781   1.830  16.732  0.4673  0.4926  0.3820
 4829TIP3   OH238681   4.903   0.142  17.584 -0.2353 -0.3416  0.1009
 4829TIP3    H138682   4.865   0.179  17.665 -0.5216  0.0149 -0.1905
 4829TIP3    H238683   4.831   0.091  17.546 -0.4367  0.3323 -0.4503
 4830TIP3   OH238684   6.444   5.440  18.514 -0.5365  0.2817 -0.2963
 4830TIP3    H138685   6.409   5.491  18.441 -1.7145  0.7004  0.5317
 4830TIP3    H238686   6.490   5.505  18.568 -1.6143  0.3973  0.5032
 4831TIP3   OH238687   5.611   2.818  19.087  0.0999 -0.1614 -0.0976
 4831TIP3    H138688   5.682   2.827  19.150 -0.0043  1.6952 -0.1781
 4831TIP3    H238689   5.647   2.854  19.006 -0.0190 -1.8355 -0.9350
 4832TIP3   OH238690   5.260   3.515  16.760 -0.0906 -0.1682  0.3983
 4832TIP3    H138691   5.274   3.579  16.829 -0.2838  1.1630 -0.7439
 4832TIP3    H238692   5.333   3.528  16.700  0.1099 -1.3411  0.3680
 4833TIP3   OH238693   4.468   3.414  17.207  0.2003 -0.1006 -0.0882
 4833TIP3    H138694   4.429   3.328  17.221 -0.2532  0.3973  2.1129
 4833TIP3    H238695   4.536   3.399  17.142 -2.3670 -1.3563 -2.7191
 4834TIP3   OH238696   6.013   4.495  16.477  0.1235  0.0490 -0.9509
 4834TIP3    H138697   5.969   4.468  16.558  2.1024  0.4913  0.3410
 4834TIP3    H238698   5.964   4.571  16.447  0.7677  1.4118  1.2366
 4835TIP3   OH238699   1.624   2.856  17.638  0.3544 -0.0133 -0.8259
 4835TIP3    H138700   1.566   2.883  17.566 -2.4117 -2.8193  0.0867
 4835TIP3    H238701   1.616   2.760  17.639  0.1884 -0.1224  3.1902
 4836TIP3   OH238702   3.365   3.175  18.865  0.2873  0.1609 -0.3162
 4836TIP3    H138703   3.335   3.258  18.901  1.0105  0.8641 -1.2957
 4836TIP3    H238704   3.347   3.111  18.935 -2.0089  0.7875 -0.2507
 4837TIP3   OH238705   3.588   4.190  17.935  0.1159 -0.3651  0.3322
 4837TIP3    H138706   3.545   4.104  17.934 -0.9820  0.1259  1.9867
 4837TIP3    H238707   3.525   4.249  17.893 -0.5343  0.1961  2.0117
 4838TIP3   OH238708   0.277   5.202  17.077  0.8162  0.7475 -0.3720
 4838TIP3    H138709   0.291   5.296  17.068  0.9468  0.9785  1.7905
 4838TIP3    H238710   0.346   5.173  17.136 -0.7033 -0.2399  1.0001
 4839TIP3   OH238711   2.714   5.747  18.098  0.2838  0.1072  0.3962
 4839TIP3    H138712   2.716   5.718  18.007 -1.9819  2.4642 -0.5245
 4839TIP3    H238713   2.787   5.701  18.140 -0.1724 -3.0784 -1.9471
 4840TIP3   OH238714   4.985   2.638  19.290  0.3393 -1.1145  0.3380
 4840TIP3    H138715   4.906   2.675  19.327  0.3201 -1.1769  0.3583
 4840TIP3    H238716   4.983   2.665  19.198 -0.2753 -2.0432  0.0575
 4841TIP3   OH238717   2.427   6.414  18.488  0.1040 -0.0876 -0.1944
 4841TIP3    H138718   2.361   6.358  18.446 -1.0778 -0.2596  1.7913
 4841TIP3    H238719   2.503   6.357  18.499 -0.7041 -1.0074  0.7910
 4842TIP3   OH238720   1.916   5.818  19.252  0.4359 -0.4709 -0.5525
 4842TIP3    H138721   1.854   5.883  19.287 -1.0377 -2.9387  1.8633
 4842TIP3    H238722   1.860   5.745  19.224  2.0767 -3.0036  2.1663
 4843TIP3   OH238723   2.113   5.253  16.085  0.3868 -0.6263  0.3618
 4843TIP3    H138724   2.112   5.172  16.034 -0.5116  1.0986 -2.6031
 4843TIP3    H238725   2.192   5.299  16.058 -0.9705  1.0996 -0.9056
 4844TIP3   OH238726   2.478   4.310  17.219 -0.0010  0.3890 -0.0188
 4844TIP3    H138727   2.494   4.306  17.125 -2.0455 -1.3205 -0.3659
 4844TIP3    H238728   2.391   4.271  17.230 -0.5639  2.1242  2.4094
 4845TIP3   OH238729   3.565   6.741  17.524 -0.3391 -0.0249 -0.0619
 4845TIP3    H138730   3.486   6.699  17.491 -1.3499  2.6562 -1.2982
 4845TIP3    H238731   3.539   6.832  17.540  2.0382  0.5026  1.2612
 4846TIP3   OH238732   0.367   5.932  18.669  0.1663  0.2459 -0.6038
 4846TIP3    H138733   0.403   6.009  18.625 -1.6113 -0.0699 -2.7885
 4846TIP3    H238734   0.293   5.966  18.719 -0.3258  0.0469 -1.1858
 4847TIP3   OH238735   0.804   2.328  17.801 -0.3871 -0.1275  0.5247
 4847TIP3    H138736   0.777   2.272  17.874  1.1918 -1.8136 -0.0712
 4847TIP3    H238737   0.805   2.269  17.725 -1.0193  1.3356 -0.6601
 4848TIP3   OH238738   6.586   5.485  17.501  0.3286 -0.5686 -0.4043
 4848TIP3    H138739   6.531   5.459  17.575  1.2537  0.7200  0.7994
 4848TIP3    H238740   6.632   5.405  17.477  1.6329 -0.5984  1.8861
 4849TIP3   OH238741   4.238   3.910  17.927 -0.5078  0.0429  0.2021
 4849TIP3    H138742   4.207   3.981  17.870 -0.0432 -1.3555 -1.8808
 4849TIP3    H238743   4.183   3.835  17.904  0.6983 -0.9625  0.4970
 4850TIP3   OH238744   6.289   1.145  16.208 -0.3412  0.5312 -0.2581
 4850TIP3    H138745   6.282   1.217  16.271 -0.0758  0.1679  0.1913
 4850TIP3    H238746   6.344   1.180  16.137 -1.2136  1.1780 -0.6389
 4851TIP3   OH238747   3.479   6.149  16.663 -0.5902  0.3635 -0.4580
 4851TIP3    H138748   3.557   6.155  16.608  1.5026 -0.5224  2.2351
 4851TIP3    H238749   3.474   6.234  16.707 -0.5251  0.0652  0.1327
 4852TIP3   OH238750   3.010   0.888  16.318  0.1243  0.4395 -0.3972
 4852TIP3    H138751   3.055   0.973  16.321 -0.4847  0.7559 -0.0405
 4852TIP3    H238752   3.038   0.843  16.397  3.2682 -1.1971 -2.2208
 4853TIP3   OH238753   5.540   4.330  18.019 -0.5089 -0.2944 -0.1643
 4853TIP3    H138754   5.526   4.400  17.955 -0.1004  0.4118  0.5080
 4853TIP3    H238755   5.636   4.321  18.024 -0.5213 -0.0805  0.6133
 4854TIP3   OH238756   6.262   0.606  16.989 -0.1453 -0.0823  0.5414
 4854TIP3    H138757   6.279   0.512  16.990 -0.5903 -0.1675  0.2046
 4854TIP3    H238758   6.167   0.614  16.989 -0.1149  0.3542 -0.1710
 4855TIP3   OH238759   1.148   2.534  18.245 -0.4070 -0.0503  0.1278
 4855TIP3    H138760   1.181   2.445  18.250 -0.8874 -0.2911 -0.7257
 4855TIP3    H238761   1.109   2.540  18.158  0.0717  1.1490 -0.0221
 4856TIP3   OH238762   3.131   5.675  18.116  0.4790 -0.2665  0.3701
 4856TIP3    H138763   3.135   5.740  18.046  0.6405  0.3441  0.9346
 4856TIP3    H238764   3.222   5.654  18.134  0.4066 -1.4150 -0.4902
 4857TIP3   OH238765   5.187   5.933  17.122  0.6840  0.2035 -0.5981
 4857TIP3    H138766   5.122   5.917  17.054  0.8734  1.3677 -1.0697
 4857TIP3    H238767   5.221   5.846  17.143 -1.0671 -0.4568 -0.2689
 4858TIP3   OH238768   4.499   1.808  15.934  0.0394  0.1151  0.4554
 4858TIP3    H138769   4.512   1.862  16.012  1.4307 -1.0100  1.0513
 4858TIP3    H238770   4.515   1.718  15.964 -1.4668 -0.5731 -0.6765
 4859TIP3   OH238771   3.211   6.738  18.138 -0.4980 -0.4518 -0.0818
 4859TIP3    H138772   3.214   6.645  18.155 -1.3158 -0.7189 -1.2050
 4859TIP3    H238773   3.302   6.767  18.141  0.5459 -2.3207 -4.7291
 4860TIP3   OH238774   2.574   0.602  17.342 -0.0767  0.0300  0.3251
 4860TIP3    H138775   2.562   0.559  17.427 -0.3427  0.1998  0.3746
 4860TIP3    H238776   2.544   0.691  17.356 -2.2900 -0.5233 -0.5512
 4861TIP3   OH238777   1.320   4.467  16.672  0.0613 -0.2826 -0.0989
 4861TIP3    H138778   1.320   4.373  16.653  1.7711 -0.5866  1.0976
 4861TIP3    H238779   1.246   4.480  16.732  1.1489 -1.3471  1.5682
 4862TIP3   OH238780   5.506   3.459  19.078  0.5939  0.3721 -0.6487
 4862TIP3    H138781   5.533   3.542  19.039  1.9113 -0.1016 -0.7863
 4862TIP3    H238782   5.488   3.402  19.003  0.5851  0.2515 -0.5553
 4863TIP3   OH238783   1.560   0.481  18.534  0.1274 -0.3772  0.9272
 4863TIP3    H138784   1.560   0.486  18.630 -1.8032  1.2486  0.9021
 4863TIP3    H238785   1.503   0.553  18.506  0.4446 -0.9699 -1.4455
 4864TIP3   OH238786   1.233   6.504  16.833 -0.3976  0.6388 -0.0180
 4864TIP3    H138787   1.197   6.537  16.915 -0.4275 -1.8553  1.0643
 4864TIP3    H238788   1.157   6.487  16.778 -0.6571 -0.6580  0.6864
 4865TIP3   OH238789   1.498   4.605  18.574 -0.2251 -0.0883  0.1357
 4865TIP3    H138790   1.555   4.662  18.625  1.7137 -1.0140 -0.8871
 4865TIP3    H238791   1.523   4.620  18.483 -1.1732 -0.9767 -0.2962
 4866TIP3   OH238792   6.217   5.295  16.815  0.1091  0.2202  0.1032
 4866TIP3    H138793   6.187   5.225  16.873 -0.1955 -0.3392 -0.7111
 4866TIP3    H238794   6.269   5.352  16.871  2.9284 -2.2333  0.2529
 4867TIP3   OH238795   1.345   0.395  18.983  0.1953  0.0658 -0.9098
 4867TIP3    H138796   1.298   0.478  18.986 -1.7048 -1.0064  1.2807
 4867TIP3    H238797   1.385   0.386  19.069 -0.3951 -1.6895 -0.7788
 4868TIP3   OH238798   6.269   6.414  16.798  0.2247  0.3003 -0.5182
 4868TIP3    H138799   6.206   6.430  16.868  0.2388 -0.4265 -0.3398
 4868TIP3    H238800   6.245   6.329  16.762  0.4104  0.5251 -1.1986
 4869TIP3   OH238801   2.591   2.560  17.285 -0.6065  0.5591  0.2277
 4869TIP3    H138802   2.609   2.557  17.191  0.8063 -0.0278  0.4888
 4869TIP3    H238803   2.648   2.629  17.318  1.0955 -1.1428  1.0482
 4870TIP3   OH238804   0.580   3.592  18.688  0.6266  0.0070 -0.3536
 4870TIP3    H138805   0.533   3.658  18.638  2.2739  0.7447 -0.9894
 4870TIP3    H238806   0.672   3.616  18.680  1.1898 -1.7581  0.2967
 4871TIP3   OH238807   0.652   4.678  18.083  0.0684  0.1001 -0.2584
 4871TIP3    H138808   0.639   4.659  18.176 -0.6592 -0.6338 -0.5089
 4871TIP3    H238809   0.588   4.746  18.063 -0.6562 -0.6425 -0.5169
 4872TIP3   OH238810   2.039   2.128  19.112  0.6009  0.0094  0.4936
 4872TIP3    H138811   2.078   2.124  19.199 -0.9599  0.5392  1.2457
 4872TIP3    H238812   1.965   2.068  19.116  1.2918 -1.0110 -0.9155
 4873TIP3   OH238813   0.232   2.529  18.410 -0.5995  0.4944 -0.0335
 4873TIP3    H138814   0.187   2.458  18.364 -2.5453  1.7126 -0.1433
 4873TIP3    H238815   0.276   2.579  18.341  3.0350 -1.9188  0.2457
 4874TIP3   OH238816   1.313   1.985  18.349 -0.1502 -0.0870  0.4346
 4874TIP3    H138817   1.282   2.024  18.431 -0.3951  0.4045  0.1139
 4874TIP3    H238818   1.395   2.031  18.330  1.3368 -1.9845  1.7432
 4875TIP3   OH238819   4.176   4.036  18.466 -0.1652  0.1049 -0.3328
 4875TIP3    H138820   4.095   4.077  18.494  0.5056 -0.3841  2.6358
 4875TIP3    H238821   4.221   4.104  18.416 -0.6362  1.8131  1.4283
 4876TIP3   OH238822   1.161   3.120  18.164 -0.7240  0.2583 -0.4516
 4876TIP3    H138823   1.102   3.051  18.193 -0.2717 -0.0987 -0.3721
 4876TIP3    H238824   1.209   3.146  18.243  1.0052 -1.1924 -0.9514
 4877TIP3   OH238825   3.971   1.007  18.271  0.1906  0.0157  0.2703
 4877TIP3    H138826   3.951   0.925  18.224  0.0674  0.5069 -0.5567
 4877TIP3    H238827   4.044   1.045  18.223  0.8341 -0.0347  1.1905
 4878TIP3   OH238828   0.933   4.653  18.007 -0.6801 -0.5699 -0.7392
 4878TIP3    H138829   0.849   4.688  18.035 -0.9984 -1.0479 -1.0707
 4878TIP3    H238830   0.928   4.560  18.028  0.9163 -0.1527  1.9744
 4879TIP3   OH238831   3.234   2.961  18.645 -0.0047  0.0381 -0.4568
 4879TIP3    H138832   3.315   2.915  18.666  1.0683  1.6416 -0.8742
 4879TIP3    H238833   3.216   3.015  18.722 -0.3142  0.1666 -0.6167
 4880TIP3   OH238834   5.757   3.373  17.943  0.5434  0.1063  0.4565
 4880TIP3    H138835   5.838   3.330  17.970 -0.0422 -1.6291 -0.4086
 4880TIP3    H238836   5.701   3.302  17.911  0.0401  1.6083 -2.3745
 4881TIP3   OH238837   0.594   3.250  17.142  0.8636 -0.1585  0.1428
 4881TIP3    H138838   0.674   3.202  17.163  1.8321  1.1920 -0.3332
 4881TIP3    H238839   0.524   3.200  17.185  1.9034 -1.5393  0.3124
 4882TIP3   OH238840   3.160   0.205  18.757 -0.9895 -0.7088  0.1152
 4882TIP3    H138841   3.198   0.259  18.688 -2.3184 -1.2119 -1.0728
 4882TIP3    H238842   3.075   0.246  18.775 -0.6386 -0.5392  1.5419
 4883TIP3   OH238843   2.355   5.790  16.116  1.1094  0.2692  0.5723
 4883TIP3    H138844   2.411   5.839  16.176  1.3797  2.3654 -1.2421
 4883TIP3    H238845   2.284   5.852  16.094  0.2241 -0.9465 -0.1445
 4884TIP3   OH238846   4.852   0.217  16.584  0.2375  0.6508  0.0676
 4884TIP3    H138847   4.760   0.191  16.583  0.2065  0.7665 -1.4358
 4884TIP3    H238848   4.875   0.219  16.677 -0.7259 -1.2803  0.3917
 4885TIP3   OH238849   4.570   1.741  15.684 -0.0625 -0.0392  0.6490
 4885TIP3    H138850   4.558   1.712  15.774 -1.5115  2.7638  1.5051
 4885TIP3    H238851   4.494   1.797  15.667 -2.2907 -3.7956 -3.9341
 4886TIP3   OH238852   4.362   0.030  18.138  0.2566 -0.5508  0.6372
 4886TIP3    H138853   4.321   0.097  18.083 -1.2011 -0.2667  1.9980
 4886TIP3    H238854   4.447   0.069  18.162 -0.4298  0.6973  1.1483
 4887TIP3   OH238855   5.562   3.997  16.526 -0.0263 -0.0105  0.2532
 4887TIP3    H138856   5.589   3.965  16.439  1.8096 -0.1957  0.8515
 4887TIP3    H238857   5.527   4.084  16.509 -0.9900 -0.5738 -0.8411
 4888TIP3   OH238858   5.930   4.125  18.555 -0.4722 -0.2925 -0.6499
 4888TIP3    H138859   5.890   4.054  18.506 -1.0971 -0.0323 -0.5167
 4888TIP3    H238860   5.968   4.182  18.488 -0.2411 -0.5800 -0.7684
 4889TIP3   OH238861   2.427   5.527  16.151  0.2097  0.1359  0.0744
 4889TIP3    H138862   2.426   5.615  16.115  1.3006 -0.4517 -1.5232
 4889TIP3    H238863   2.399   5.471  16.078 -0.8203 -0.8262  1.1633
 4890TIP3   OH238864   5.916   2.642  19.061 -0.6590 -0.6925 -0.4761
 4890TIP3    H138865   6.006   2.667  19.084 -0.5204 -0.9329 -0.7400
 4890TIP3    H238866   5.861   2.692  19.120 -0.3616 -0.2482 -0.5735
 4891TIP3   OH238867   3.980   4.854  18.742 -0.8211  0.3862  0.3716
 4891TIP3    H138868   3.900   4.816  18.706 -0.8398 -0.7303  1.4828
 4891TIP3    H238869   4.050   4.795  18.712 -0.7510 -0.1329  1.5038
 4892TIP3   OH238870   4.106   4.701  16.640 -0.6948 -0.2732  0.2740
 4892TIP3    H138871   4.093   4.741  16.726 -1.3297 -0.3782  0.2284
 4892TIP3    H238872   4.051   4.753  16.581 -0.9203 -0.7317  0.0788
 4893TIP3   OH238873   3.810   6.024  16.349 -0.5891  0.1286 -0.0990
 4893TIP3    H138874   3.873   6.006  16.278 -0.9548 -0.2977 -0.3214
 4893TIP3    H238875   3.857   6.000  16.429 -1.0424 -1.8630 -0.3791
 4894TIP3   OH238876   3.587   4.253  19.042  0.3478 -0.0844 -0.5788
 4894TIP3    H138877   3.551   4.221  18.959 -1.7012 -0.1081  0.2788
 4894TIP3    H238878   3.511   4.287  19.090  1.7323  1.5833  0.5690
 4895TIP3   OH238879   5.624   1.150  17.218 -0.1675  0.0800 -0.0236
 4895TIP3    H138880   5.673   1.216  17.267  0.6700 -0.3785 -0.2197
 4895TIP3    H238881   5.637   1.173  17.126 -3.2989  2.0697 -0.1214
 4896TIP3   OH238882   1.794   6.265  17.657 -0.6024  0.0714  0.5290
 4896TIP3    H138883   1.751   6.349  17.671  1.9572  1.8717 -1.4047
 4896TIP3    H238884   1.741   6.221  17.591  0.2442  2.1158 -1.6261
 4897TIP3   OH238885   6.355   0.821  17.825 -0.3910  0.2732  0.6043
 4897TIP3    H138886   6.259   0.820  17.824 -0.4087  1.0838 -0.2050
 4897TIP3    H238887   6.378   0.914  17.834  0.3209  0.1212  0.4434
 4898TIP3   OH238888   4.176   5.289  18.621  0.2051 -0.0328 -0.0780
 4898TIP3    H138889   4.192   5.236  18.699  1.4112 -0.6481 -0.7223
 4898TIP3    H238890   4.137   5.228  18.558  0.1327  0.2346 -0.2949
 4899TIP3   OH238891   4.884   4.613  16.094 -0.1842  0.6360 -0.3856
 4899TIP3    H138892   4.948   4.555  16.053  0.5431  0.6092  0.7643
 4899TIP3    H238893   4.920   4.701  16.083 -0.5988  0.7518 -0.8794
 4900TIP3   OH238894   6.644   2.081  18.402 -0.3464  0.1699  0.2420
 4900TIP3    H138895   6.608   1.997  18.431 -1.0570 -0.1079 -1.3294
 4900TIP3    H238896   6.713   2.101  18.466 -2.2512 -0.0081  2.4966
 4901TIP3   OH238897   2.805   1.330  18.309 -0.0168 -0.1238 -0.2374
 4901TIP3    H138898   2.777   1.413  18.349  1.0230  0.1461 -0.0539
 4901TIP3    H238899   2.724   1.293  18.275 -0.8099  0.0326  1.3665
 4902TIP3   OH238900   4.605   6.361  17.269 -0.4611  0.0881 -0.0911
 4902TIP3    H138901   4.515   6.330  17.281 -0.8325  0.8348 -0.9045
 4902TIP3    H238902   4.636   6.314  17.191  0.1444 -0.7688  0.6414
 4903TIP3   OH238903   5.045   5.100  17.291 -0.2099 -0.1063 -0.3863
 4903TIP3    H138904   5.135   5.120  17.267  0.3420  0.2133  1.7607
 4903TIP3    H238905   5.024   5.020  17.243  1.9733 -1.4178  0.6921
 4904TIP3   OH238906   0.728   3.461  19.208 -0.3912 -0.3609  0.2754
 4904TIP3    H138907   0.816   3.455  19.246  0.5279 -0.6828 -1.7776
 4904TIP3    H238908   0.675   3.403  19.262  0.9439 -1.1614  0.7873
 4905TIP3   OH238909   3.499   2.187  18.087 -0.1740  0.2849 -0.0953
 4905TIP3    H138910   3.550   2.239  18.149 -1.5488  0.8706  0.6093
 4905TIP3    H238911   3.438   2.138  18.142 -0.3226 -0.4530 -0.8995
 4906TIP3   OH238912   3.885   0.148  16.215  0.1734  0.2056 -0.0134
 4906TIP3    H138913   3.943   0.208  16.168  0.3472 -0.0563 -0.1401
 4906TIP3    H238914   3.876   0.073  16.156  2.5155 -1.3293  1.3931
 4907TIP3   OH238915   6.687   5.404  15.941 -0.3718 -0.0909 -0.6652
 4907TIP3    H138916   6.654   5.489  15.913 -0.2649 -0.1429 -0.9508
 4907TIP3    H238917   6.780   5.407  15.921 -0.1753  0.0818  0.1926
 4908TIP3   OH238918   0.263   4.528  16.301 -0.0013 -0.3160  0.5585
 4908TIP3    H138919   0.316   4.529  16.221  1.6386  1.1335  1.5953
 4908TIP3    H238920   0.173   4.528  16.270  0.5530  2.1988 -1.3358
 4909TIP3   OH238921   0.153   4.109  18.846 -0.6544  0.8352 -0.1983
 4909TIP3    H138922   0.215   4.076  18.780  1.2179  0.8129  1.4872
 4909TIP3    H238923   0.096   4.034  18.865  0.5005  0.0158  0.1260
 4910TIP3   OH238924   3.026   3.797  18.923 -0.1107  0.6125  0.2456
 4910TIP3    H138925   3.111   3.840  18.910 -0.2847  1.7511  2.3265
 4910TIP3    H238926   2.993   3.834  19.005 -1.6322 -1.4184  0.6424
 4911TIP3   OH238927   0.477   0.902  17.446  0.6943  0.3891  0.2634
 4911TIP3    H138928   0.435   0.831  17.493 -0.7874 -0.4300 -2.1282
 4911TIP3    H238929   0.480   0.974  17.509 -0.3625 -0.8872  1.8542
 4912TIP3   OH238930   2.264   0.972  18.212 -0.6644 -0.0733 -0.2195
 4912TIP3    H138931   2.296   0.916  18.283 -3.2054 -1.5528 -0.1278
 4912TIP3    H238932   2.214   1.040  18.257 -1.6616 -0.5874 -0.5218
 4913TIP3   OH238933   4.346   1.974  18.258  0.9855  0.2358 -0.1995
 4913TIP3    H138934   4.285   2.015  18.196  0.6423  1.1358  0.7193
 4913TIP3    H238935   4.368   1.890  18.217 -2.0903 -0.8470  0.1409
 4914TIP3   OH238936   6.395   3.917  17.417  0.5314  0.0208  0.3780
 4914TIP3    H138937   6.351   3.854  17.360  0.1937  1.1670 -0.6507
 4914TIP3    H238938   6.470   3.948  17.367  0.5653  0.6188  0.7877
 4915TIP3   OH238939   1.619   6.473  17.485 -0.0951  0.0152 -0.3559
 4915TIP3    H138940   1.656   6.388  17.463  1.2816  0.4621  0.1478
 4915TIP3    H238941   1.530   6.470  17.450 -0.1142 -1.6680 -0.2444
 4916TIP3   OH238942   2.529   3.987  18.618 -0.1211 -0.2778  0.3241
 4916TIP3    H138943   2.553   4.042  18.693 -0.8936 -1.4902  1.4929
 4916TIP3    H238944   2.540   3.897  18.650  1.7180 -0.8587 -1.7378
 4917TIP3   OH238945   6.740   5.745  17.697 -0.1705 -0.0143  0.1361
 4917TIP3    H138946   6.800   5.759  17.770 -0.3819 -0.5833  0.4207
 4917TIP3    H238947   6.669   5.692  17.733 -0.2742 -0.3040 -0.4846
 4918TIP3   OH238948   1.804   6.515  15.952  0.1223  0.6273  0.5422
 4918TIP3    H138949   1.799   6.549  16.042 -0.0634 -0.4067  0.9415
 4918TIP3    H238950   1.720   6.539  15.912 -0.7448 -0.8235  1.3789
 4919TIP3   OH238951   6.170   0.466  18.668 -0.1810 -0.7439 -0.5585
 4919TIP3    H138952   6.221   0.507  18.738  0.5101 -0.4839 -1.1977
 4919TIP3    H238953   6.192   0.516  18.590 -1.8793 -0.2608 -0.7523
 4920TIP3   OH238954   4.994   5.898  16.263 -0.4838  0.5694 -0.3752
 4920TIP3    H138955   4.940   5.863  16.192 -1.0694  1.8674 -0.6148
 4920TIP3    H238956   5.029   5.980  16.228  0.6701  0.3569  0.2199
 4921TIP3   OH238957   5.459   3.305  16.854  0.3184  0.2937 -0.4775
 4921TIP3    H138958   5.377   3.346  16.827 -0.4042 -0.2509  0.7918
 4921TIP3    H238959   5.518   3.378  16.872 -0.0327  0.7010 -0.9641
 4922TIP3   OH238960   5.137   5.950  16.476 -0.6310 -0.4454 -0.2772
 4922TIP3    H138961   5.200   6.002  16.426 -1.3284  1.6960  0.9356
 4922TIP3    H238962   5.061   5.943  16.419 -0.4840 -0.2081 -0.5044
 4923TIP3   OH238963   3.403   5.916  18.698  0.3083  0.5458  0.4499
 4923TIP3    H138964   3.469   5.888  18.634  1.2099  0.5244  1.3509
 4923TIP3    H238965   3.327   5.941  18.646  1.1160  0.7832 -0.6426
 4924TIP3   OH238966   5.237   0.177  15.836 -0.3551 -0.4392  0.0363
 4924TIP3    H138967   5.153   0.139  15.862  0.1707 -1.0009  1.0191
 4924TIP3    H238968   5.216   0.241  15.769 -1.4532 -1.3303 -0.4907
 4925TIP3   OH238969   5.826   3.590  18.485  0.0998 -0.5928 -0.2366
 4925TIP3    H138970   5.855   3.593  18.576 -1.8961 -1.0283  0.4559
 4925TIP3    H238971   5.749   3.647  18.483  0.8510  0.4423 -1.9733
 4926TIP3   OH238972   4.519   5.148  18.113 -0.5523  0.8881 -0.7892
 4926TIP3    H138973   4.556   5.191  18.191 -1.5758  1.1422 -0.4321
 4926TIP3    H238974   4.542   5.056  18.124 -0.1318  1.0216 -0.5114
 4927TIP3   OH238975   3.868   6.129  15.732  0.1782 -0.5478  0.2513
 4927TIP3    H138976   3.867   6.087  15.818 -0.7094  0.0089  0.5271
 4927TIP3    H238977   3.794   6.090  15.686  1.2775 -1.6265 -0.6735
 4928TIP3   OH238978   3.688   3.552  18.737 -0.1579 -0.0404 -0.2916
 4928TIP3    H138979   3.651   3.516  18.656 -0.3420  0.2898 -0.3577
 4928TIP3    H238980   3.775   3.513  18.744 -0.4502 -0.7001 -0.2242
 4929TIP3   OH238981   3.633   6.129  17.944 -0.5107 -1.1299  0.5166
 4929TIP3    H138982   3.626   6.098  17.854 -0.4701 -2.1591  0.8591
 4929TIP3    H238983   3.707   6.190  17.942  0.3985 -2.2189  0.1358
 4930TIP3   OH238984   5.833   2.678  18.643  0.6130  0.6780 -0.0949
 4930TIP3    H138985   5.792   2.764  18.643  2.3750  1.5744  0.4382
 4930TIP3    H238986   5.835   2.653  18.550 -0.6193  0.8205 -0.1809
 4931TIP3   OH238987   5.259   1.942  19.476 -0.0121 -0.6299  0.1931
 4931TIP3    H138988   5.304   2.022  19.502 -1.8271 -0.0517  1.7181
 4931TIP3    H238989   5.291   1.876  19.538 -1.1993 -0.2215  1.2706
 4932TIP3   OH238990   5.105   4.776  18.480  0.2208 -0.4608  0.0991
 4932TIP3    H138991   5.129   4.692  18.442 -1.9308 -1.1740  0.1673
 4932TIP3    H238992   5.149   4.777  18.566  1.0212 -1.0735 -0.2939
 4933TIP3   OH238993   5.570   3.233  17.532  0.1283  0.1750  0.1255
 4933TIP3    H138994   5.503   3.165  17.525  0.2264  0.0239  0.5989
 4933TIP3    H238995   5.521   3.315  17.538 -0.0643 -0.0150  1.5157
 4934TIP3   OH238996   5.509   2.575  17.443  0.0290  0.0644 -0.2663
 4934TIP3    H138997   5.584   2.625  17.476  1.0988  0.6041 -3.2293
 4934TIP3    H238998   5.494   2.508  17.509  1.2390  1.6978  1.8133
 4935TIP3   OH238999   3.011   6.485  17.351 -0.1104 -0.5526  0.6514
 4935TIP3    H139000   2.946   6.467  17.419  0.8801  1.1294  2.1244
 4935TIP3    H239001   3.083   6.424  17.370 -0.6083 -1.3744 -0.0581
 4936TIP3   OH239002   3.716   3.358  18.248  0.0345 -0.1965  0.0490
 4936TIP3    H139003   3.804   3.372  18.284  1.3098  2.5531 -3.5202
 4936TIP3    H239004   3.702   3.263  18.254  2.2219 -0.4826  2.6687
 4937TIP3   OH239005   2.441   1.959  18.395 -0.2066  0.3343  0.1435
 4937TIP3    H139006   2.513   1.985  18.453 -0.6355 -0.8876  1.2801
 4937TIP3    H239007   2.367   1.945  18.454 -0.1215 -2.9685 -0.3300
 4938TIP3   OH239008   6.285   6.011  16.311  0.0507 -0.0144  0.0789
 4938TIP3    H139009   6.238   6.090  16.287 -2.3063 -1.0070  1.0984
 4938TIP3    H239010   6.361   6.042  16.360 -0.7581  1.6196  0.3607
 4939TIP3   OH239011   3.174   6.627  15.872 -0.0484 -0.2631  0.3368
 4939TIP3    H139012   3.113   6.556  15.893 -0.7560 -0.1789 -1.2580
 4939TIP3    H239013   3.258   6.584  15.861 -0.8426 -1.2658 -2.6512
 4940TIP3   OH239014   1.376   4.309  17.842 -0.1047  0.3970  0.1567
 4940TIP3    H139015   1.348   4.293  17.752 -0.6957  1.7596  0.0785
 4940TIP3    H239016   1.312   4.264  17.896  0.4606 -0.7409 -0.0908
 4941TIP3   OH239017   0.700   3.216  19.613  0.6312 -0.0695 -0.1685
 4941TIP3    H139018   0.655   3.300  19.624  1.8521  0.6199 -0.3203
 4941TIP3    H239019   0.790   3.239  19.589  0.6001 -1.4263 -1.7977
 4942TIP3   OH239020   6.315   0.100  18.313  0.1546 -0.7169 -0.6571
 4942TIP3    H139021   6.246   0.034  18.303  0.1345 -1.0706  1.3834
 4942TIP3    H239022   6.386   0.069  18.257 -0.4468 -1.6600 -0.9212
 4943TIP3   OH239023   4.158   6.640  18.009 -0.4363 -0.0098  0.7289
 4943TIP3    H139024   4.069   6.668  18.030 -1.2010 -0.1504 -1.9679
 4943TIP3    H239025   4.213   6.688  18.072 -2.2174  2.2205  0.7381
 4944TIP3   OH239026   4.411   4.298  17.943 -0.7016 -0.5584 -0.7227
 4944TIP3    H139027   4.480   4.297  18.010 -0.6804 -0.0499 -0.7315
 4944TIP3    H239028   4.442   4.237  17.876  0.2248  0.4123 -1.2033
 4945TIP3   OH239029   6.517   6.463  17.067  0.0780 -0.1095  0.1762
 4945TIP3    H139030   6.485   6.507  16.988  0.8651  0.1760  0.0097
 4945TIP3    H239031   6.607   6.438  17.046  0.6320  0.8166  1.3009
 4946TIP3   OH239032   3.407   3.345  17.403 -0.2381 -0.0863  0.0626
 4946TIP3    H139033   3.475   3.377  17.344  0.9600  0.4322  1.6534
 4946TIP3    H239034   3.410   3.405  17.478 -0.9199 -1.3683  1.1692
 4947TIP3   OH239035   6.526   1.783  18.481 -0.2805 -0.6219 -0.4139
 4947TIP3    H139036   6.480   1.744  18.406 -1.8401 -0.5499  0.4465
 4947TIP3    H239037   6.499   1.729  18.556 -1.3260  1.1864  0.5744
 4948TIP3   OH239038   4.328   2.051  17.160  0.4579  0.2872 -0.2835
 4948TIP3    H139039   4.398   2.038  17.096  0.4280  0.9619 -0.4658
 4948TIP3    H239040   4.254   2.001  17.125  0.1257  1.4367 -1.3197
 4949TIP3   OH239041   6.544   0.669  18.232 -0.0700 -0.1910  0.2238
 4949TIP3    H139042   6.523   0.584  18.195  0.0368 -0.2291  0.2517
 4949TIP3    H239043   6.540   0.656  18.327 -0.6975 -0.0095  0.2305
 4950TIP3   OH239044   5.035   0.453  15.846 -0.1543  0.3292 -0.5742
 4950TIP3    H139045   5.050   0.444  15.752  0.6940  0.5028 -0.4636
 4950TIP3    H239046   5.021   0.547  15.859  1.4693  0.5723 -0.3110
 4951TIP3   OH239047   4.707   6.300  18.109 -0.5110 -0.2131 -0.7004
 4951TIP3    H139048   4.705   6.209  18.081  1.9393 -0.6312  0.2419
 4951TIP3    H239049   4.679   6.297  18.200 -1.1451  0.1069 -0.8775
 4952TIP3   OH239050   4.795   1.788  19.122 -0.4829 -0.2354  0.1523
 4952TIP3    H139051   4.838   1.867  19.155 -0.8728 -0.4376  1.1602
 4952TIP3    H239052   4.866   1.735  19.087  0.1375 -0.6144  1.8943
 4953TIP3   OH239053   0.598   3.109  19.127 -0.3838  0.0893 -0.1154
 4953TIP3    H139054   0.581   3.195  19.166  0.0311  0.9223 -1.6833
 4953TIP3    H239055   0.517   3.060  19.141  0.5065 -0.6152  3.9426
 4954TIP3   OH239056   2.829   1.970  18.258  0.1036  0.5639 -0.8378
 4954TIP3    H139057   2.770   1.977  18.183  0.3881  0.0047 -1.1205
 4954TIP3    H239058   2.892   2.041  18.246  2.7486 -1.9344 -3.4726
 4955TIP3   OH239059   4.604   6.679  18.856 -0.5749  0.0631  0.6544
 4955TIP3    H139060   4.596   6.774  18.864  1.6694  0.2711  0.9044
 4955TIP3    H239061   4.590   6.662  18.763  0.8948  0.8821  0.2569
 4956TIP3   OH239062   6.277   2.820  16.895 -0.0122 -0.2329  0.2183
 4956TIP3    H139063   6.202   2.818  16.956  0.1241 -0.8758  0.3751
 4956TIP3    H239064   6.273   2.906  16.855 -1.2433 -0.4994 -0.2743
 4957TIP3   OH239065   2.408   1.200  17.362  0.2537 -0.1524  0.1033
 4957TIP3    H139066   2.390   1.165  17.275  1.4541 -0.4665 -0.0394
 4957TIP3    H239067   2.464   1.133  17.403 -0.5510 -0.1577  1.2318
 4958TIP3   OH239068   0.568   5.372  17.610  0.3261 -0.1238  0.2395
 4958TIP3    H139069   0.583   5.417  17.527  0.8312 -0.4598  0.1458
 4958TIP3    H239070   0.601   5.433  17.676  3.0503 -1.1940 -0.0047
 4959TIP3   OH239071   1.004   1.453  17.692  0.0140  0.2136  0.7087
 4959TIP3    H139072   0.961   1.399  17.625 -0.2033  1.1482  0.0775
 4959TIP3    H239073   1.093   1.418  17.698 -0.4825 -1.0115  1.2111
 4960TIP3   OH239074   3.639   0.372  16.747 -0.2438 -0.3406  0.7129
 4960TIP3    H139075   3.725   0.415  16.752  0.3040 -1.1117 -1.1431
 4960TIP3    H239076   3.659   0.285  16.712 -1.8437 -0.3297 -0.2964
 4961TIP3   OH239077   2.230   1.627  17.481  0.1966  0.1995  0.2331
 4961TIP3    H139078   2.197   1.551  17.433  0.2570 -0.7724  1.6892
 4961TIP3    H239079   2.324   1.612  17.490  0.1545  0.2611  0.8337
 4962TIP3   OH239080   3.919   1.491  18.604  0.3146 -0.1295 -0.0789
 4962TIP3    H139081   3.904   1.580  18.635 -0.2248  0.5434 -2.1159
 4962TIP3    H239082   3.831   1.455  18.591  0.4926 -0.2445 -1.0989
 4963TIP3   OH239083   2.928   6.430  19.059 -0.1732  0.0075  0.0711
 4963TIP3    H139084   2.914   6.524  19.064 -0.7338 -0.0843  0.3624
 4963TIP3    H239085   2.974   6.416  18.977 -1.5374  0.3787 -0.7941
 4964TIP3   OH239086   3.781   1.294  17.183  0.0948 -0.0911  0.1981
 4964TIP3    H139087   3.717   1.292  17.253  0.8114  0.3380  0.8826
 4964TIP3    H239088   3.729   1.299  17.102 -0.7159  0.8660  0.7570
 4965TIP3   OH239089   1.790   1.581  18.050  0.2295 -0.4906 -0.2744
 4965TIP3    H139090   1.857   1.567  17.984  1.7987 -0.7439  1.3144
 4965TIP3    H239091   1.709   1.549  18.009  1.2613 -1.2632 -1.7988
 4966TIP3   OH239092   1.845   3.696  17.398 -0.5788  0.1497  0.0861
 4966TIP3    H139093   1.767   3.647  17.375 -0.7118  0.2768  0.2573
 4966TIP3    H239094   1.896   3.637  17.454 -1.2246  0.5539  1.1444
 4967TIP3   OH239095   0.264   5.440  18.412  0.5623  0.0330 -0.1654
 4967TIP3    H139096   0.171   5.422  18.426  0.4027  0.5843 -0.4691
 4967TIP3    H239097   0.291   5.377  18.345  1.1805 -2.1882  2.0483
 4968TIP3   OH239098   4.594   2.586  18.402 -0.3256 -0.6572  0.1567
 4968TIP3    H139099   4.581   2.679  18.387  1.2524 -0.4302  0.0111
 4968TIP3    H239100   4.507   2.552  18.424 -0.5729  1.2242  2.3313
 4969TIP3   OH239101   5.756   0.084  18.496 -0.1207  0.1825  0.1976
 4969TIP3    H139102   5.850   0.106  18.497 -0.2113  0.5872 -0.1240
 4969TIP3    H239103   5.718   0.139  18.564 -0.0682 -0.2567  0.5907
 4970TIP3   OH239104   0.889   2.610  18.707 -0.0438 -0.3193  0.2818
 4970TIP3    H139105   0.917   2.603  18.798 -0.0504  1.3013  0.4513
 4970TIP3    H239106   0.967   2.590  18.655 -0.0094 -1.1246  0.6365
 4971TIP3   OH239107   5.084   2.646  17.537 -0.6087 -0.3120  0.6497
 4971TIP3    H139108   5.032   2.718  17.571 -0.2096  0.0106  0.5800
 4971TIP3    H239109   5.174   2.678  17.537 -0.7375  0.4803 -2.5708
 4972TIP3   OH239110   1.623   5.070  18.230 -0.1604 -0.0664  0.1669
 4972TIP3    H139111   1.578   5.012  18.169 -1.0096  0.5128  0.2221
 4972TIP3    H239112   1.650   5.145  18.177 -0.4937  0.2241  0.3991
 4973TIP3   OH239113   1.844   5.324  16.998  0.6001 -0.0970 -0.1586
 4973TIP3    H139114   1.797   5.243  16.980  2.1528 -1.2145  0.5311
 4973TIP3    H239115   1.905   5.333  16.925  0.1884  0.6693 -0.4188
 4974TIP3   OH239116   5.755   5.770  17.437 -0.0757 -0.0455 -0.1489
 4974TIP3    H139117   5.753   5.681  17.472  0.7396 -0.4618 -1.1114
 4974TIP3    H239118   5.848   5.786  17.418 -0.4642  0.1745 -2.0512
 4975TIP3   OH239119   4.404   6.525  18.218  0.2515  0.1164  0.0728
 4975TIP3    H139120   4.399   6.618  18.195  2.7204  0.5940  1.1183
 4975TIP3    H239121   4.373   6.521  18.308 -2.6357 -0.6155 -0.8634
 4976TIP3   OH239122   1.398   4.725  17.164  0.2480  0.2226 -0.4118
 4976TIP3    H139123   1.460   4.653  17.155  0.0665  0.1569 -1.1774
 4976TIP3    H239124   1.447   4.802  17.135  0.1974  0.2820 -0.3403
 4977TIP3   OH239125   5.308   5.349  18.495 -0.2102  0.5921 -0.3946
 4977TIP3    H139126   5.212   5.350  18.503 -0.1700  0.8600  0.1251
 4977TIP3    H239127   5.339   5.385  18.579  0.3643 -0.1091 -0.3026
 4978TIP3   OH239128   6.396   4.335  17.284  0.3646 -0.4390 -0.3147
 4978TIP3    H139129   6.481   4.344  17.240  0.4514  2.5253  0.2564
 4978TIP3    H239130   6.376   4.423  17.315 -1.4634 -1.6679  2.3409
 4979TIP3   OH239131   1.228   5.676  17.488 -0.4806 -0.3433  0.0445
 4979TIP3    H139132   1.233   5.742  17.419 -5.2255 -0.6871 -0.9412
 4979TIP3    H239133   1.233   5.592  17.443  0.9395 -0.6873  0.7649
 4980TIP3   OH239134   2.700   4.080  19.283  0.1294 -0.0418  0.1705
 4980TIP3    H139135   2.674   4.104  19.372  1.1525  0.6857  0.2938
 4980TIP3    H239136   2.699   4.163  19.235  1.4202 -0.1112 -0.0107
 4981TIP3   OH239137   6.739   2.361  17.283  0.0626  0.7391  0.6618
 4981TIP3    H139138   6.693   2.424  17.228  0.6650  1.3264  0.8046
 4981TIP3    H239139   6.680   2.287  17.290 -0.3742  1.0052 -0.0800
 4982TIP3   OH239140   5.700   0.772  17.770  0.5783 -0.4518  0.5145
 4982TIP3    H139141   5.686   0.841  17.834  0.7651 -0.6124  0.7330
 4982TIP3    H239142   5.669   0.692  17.813  0.1703 -0.4739  0.1877
 4983TIP3   OH239143   4.617   1.399  19.118 -0.4700 -0.6904  0.0037
 4983TIP3    H139144   4.626   1.464  19.188 -1.1370 -0.1024 -0.4485
 4983TIP3    H239145   4.523   1.393  19.103 -0.2946  0.0261 -1.6160
 4984TIP3   OH239146   0.366   4.685  17.670 -0.0228  0.1577  0.0174
 4984TIP3    H139147   0.450   4.656  17.704 -0.9991 -0.6067  1.9407
 4984TIP3    H239148   0.305   4.615  17.693 -1.1732  0.5692 -1.5398
 4985TIP3   OH239149   2.410   2.399  19.250 -0.0603  0.0535 -0.2091
 4985TIP3    H139150   2.372   2.374  19.166 -1.3229  0.3785  0.2358
 4985TIP3    H239151   2.343   2.375  19.314  0.8257 -0.0588  0.6913
 4986TIP3   OH239152   1.358   3.645  18.924 -0.4955 -0.3296 -0.0694
 4986TIP3    H139153   1.353   3.569  18.865  0.1540  0.6421 -1.4260
 4986TIP3    H239154   1.320   3.717  18.873 -0.8275  0.3276  1.0838
 4987TIP3   OH239155   3.225   3.024  16.215 -0.2332  0.3573 -0.1846
 4987TIP3    H139156   3.284   2.997  16.144 -0.7081 -1.4488  0.0547
 4987TIP3    H239157   3.140   2.990  16.188 -0.8425  1.5089  0.2570
 4988TIP3   OH239158   0.213   4.632  18.549 -0.1213  0.3890  0.5570
 4988TIP3    H139159   0.123   4.633  18.518 -0.2080  0.8140  0.8112
 4988TIP3    H239160   0.241   4.540  18.542 -0.2923  0.4035 -0.3122
 4989TIP3   OH239161   2.576   1.161  16.781  0.1964 -0.3526  0.2055
 4989TIP3    H139162   2.539   1.249  16.776  4.0044  1.3982 -0.9099
 4989TIP3    H239163   2.561   1.134  16.872 -1.5155  1.1806  0.4345
 4990TIP3   OH239164   4.962   2.000  17.647 -0.1110 -0.0678 -0.0579
 4990TIP3    H139165   4.941   2.005  17.554 -1.4535  0.8124  0.2681
 4990TIP3    H239166   4.912   2.071  17.687 -0.1570 -0.9075  1.4475
 4991TIP3   OH239167   0.694   6.516  16.133 -0.0496  0.0351  0.2521
 4991TIP3    H139168   0.756   6.462  16.084 -2.1472 -1.6493 -0.7085
 4991TIP3    H239169   0.621   6.530  16.073 -1.8629 -0.4627  2.2310
 4992TIP3   OH239170   3.752   3.243  18.970 -0.4454  0.5294  0.4508
 4992TIP3    H139171   3.842   3.276  18.967 -0.6019  1.2101  2.1534
 4992TIP3    H239172   3.698   3.322  18.963 -0.8718  0.3412  1.5241
 4993TIP3   OH239173   2.380   6.523  18.865  0.1038  0.3423  0.4614
 4993TIP3    H139174   2.340   6.570  18.792  2.3630  2.6647  0.5565
 4993TIP3    H239175   2.465   6.494  18.831 -0.1701 -1.4859  1.2166
 4994TIP3   OH239176   2.371   4.436  19.268  0.1299 -0.0643  0.5386
 4994TIP3    H139177   2.308   4.404  19.203  1.2488 -2.2231  0.4263
 4994TIP3    H239178   2.412   4.512  19.226 -1.6690  0.7999  0.2437
 4995TIP3   OH239179   1.879   2.796  17.780 -0.3136  0.2463  0.5971
 4995TIP3    H139180   1.827   2.868  17.743  1.7351  0.9096 -1.2325
 4995TIP3    H239181   1.874   2.727  17.714  0.6706  0.1478  0.6100
 4996TIP3   OH239182   3.199   0.623  16.827  0.4741 -0.3107 -0.3603
 4996TIP3    H139183   3.242   0.573  16.897 -0.7451 -0.3105  0.4137
 4996TIP3    H239184   3.248   0.600  16.748  1.3315 -0.9895  0.3492
 4997TIP3   OH239185   3.657   1.567  18.172  0.6082  0.0296  0.4131
 4997TIP3    H139186   3.589   1.521  18.122  0.3264  0.0279  0.8029
 4997TIP3    H239187   3.655   1.657  18.139  1.1960 -0.2347 -0.3923
 4998TIP3   OH239188   3.247   1.271  18.089  0.5403  0.2936  0.0524
 4998TIP3    H139189   3.285   1.217  18.159  3.5084  0.2930 -1.4027
 4998TIP3    H239190   3.166   1.304  18.126  1.9641  0.3186  3.5383
 4999TIP3   OH239191   4.377   2.317  16.597  0.3396 -0.2696 -0.0645
 4999TIP3    H139192   4.312   2.247  16.589 -0.2853  0.4268 -1.5300
 4999TIP3    H239193   4.326   2.397  16.595  1.1750  0.2686 -0.2505
 5000TIP3   OH239194   3.456   6.607  16.243 -0.1813 -0.3130 -0.0285
 5000TIP3    H139195   3.388   6.583  16.179 -0.9628  0.1718  0.6008
 5000TIP3    H239196   3.513   6.668  16.195  0.7880 -1.9731 -1.0732
 5001TIP3   OH239197   3.925   2.736  16.185 -0.6407  0.3627 -0.1464
 5001TIP3    H139198   3.840   2.713  16.223 -0.7022  0.7964 -0.0122
 5001TIP3    H239199   3.908   2.749  16.092 -0.3259 -1.5658 -0.5128
 5002TIP3   OH239200   0.574   0.316  18.482 -1.1184 -0.1747 -0.3741
 5002TIP3    H139201   0.546   0.393  18.431 -3.6768 -0.0128  1.0902
 5002TIP3    H239202   0.664   0.335  18.507 -1.3115  1.8262 -1.0141
 5003TIP3   OH239203   2.930   0.711  16.580 -0.7027 -0.4298  0.1583
 5003TIP3    H139204   2.998   0.645  16.569 -1.9561 -1.9100  0.9162
 5003TIP3    H239205   2.877   0.680  16.654 -1.6901  1.1179  0.1559
 5004TIP3   OH239206   1.343   4.073  16.882  0.3424  0.0007  0.3566
 5004TIP3    H139207   1.428   4.058  16.923 -0.5911 -1.2703  1.9539
 5004TIP3    H239208   1.284   4.091  16.955 -0.5774  2.0506 -0.8091
 5005TIP3   OH239209   2.291   5.142  18.846 -0.5602 -0.3813  0.4934
 5005TIP3    H139210   2.256   5.208  18.906 -0.8948  0.5359 -0.6816
 5005TIP3    H239211   2.225   5.074  18.843  0.2386 -1.3197  2.5206
 5006TIP3   OH239212   4.315   3.918  17.240  0.0179  0.3586 -0.0876
 5006TIP3    H139213   4.391   3.945  17.189 -0.5386  1.4643 -0.3745
 5006TIP3    H239214   4.243   3.970  17.204 -0.3946  1.2234  1.8500
 5007TIP3   OH239215   2.294   6.055  16.296 -0.5396 -0.5751 -0.2919
 5007TIP3    H139216   2.269   6.069  16.205 -1.5356  0.3938  0.1108
 5007TIP3    H239217   2.228   5.995  16.331  0.2188 -1.4829 -0.3646
 5008TIP3   OH239218   6.592   1.440  18.314  0.3297  0.0900  0.0398
 5008TIP3    H139219   6.607   1.390  18.234  1.3733  0.1001  0.2242
 5008TIP3    H239220   6.652   1.514  18.309 -0.8519  1.0921  0.0026
 5009TIP3   OH239221   5.446   3.214  18.389  0.2990  0.2392 -0.2420
 5009TIP3    H139222   5.464   3.155  18.463  1.3152  0.0634 -0.6193
 5009TIP3    H239223   5.525   3.267  18.380  0.7065 -0.5853 -1.9817
 5010TIP3   OH239224   6.395   0.928  17.069 -0.2798 -0.6430 -0.2070
 5010TIP3    H139225   6.335   0.856  17.090 -0.4798 -0.7292 -1.0395
 5010TIP3    H239226   6.379   0.994  17.136 -2.0900 -0.1991 -1.0347
 5011TIP3   OH239227   2.220   4.183  17.648 -0.8952  0.1108  0.0184
 5011TIP3    H139228   2.269   4.262  17.670 -0.9139  0.3486 -0.7408
 5011TIP3    H239229   2.139   4.215  17.609 -1.7403 -0.2810  1.3985
 5012TIP3   OH239230   1.705   6.239  16.983  0.2162 -0.1764  0.6656
 5012TIP3    H139231   1.620   6.282  16.975 -0.0467 -0.6935  0.6189
 5012TIP3    H239232   1.754   6.267  16.906  0.5783  1.1808  1.3567
 5013TIP3   OH239233   1.784   5.991  16.887  0.8295 -0.1888 -0.2788
 5013TIP3    H139234   1.875   6.020  16.881  0.4904  0.7586 -1.4988
 5013TIP3    H239235   1.738   6.065  16.927  0.4383 -0.2285 -0.6451
 5014TIP3   OH239236   5.711   5.268  17.415 -0.1348  0.0395 -0.2601
 5014TIP3    H139237   5.658   5.346  17.433 -2.0474 -1.2212 -0.0381
 5014TIP3    H239238   5.681   5.203  17.479  1.6185 -0.8095 -0.2329
 5015TIP3   OH239239   3.695   1.742  17.654 -0.2195 -0.0222 -0.4490
 5015TIP3    H139240   3.776   1.787  17.631 -0.4294  1.0916  0.8830
 5015TIP3    H239241   3.628   1.810  17.652 -0.9912 -0.7605 -0.6849
 5016TIP3   OH239242   5.362   1.245  17.161  0.3969 -0.0581  0.3940
 5016TIP3    H139243   5.302   1.209  17.096  2.7712 -1.1740 -1.3598
 5016TIP3    H239244   5.423   1.173  17.179  1.8205  1.3127  1.2922
 5017TIP3   OH239245   6.192   4.068  18.856  0.1486 -0.2973 -0.3872
 5017TIP3    H139246   6.234   4.001  18.804 -3.8346 -2.8573 -0.7554
 5017TIP3    H239247   6.201   4.148  18.805 -0.1388 -1.8697 -3.0584
 5018TIP3   OH239248   0.684   6.702  16.346  0.2857  0.0645 -0.4424
 5018TIP3    H139249   0.772   6.671  16.367  0.4713 -0.0266 -1.2873
 5018TIP3    H239250   0.665   6.663  16.260 -0.3898  0.4482 -0.4739
 5019TIP3   OH239251   3.680   5.178  18.325 -0.2986  0.6016  0.5099
 5019TIP3    H139252   3.771   5.158  18.303 -0.3872 -1.6218  1.8566
 5019TIP3    H239253   3.685   5.237  18.400  0.1261 -1.2717  2.0277
 5020TIP3   OH239254   3.178   0.003  18.481 -0.0065  0.0758 -1.0391
 5020TIP3    H139255   3.163  -0.029  18.570 -1.5623  1.6317 -0.6687
 5020TIP3    H239256   3.268   0.035  18.482 -0.0314  0.1515  0.0163
 5021TIP3   OH239257   0.692   0.729  16.997  0.2607 -0.1263  0.0258
 5021TIP3    H139258   0.676   0.741  17.090 -1.4773  0.5759 -0.3225
 5021TIP3    H239259   0.727   0.814  16.967 -0.0887 -0.0314 -0.1232
 5022TIP3   OH239260   1.259   4.417  17.172 -0.3622  0.3602  0.4531
 5022TIP3    H139261   1.216   4.405  17.256  1.7155 -2.0385  1.3174
 5022TIP3    H239262   1.312   4.496  17.184 -2.8661  2.2067  0.0226
 5023TIP3   OH239263   1.991   0.139  17.894  0.2597 -0.1859  0.1304
 5023TIP3    H139264   2.002   0.050  17.861  1.8647  0.0728 -0.1255
 5023TIP3    H239265   2.030   0.137  17.982  0.8623  0.3877 -0.1112
 5024TIP3   OH239266   5.909   5.143  17.179  0.5203  0.0590  0.1665
 5024TIP3    H139267   5.886   5.051  17.165  1.4667 -0.1632 -0.0222
 5024TIP3    H239268   5.857   5.170  17.255 -0.2713 -0.4266 -0.1944
 5025TIP3   OH239269   0.603   2.756  18.851 -0.5005  0.1056  0.1305
 5025TIP3    H139270   0.646   2.778  18.934 -0.3286 -1.2094  0.4116
 5025TIP3    H239271   0.631   2.825  18.791  1.6456 -0.4196  0.4344
 5026TIP3   OH239272   1.968   0.175  16.705  0.0723  0.6568  0.3999
 5026TIP3    H139273   1.910   0.172  16.629 -1.8329  0.2508  1.7605
 5026TIP3    H239274   1.986   0.083  16.725 -0.9269  0.6483  1.4228
 5027TIP3   OH239275   3.320   5.501  16.148 -0.1648  0.0772  0.0635
 5027TIP3    H139276   3.322   5.535  16.059  1.5068 -0.9741 -0.3517
 5027TIP3    H239277   3.411   5.505  16.177 -0.6067 -0.0782  1.5377
 5028TIP3   OH239278   0.006   5.497  18.069  0.1326  0.2548 -0.1245
 5028TIP3    H139279   0.081   5.450  18.107 -0.8556 -0.8907  0.4673
 5028TIP3    H239280  -0.002   5.462  17.981  1.8162  2.2070 -1.1399
 5029TIP3   OH239281   5.300   5.345  16.779  0.1274 -0.0275 -0.0463
 5029TIP3    H139282   5.303   5.262  16.732 -2.5131 -0.3852  0.2764
 5029TIP3    H239283   5.301   5.412  16.711  0.4090 -0.3733 -0.3897
 5030TIP3   OH239284   1.885   4.805  19.500 -0.3665 -0.7708  0.2254
 5030TIP3    H139285   1.954   4.750  19.464  0.0679 -1.0370  1.4125
 5030TIP3    H239286   1.852   4.756  19.575  0.2149  0.6838  1.4744
 5031TIP3   OH239287   1.493   2.127  18.191  0.3615  0.1093 -0.3206
 5031TIP3    H139288   1.588   2.134  18.178  0.3834  0.4458 -0.0106
 5031TIP3    H239289   1.466   2.056  18.133  0.6746  0.5778 -1.0675
 5032TIP3   OH239290   1.634   1.532  16.854 -0.7925  0.1014  0.2019
 5032TIP3    H139291   1.611   1.494  16.938  1.3070  0.0073  0.7798
 5032TIP3    H239292   1.611   1.464  16.790 -1.1859 -0.3534  0.8191
 5033TIP3   OH239293   3.694   1.711  15.803 -0.6037 -0.1483  0.3899
 5033TIP3    H139294   3.656   1.635  15.846 -2.2744  0.4584  0.0393
 5033TIP3    H239295   3.770   1.733  15.857  0.5820 -2.6539 -0.0878
 5034TIP3   OH239296   1.032   0.573  16.543  0.1465 -0.6550 -0.2303
 5034TIP3    H139297   1.051   0.484  16.514 -1.4054 -0.9158 -0.4862
 5034TIP3    H239298   1.065   0.629  16.472  0.0977 -1.0842 -0.5951
 5035TIP3   OH239299   1.989   4.221  17.520 -0.1670  0.0745 -1.1500
 5035TIP3    H139300   1.985   4.284  17.448  0.1295 -0.0839 -1.3110
 5035TIP3    H239301   1.898   4.202  17.541 -0.2579  0.5099 -1.1390
 5036TIP3   OH239302   0.553   1.256  17.236  0.4269 -0.1561 -0.4331
 5036TIP3    H139303   0.609   1.227  17.164 -0.8777  0.0289 -1.5721
 5036TIP3    H239304   0.554   1.351  17.231  1.5598 -0.0744  0.8076
 5037TIP3   OH239305   1.533   1.873  19.766 -0.0126 -0.3247  0.3314
 5037TIP3    H139306   1.624   1.845  19.767 -0.2074 -0.9878  1.6768
 5037TIP3    H239307   1.534   1.957  19.720  1.5169  0.4477  1.6750
 5038TIP3   OH239308   3.111   2.762  18.244 -0.0531  0.2207 -0.6696
 5038TIP3    H139309   3.062   2.838  18.278 -3.0781 -0.9488 -2.0310
 5038TIP3    H239310   3.085   2.690  18.300  2.4588 -0.0068  0.3305
 5039TIP3   OH239311   5.506   2.452  18.511  0.5504 -0.1837 -0.1109
 5039TIP3    H139312   5.488   2.545  18.510  2.5188  0.2450 -0.3421
 5039TIP3    H239313   5.563   2.439  18.587 -1.3011 -1.5769  1.1415
 5040TIP3   OH239314   5.655   5.911  16.404  0.4657  0.1264  0.2834
 5040TIP3    H139315   5.616   5.992  16.372 -0.8111 -1.2081 -1.8020
 5040TIP3    H239316   5.587   5.871  16.459 -0.4960 -1.3060 -1.8334
 5041TIP3   OH239317   0.155   4.515  17.815 -0.0552 -0.0147  0.4279
 5041TIP3    H139318   0.154   4.540  17.907 -1.8414  0.5240  0.2891
 5041TIP3    H239319   0.155   4.419  17.817  0.0718 -0.0075  0.9810
 5042TIP3   OH239320   5.034   5.670  17.625 -0.2699 -0.5883 -0.5512
 5042TIP3    H139321   4.958   5.692  17.679 -0.5094 -1.7813 -0.3606
 5042TIP3    H239322   5.109   5.674  17.684 -0.3364 -0.4979 -0.4741
 5043TIP3   OH239323   0.248   0.820  17.284 -0.0658  0.3741 -0.1060
 5043TIP3    H139324   0.318   0.882  17.306 -1.2675  1.3255  1.1934
 5043TIP3    H239325   0.275   0.738  17.325  0.5940  0.5468 -0.1764
 5044TIP3   OH239326   2.983   2.826  18.628  0.1019 -0.0289  0.2062
 5044TIP3    H139327   2.973   2.794  18.718 -2.1249  1.9961  0.7889
 5044TIP3    H239328   3.077   2.825  18.612  0.3851 -3.1655  1.4621
 5045TIP3   OH239329   6.556   0.614  18.789 -0.8029  0.0545  0.3007
 5045TIP3    H139330   6.644   0.644  18.814 -1.1181 -0.2749  1.8979
 5045TIP3    H239331   6.572   0.543  18.728  0.0384  0.1542  0.3895
 5046TIP3   OH239332   1.648   3.925  16.681  0.8969 -0.0347 -0.1199
 5046TIP3    H139333   1.603   3.842  16.662  1.4150 -0.5217  0.7356
 5046TIP3    H239334   1.635   3.977  16.601 -2.8593  0.6445  0.7372
 5047TIP3   OH239335   6.201   4.282  17.499 -0.2467  0.8803 -0.2423
 5047TIP3    H139336   6.278   4.311  17.451  1.2623  0.8826  1.9974
 5047TIP3    H239337   6.220   4.191  17.521 -2.1592  0.0022 -1.9443
 5048TIP3   OH239338   5.903   2.198  16.321  0.6405  0.1818  0.1763
 5048TIP3    H139339   5.820   2.151  16.310  1.1351 -0.9568  1.1188
 5048TIP3    H239340   5.876   2.285  16.351 -0.2134 -0.2864  0.8273
 5049TIP3   OH239341   4.534   1.909  17.653  0.0113 -0.5858  0.5729
 5049TIP3    H139342   4.625   1.892  17.678  0.1298  0.8149  1.2171
 5049TIP3    H239343   4.482   1.857  17.715  0.3625  0.0442  1.4221
 5050TIP3   OH239344   2.542   3.145  18.571 -0.1807  0.0873 -0.0180
 5050TIP3    H139345   2.459   3.098  18.578  0.7864 -1.7783 -0.5783
 5050TIP3    H239346   2.556   3.182  18.658 -1.4432  0.1868  0.1600
 5051TIP3   OH239347   3.968   0.953  19.297  0.3643 -0.6017  0.0458
 5051TIP3    H139348   3.932   0.867  19.278  0.0719 -0.0542 -2.1107
 5051TIP3    H239349   3.904   1.015  19.261  0.0949  0.5776  2.3734
 5052TIP3   OH239350   2.010   5.649  16.507 -0.1440 -0.0583  0.3166
 5052TIP3    H139351   2.000   5.723  16.566 -0.8132  0.6639 -0.6576
 5052TIP3    H239352   2.091   5.666  16.460  0.5232 -0.7642  1.1879
 5053TIP3   OH239353   4.443   3.714  17.946  0.1404 -0.0153  0.2019
 5053TIP3    H139354   4.398   3.776  18.003  0.2720  1.7296 -1.4948
 5053TIP3    H239355   4.409   3.628  17.972  0.8406  0.5588  3.4476
 5054TIP3   OH239356   6.604   1.663  17.943  0.1767 -0.3355  0.2441
 5054TIP3    H139357   6.643   1.716  17.874 -1.0349  0.3616  0.0568
 5054TIP3    H239358   6.675   1.606  17.974  0.9662 -0.0223 -0.9453
 5055TIP3   OH239359   2.921   3.752  18.286 -0.2650 -0.2802 -0.3377
 5055TIP3    H139360   2.984   3.778  18.354 -1.1462  1.7433 -0.2288
 5055TIP3    H239361   2.963   3.779  18.204 -0.0389 -0.9876 -0.4646
 5056TIP3   OH239362   0.735   2.062  19.335 -0.4022 -0.2265  0.7955
 5056TIP3    H139363   0.670   2.132  19.322  0.9904  0.9360 -0.3314
 5056TIP3    H239364   0.808   2.106  19.379 -0.4910 -1.5991  2.3998
 5057TIP3   OH239365   2.651   5.879  16.211  0.0375 -0.0591 -0.5181
 5057TIP3    H139366   2.651   5.825  16.132  0.3696 -0.8635  0.0172
 5057TIP3    H239367   2.697   5.959  16.186 -2.8486  1.2453 -2.1361
 5058TIP3   OH239368   0.565   1.392  16.953 -0.1489 -0.0800 -0.6028
 5058TIP3    H139369   0.614   1.321  16.911 -0.1076 -0.5950  0.2955
 5058TIP3    H239370   0.474   1.362  16.954 -0.1359 -0.1047 -0.2436
 5059TIP3   OH239371   3.144   0.806  17.085  0.2233  0.0175 -0.3590
 5059TIP3    H139372   3.165   0.780  16.996  0.6841  0.3586 -0.3501
 5059TIP3    H239373   3.151   0.901  17.085 -0.1982  0.0548 -0.0658
 5060TIP3   OH239374   0.807   5.702  16.592  0.1033  0.0562 -0.4707
 5060TIP3    H139375   0.866   5.627  16.600  2.1959  1.4823 -1.3054
 5060TIP3    H239376   0.742   5.675  16.527  0.5585 -1.1639 -0.4496
 5061TIP3   OH239377   3.493   3.162  16.533  0.3703  0.0219 -0.0511
 5061TIP3    H139378   3.544   3.243  16.526 -0.4324  0.5404 -0.0207
 5061TIP3    H239379   3.413   3.179  16.483 -0.1006 -0.5127  0.4991
 5062TIP3   OH239380   1.563   4.893  17.838 -0.0133 -0.2157  0.1713
 5062TIP3    H139381   1.640   4.879  17.783 -1.7357 -0.7371 -2.2903
 5062TIP3    H239382   1.500   4.827  17.808 -1.0568 -0.6148  2.9295
 5063TIP3   OH239383   2.611   6.715  19.084 -0.3295 -0.4955 -0.6295
 5063TIP3    H139384   2.537   6.729  19.024 -0.8978 -0.7331  0.0013
 5063TIP3    H239385   2.579   6.651  19.147 -0.1066  0.5188  0.5444
 5064TIP3   OH239386   0.274   6.085  16.218 -0.2970 -0.0740  0.0320
 5064TIP3    H139387   0.195   6.040  16.249 -0.7743  0.8230  0.1539
 5064TIP3    H239388   0.322   6.018  16.170 -0.4482 -1.0080  1.1305
 5065TIP3   OH239389   3.251   2.278  19.575 -0.2860 -0.5031  0.4267
 5065TIP3    H139390   3.178   2.223  19.548 -0.2562 -0.1647 -0.3636
 5065TIP3    H239391   3.329   2.233  19.543 -0.1318 -0.8891  1.3077
 5066TIP3   OH239392   0.274   2.543  19.226 -0.5272 -0.1025 -0.0476
 5066TIP3    H139393   0.181   2.522  19.237 -0.7261  0.5123 -0.5128
 5066TIP3    H239394   0.309   2.469  19.176 -1.0011  0.1651 -0.7950
 5067TIP3   OH239395   1.639   4.539  16.848 -0.0594  0.2173  0.3024
 5067TIP3    H139396   1.620   4.458  16.799  0.0765 -0.3199  1.1335
 5067TIP3    H239397   1.553   4.580  16.858 -0.0814  0.3884 -0.4621
 5068TIP3   OH239398   2.798   2.591  17.845  0.6046  0.2305  0.0071
 5068TIP3    H139399   2.728   2.657  17.844  1.3616  1.0733 -1.2822
 5068TIP3    H239400   2.829   2.589  17.754  1.6892 -0.7343  0.3825
 5069TIP3   OH239401   1.633   5.562  18.714 -0.4162  0.0763 -0.8624
 5069TIP3    H139402   1.598   5.486  18.667 -1.6389 -1.4170  2.1724
 5069TIP3    H239403   1.562   5.589  18.772  0.8807  1.9320 -0.0428
 5070TIP3   OH239404   0.472   1.835  18.134 -0.2284  0.2999 -0.8297
 5070TIP3    H139405   0.493   1.848  18.042 -0.2253 -1.2127 -1.0736
 5070TIP3    H239406   0.455   1.741  18.142 -1.3379  0.5707  0.4888
 5071TIP3   OH239407   4.668   6.249  16.649 -0.0338  0.6420 -0.0088
 5071TIP3    H139408   4.649   6.159  16.677 -0.9050  0.7215 -0.3005
 5071TIP3    H239409   4.604   6.303  16.695  0.4929  1.1165  0.1738
 5072TIP3   OH239410   3.681   6.731  18.436  0.5522  0.1932 -0.3459
 5072TIP3    H139411   3.723   6.816  18.428 -1.2788  1.3056  1.1640
 5072TIP3    H239412   3.745   6.677  18.484  1.5942  0.7859 -1.0410
 5073TIP3   OH239413   1.583   1.395  16.452  0.7206 -0.4494 -0.2110
 5073TIP3    H139414   1.562   1.485  16.428  0.3043 -0.7435 -1.0029
 5073TIP3    H239415   1.574   1.346  16.370  3.3416 -0.8156 -0.3454
 5074TIP3   OH239416   2.275   3.018  18.623 -0.1713 -0.1035  0.3577
 5074TIP3    H139417   2.296   2.943  18.680  2.0286 -1.1784 -1.6874
 5074TIP3    H239418   2.243   2.978  18.542 -1.5565  1.3216  0.1634
 5075TIP3   OH239419   3.858   1.463  17.501 -0.8899 -0.0606 -0.8085
 5075TIP3    H139420   3.943   1.507  17.507 -0.2549 -0.9824 -2.3682
 5075TIP3    H239421   3.794   1.533  17.510  0.0462  0.7983 -0.6121
 5076TIP3   OH239422   5.953   6.327  18.367  0.4107 -0.2432 -0.0551
 5076TIP3    H139423   6.020   6.264  18.391 -0.0609 -0.0225  2.0108
 5076TIP3    H239424   5.870   6.279  18.375  0.2076 -0.2042 -1.5165
 5077TIP3   OH239425   2.696   3.007  19.311  0.2593  0.0463 -0.0869
 5077TIP3    H139426   2.634   3.079  19.298 -1.1668 -1.0370  0.3859
 5077TIP3    H239427   2.740   3.029  19.393  0.1541  0.5919 -0.1680
 5078TIP3   OH239428   5.421   4.227  16.504  0.4212 -0.2922  0.3141
 5078TIP3    H139429   5.374   4.266  16.430 -0.6097 -1.3354  0.3957
 5078TIP3    H239430   5.364   4.243  16.580  0.7498 -0.5692  0.6203
 5079TIP3   OH239431   1.200   6.307  17.657  0.0628 -0.7576 -0.5668
 5079TIP3    H139432   1.207   6.402  17.648  1.3584 -0.4401  2.7073
 5079TIP3    H239433   1.111   6.293  17.688  0.1088 -0.5257 -0.3208
 5080TIP3   OH239434   1.374   0.216  17.022  0.5202 -0.1836 -0.2093
 5080TIP3    H139435   1.440   0.269  16.977  0.6909 -0.4505 -0.2731
 5080TIP3    H239436   1.294   0.230  16.971  0.6286 -0.1988 -0.3851
 5081TIP3   OH239437   2.670   6.244  16.734  0.0451  0.0191 -0.1652
 5081TIP3    H139438   2.704   6.155  16.724 -2.1037 -0.7495 -1.1853
 5081TIP3    H239439   2.583   6.233  16.772 -0.8554  1.5584 -1.6095
 5082TIP3   OH239440   1.347   5.306  18.089  0.2750  0.1333  0.3301
 5082TIP3    H139441   1.362   5.355  18.170  1.8029  2.3811 -1.2009
 5082TIP3    H239442   1.253   5.309  18.075  0.3593  3.9893 -0.3735
 5083TIP3   OH239443   4.522   4.897  17.969  0.1693 -0.4542  0.4448
 5083TIP3    H139444   4.436   4.898  18.012  0.1253 -0.2021  0.3565
 5083TIP3    H239445   4.501   4.906  17.876  0.3694  2.5164  0.5732
 5084TIP3   OH239446   4.306   2.532  15.839  0.3159  0.0170 -0.5517
 5084TIP3    H139447   4.346   2.455  15.879  1.3807  0.6945 -0.2710
 5084TIP3    H239448   4.373   2.600  15.846 -0.2180  0.6866 -1.7416
 5085TIP3   OH239449   6.322   1.089  19.250  0.4216  0.5185  0.1368
 5085TIP3    H139450   6.270   1.053  19.322  0.7053  0.0249  0.1031
 5085TIP3    H239451   6.297   1.181  19.246 -2.7098 -0.2384 -1.7378
 5086TIP3   OH239452   3.879   0.298  18.023 -0.2007 -0.3825 -0.2138
 5086TIP3    H139453   3.837   0.241  17.959 -1.8347 -0.8618  1.1989
 5086TIP3    H239454   3.954   0.247  18.055 -1.3244 -1.5640  0.6346
 5087TIP3   OH239455   4.090   3.018  16.362  0.2236  0.2940  0.4470
 5087TIP3    H139456   4.094   3.062  16.277  0.9779  0.5285  0.5885
 5087TIP3    H239457   3.999   3.025  16.389 -0.0502  0.1075 -0.3983
 5088TIP3   OH239458   2.080   3.514  16.684  0.2812 -0.2296 -0.3613
 5088TIP3    H139459   2.041   3.597  16.657 -0.2510 -0.7811 -1.3524
 5088TIP3    H239460   2.169   3.517  16.648  0.8920  0.6313  1.1058
 5089TIP3   OH239461   1.373   0.535  15.934  0.4977 -0.3220  0.4631
 5089TIP3    H139462   1.457   0.564  15.970  0.4562 -0.0894  0.3766
 5089TIP3    H239463   1.326   0.616  15.914  0.9019 -0.4180 -0.9983
 5090TIP3   OH239464   5.660   0.424  17.419  0.6135  0.0057 -0.6091
 5090TIP3    H139465   5.600   0.413  17.346 -1.2250  1.7223  0.5413
 5090TIP3    H239466   5.664   0.519  17.434  0.3032 -0.3033  1.9464
 5091TIP3   OH239467   2.105   1.946  16.029 -0.0635  0.3321 -0.7547
 5091TIP3    H139468   2.144   2.024  15.990  0.6325  0.5139  0.2432
 5091TIP3    H239469   2.073   1.975  16.114 -1.3629 -0.0968 -1.0761
 5092TIP3   OH239470   0.179   1.065  19.005 -0.0833  0.3980 -0.4317
 5092TIP3    H139471   0.183   1.091  19.097 -1.9077  2.0805 -0.7614
 5092TIP3    H239472   0.227   1.134  18.958 -0.4559  0.3694 -0.8650
 5093TIP3   OH239473   3.590   4.444  17.317 -0.1326 -0.6528  0.0052
 5093TIP3    H139474   3.646   4.450  17.239  1.1010  1.4964  0.9622
 5093TIP3    H239475   3.506   4.414  17.283  0.6253 -0.6915 -2.0120
 5094TIP3   OH239476   0.248   2.835  18.141  0.0390  0.1099 -0.1756
 5094TIP3    H139477   0.213   2.914  18.182 -2.2112 -0.7713 -0.2450
 5094TIP3    H239478   0.302   2.795  18.208  2.1608  2.1839 -0.4879
 5095TIP3   OH239479   6.736   0.152  16.853 -0.1654 -0.1689  0.5586
 5095TIP3    H139480   6.716   0.099  16.930  0.6125 -2.3996 -0.6901
 5095TIP3    H239481   6.824   0.187  16.870 -0.5318  0.4581  1.2271
 5096TIP3   OH239482   4.556   5.390  16.674  0.1038  0.1035 -0.0291
 5096TIP3    H139483   4.608   5.466  16.701 -0.4718 -0.1682  2.0438
 5096TIP3    H239484   4.621   5.322  16.656  0.5541  0.3648  0.5545
 5097TIP3   OH239485   0.254   4.711  17.042  1.0459  0.1583 -0.1337
 5097TIP3    H139486   0.295   4.667  16.967  2.9690  0.2186  0.7995
 5097TIP3    H239487   0.313   4.784  17.062  1.0623 -0.3589  1.9397
 5098TIP3   OH239488   1.392   3.271  16.882 -0.2082 -0.0880 -0.2904
 5098TIP3    H139489   1.452   3.344  16.862  0.0732 -0.2960 -0.2134
 5098TIP3    H239490   1.382   3.226  16.798 -1.3587  0.7451 -0.6319
 5099TIP3   OH239491   3.613   5.121  16.532  0.1399 -0.5478 -0.4691
 5099TIP3    H139492   3.645   5.051  16.475  0.0077  0.2305 -1.5169
 5099TIP3    H239493   3.529   5.146  16.496 -1.5252 -2.1901  1.9480
 5100TIP3   OH239494   4.556   0.488  17.532  0.3219 -0.2234  0.0624
 5100TIP3    H139495   4.572   0.502  17.625 -2.0378 -0.1248  0.5198
 5100TIP3    H239496   4.543   0.393  17.525 -0.1145 -0.1531 -0.0587
 5101TIP3   OH239497   1.185   5.777  16.825 -0.8819  0.0398  0.3845
 5101TIP3    H139498   1.123   5.849  16.813 -0.7775 -0.3833 -4.4715
 5101TIP3    H239499   1.271   5.818  16.814 -0.5707 -0.3027  1.4043
 5102TIP3   OH239500   5.619   5.681  17.744  0.3516  0.4863 -0.8616
 5102TIP3    H139501   5.638   5.653  17.833 -2.2355  2.1248  0.3309
 5102TIP3    H239502   5.688   5.642  17.691  0.5231 -2.7066  1.4655
 5103TIP3   OH239503   5.813   2.618  17.374 -0.3079  0.0015 -0.2694
 5103TIP3    H139504   5.898   2.661  17.368  0.5377 -1.6450 -0.7465
 5103TIP3    H239505   5.771   2.657  17.450  0.6150  1.2806 -0.3953
 5104TIP3   OH239506   3.926   1.525  19.069 -0.0928  0.3273 -0.1715
 5104TIP3    H139507   3.988   1.581  19.022  1.1652 -0.7572  0.1418
 5104TIP3    H239508   3.882   1.475  19.000 -1.2788  1.7032 -0.4601
 5105TIP3   OH239509   3.898   5.432  15.948 -0.2915  0.0474  0.0744
 5105TIP3    H139510   3.886   5.392  15.862  1.0519 -2.8103  1.1017
 5105TIP3    H239511   3.867   5.522  15.937 -0.7805 -0.4029 -3.1882
 5106TIP3   OH239512   2.409   4.729  16.541  0.2112 -0.7280 -0.0322
 5106TIP3    H139513   2.470   4.802  16.554 -0.9858  0.2969 -0.0818
 5106TIP3    H239514   2.458   4.669  16.484  0.0464  1.6015 -2.9078
 5107TIP3   OH239515   2.198   3.092  16.321 -0.1578  0.8764 -0.0625
 5107TIP3    H139516   2.163   3.018  16.271 -0.0739  0.9542 -0.2388
 5107TIP3    H239517   2.164   3.080  16.409  0.8836 -0.0685  0.2320
 5108TIP3   OH239518   2.585   1.678  16.692 -0.0347  0.8648  0.1137
 5108TIP3    H139519   2.615   1.762  16.727  2.6133  0.6493 -1.3301
 5108TIP3    H239520   2.568   1.624  16.769  0.1489  2.1041  1.0537
 5109TIP3   OH239521   5.017   1.705  16.185 -0.1066 -0.0460  0.1619
 5109TIP3    H139522   4.935   1.708  16.136 -0.7341 -1.3031  1.0822
 5109TIP3    H239523   4.990   1.704  16.276  0.9966  0.7756  0.5147
 5110TIP3   OH239524   0.493   1.324  19.401 -0.0207  0.2404  0.6005
 5110TIP3    H139525   0.553   1.264  19.356  0.0848 -0.7796  2.0250
 5110TIP3    H239526   0.538   1.408  19.400  0.4602 -0.0168 -0.2320
 5111TIP3   OH239527   0.595   1.803  17.868 -0.2497 -0.2391 -0.1643
 5111TIP3    H139528   0.674   1.792  17.922 -0.2304  1.9484  0.3586
 5111TIP3    H239529   0.628   1.809  17.778  0.0619 -0.5365 -0.0711
 5112TIP3   OH239530   5.315   3.299  19.215  0.1340 -0.4059  0.2495
 5112TIP3    H139531   5.367   3.368  19.175 -0.2155 -1.3272 -1.9413
 5112TIP3    H239532   5.370   3.220  19.209 -1.5351 -1.5230 -2.6234
 5113TIP3   OH239533   6.687   3.661  17.419 -0.0622 -0.4361  0.1002
 5113TIP3    H139534   6.727   3.748  17.428  0.7042 -0.6901 -0.8070
 5113TIP3    H239535   6.759   3.604  17.394 -0.2358 -1.6667  2.1808
 5114TIP3   OH239536   1.624   0.892  16.087 -0.0358 -0.4750 -0.0022
 5114TIP3    H139537   1.679   0.902  16.010  0.8118 -0.0043  0.6444
 5114TIP3    H239538   1.569   0.970  16.088  0.6285 -0.0026  0.3882
 5115TIP3   OH239539   0.001   2.575  18.936 -0.3005 -0.5066 -0.0646
 5115TIP3    H139540   0.033   2.504  18.992  0.6955  1.1537  1.5721
 5115TIP3    H239541  -0.093   2.575  18.950 -0.0620  0.0400  1.9218
 5116TIP3   OH239542   4.341   5.381  18.907 -0.0924 -0.2470 -0.1175
 5116TIP3    H139543   4.252   5.384  18.944  0.2197 -0.9936  0.7449
 5116TIP3    H239544   4.343   5.453  18.845 -1.1078  0.1756  0.3027
 5117TIP3   OH239545   0.687   1.001  18.347 -0.6679 -0.8497  0.5315
 5117TIP3    H139546   0.607   0.962  18.313 -0.1012 -0.5319 -1.2754
 5117TIP3    H239547   0.690   1.088  18.308  0.8762 -1.1039 -0.0131
 5118TIP3   OH239548   5.205   4.293  17.820  0.2726 -0.2100  0.0194
 5118TIP3    H139549   5.151   4.340  17.883  0.9983  1.4063 -0.4862
 5118TIP3    H239550   5.285   4.346  17.813  0.5441 -0.7670 -1.6376
 5119TIP3   OH239551   5.970   5.252  15.944 -0.1399  0.2470 -0.3605
 5119TIP3    H139552   6.054   5.206  15.938  0.7231  1.4853  1.2973
 5119TIP3    H239553   5.979   5.326  15.883  0.3115  0.8092  0.3615
 5120TIP3   OH239554   1.578   3.265  18.065 -0.2283  0.8721 -0.1341
 5120TIP3    H139555   1.528   3.200  18.016  0.8264 -0.4835  0.5132
 5120TIP3    H239556   1.655   3.283  18.010  0.1703  0.5299  0.3065
 5121TIP3   OH239557   0.920   1.420  16.706 -0.2360  0.3921 -0.0239
 5121TIP3    H139558   0.972   1.499  16.693  0.6619 -0.0740  0.5325
 5121TIP3    H239559   0.836   1.451  16.738 -0.0430  1.1417 -0.2232
 5122TIP3   OH239560   2.424   0.531  17.014  0.0116 -0.0546  0.1753
 5122TIP3    H139561   2.514   0.564  17.006 -0.1969  0.4426 -0.1886
 5122TIP3    H239562   2.388   0.540  16.926 -0.6873  0.6097  0.5265
 5123TIP3   OH239563   4.448   6.040  19.317 -0.1633  0.0900  0.0189
 5123TIP3    H139564   4.531   6.028  19.364 -0.8562  1.1635  1.5902
 5123TIP3    H239565   4.452   5.975  19.247  1.4198 -0.8112  0.8545
 5124TIP3   OH239566   1.323   4.187  16.627 -0.4232  0.5726 -0.0136
 5124TIP3    H139567   1.396   4.134  16.594 -0.6954 -0.3951  0.8655
 5124TIP3    H239568   1.310   4.156  16.717 -1.9429  0.7140 -0.1608
 5125TIP3   OH239569   4.551   2.822  19.109  0.1733 -0.3394  0.3732
 5125TIP3    H139570   4.550   2.760  19.182 -0.9421  0.3355  0.9607
 5125TIP3    H239571   4.569   2.768  19.032 -1.5794 -1.5441  0.7528
 5126TIP3   OH239572   3.724   0.163  17.130 -0.4445 -0.5171  0.3976
 5126TIP3    H139573   3.757   0.224  17.195 -1.1001  1.0824 -0.7143
 5126TIP3    H239574   3.790   0.093  17.127  1.4798  1.2248  0.1543
 5127TIP3   OH239575   0.572   3.181  17.770 -0.7023 -0.0768 -0.3435
 5127TIP3    H139576   0.534   3.268  17.761  0.1319  0.1907 -1.4052
 5127TIP3    H239577   0.577   3.167  17.865 -2.4069  0.3149 -0.1615
 5128TIP3   OH239578   5.974   0.866  18.326  0.1215 -0.5310 -0.1458
 5128TIP3    H139579   6.040   0.848  18.392 -0.6895  1.5920  1.3755
 5128TIP3    H239580   5.897   0.818  18.356  0.0615 -0.4253 -0.1303
 5129TIP3   OH239581   1.889   3.601  18.134  0.2087  0.0883 -0.3539
 5129TIP3    H139582   1.933   3.538  18.190  0.8032 -1.1487 -2.1321
 5129TIP3    H239583   1.813   3.630  18.185  0.1908 -1.6997  0.7147
 5130TIP3   OH239584   3.502   6.016  18.347 -0.2492  0.2335  0.0708
 5130TIP3    H139585   3.451   6.056  18.417 -1.5329 -1.1103 -0.0395
 5130TIP3    H239586   3.486   6.071  18.270 -0.3631  0.6331  0.3809
 5131TIP3   OH239587   1.935   3.182  17.485 -0.0711  0.2298  0.5929
 5131TIP3    H139588   2.007   3.200  17.546 -0.8951  2.8284  0.9348
 5131TIP3    H239589   1.864   3.151  17.541  0.5500 -1.8014  0.3229
 5132TIP3   OH239590   4.324   0.466  17.120  0.1268  0.5826 -0.5396
 5132TIP3    H139591   4.385   0.442  17.050 -0.0878 -2.9311  0.2857
 5132TIP3    H239592   4.345   0.406  17.192 -2.5424  1.0587  0.7537
 5133TIP3   OH239593   2.511   1.518  16.890 -0.4235 -0.3373 -0.0147
 5133TIP3    H139594   2.458   1.460  16.834  0.5373 -2.1667  0.8697
 5133TIP3    H239595   2.485   1.495  16.979  0.8744 -0.3118  0.3878
 5134TIP3   OH239596   3.315   6.666  17.435  0.0412  0.6116  0.1957
 5134TIP3    H139597   3.318   6.728  17.363 -1.6189 -0.7078 -1.0831
 5134TIP3    H239598   3.229   6.679  17.474 -0.5479 -1.1969 -0.4202
 5135TIP3   OH239599   2.043   2.596  17.883 -0.4174  0.0945  0.0325
 5135TIP3    H139600   2.074   2.555  17.802  1.1832  0.2813  0.5064
 5135TIP3    H239601   2.013   2.683  17.856 -1.3210 -0.3941 -0.5719
 5136TIP3   OH239602   3.620   5.659  18.813  0.0816 -0.8373  0.3342
 5136TIP3    H139603   3.594   5.721  18.745  3.3761 -1.2871 -1.5435
 5136TIP3    H239604   3.672   5.711  18.874 -0.8928 -0.9138  1.2497
 5137TIP3   OH239605   3.920   6.392  19.285 -0.2505 -0.2904 -0.2133
 5137TIP3    H139606   3.922   6.399  19.190 -0.5150 -1.6157 -0.3465
 5137TIP3    H239607   3.839   6.436  19.312 -0.5365 -0.5267 -0.6794
 5138TIP3   OH239608   5.324   5.712  18.469  0.1749  0.1121  0.6251
 5138TIP3    H139609   5.394   5.674  18.416  0.2987  0.4732  0.5277
 5138TIP3    H239610   5.333   5.670  18.554  1.3118  1.0856  1.0027
 5139TIP3   OH239611   0.734   6.435  18.838  0.2429 -0.2432 -0.1330
 5139TIP3    H139612   0.696   6.387  18.911 -1.4596  2.1632  0.6895
 5139TIP3    H239613   0.752   6.522  18.873 -0.3733  0.9056 -2.4770
 5140TIP3   OH239614   3.078   1.625  19.282 -0.5178 -0.2476  0.6821
 5140TIP3    H139615   3.023   1.700  19.304 -0.2689  0.5861 -1.3179
 5140TIP3    H239616   3.165   1.662  19.267 -0.8491 -0.4585 -2.5471
 5141TIP3   OH239617   2.939   5.473  18.149 -0.2757  0.0775  0.2198
 5141TIP3    H139618   3.009   5.533  18.123 -0.8058  1.1163  1.1022
 5141TIP3    H239619   2.922   5.421  18.071  1.4854 -0.2158 -0.0091
 5142TIP3   OH239620   5.277   1.582  16.693  0.5533 -0.2299 -0.4166
 5142TIP3    H139621   5.241   1.554  16.778 -0.3320 -0.5716 -0.8903
 5142TIP3    H239622   5.350   1.639  16.716  0.0847 -0.0057  0.5854
 5143TIP3   OH239623   0.453   6.484  18.466 -0.3126  0.4039 -0.0038
 5143TIP3    H139624   0.422   6.567  18.504 -0.1145  0.3929  0.1855
 5143TIP3    H239625   0.441   6.495  18.372 -1.9001 -0.0047  0.1110
 5144TIP3   OH239626   6.205   1.680  18.560 -0.1041 -0.1694  0.2157
 5144TIP3    H139627   6.209   1.597  18.513 -0.7700  0.0052 -0.1612
 5144TIP3    H239628   6.277   1.676  18.623 -0.5634 -1.3204  0.6856
 5145TIP3   OH239629   5.877   2.982  17.193 -0.1742  0.1674 -0.2759
 5145TIP3    H139630   5.902   2.922  17.263  0.1819 -0.6289 -1.0755
 5145TIP3    H239631   5.826   3.050  17.238 -0.9696 -0.9438  0.5837
 5146TIP3   OH239632   0.998   1.879  18.531  0.4558  0.1637  0.0284
 5146TIP3    H139633   1.048   1.807  18.493  1.1909  0.8658 -0.3556
 5146TIP3    H239634   1.064   1.943  18.558 -0.0323 -0.2159  2.3312
 5147TIP3   OH239635   2.291   3.608  17.594  0.0671 -0.3395  0.0072
 5147TIP3    H139636   2.206   3.641  17.624  0.3430 -0.8444  1.4557
 5147TIP3    H239637   2.355   3.666  17.635  0.4465 -0.6572 -0.1345
 5148TIP3   OH239638   5.838   5.553  16.469 -0.0087  0.0588  0.4370
 5148TIP3    H139639   5.921   5.522  16.506 -0.7845 -2.3276  0.3426
 5148TIP3    H239640   5.778   5.557  16.543 -0.1761  0.4732  0.2843
 5149TIP3   OH239641   1.204   2.796  18.960  0.0096  0.1817  0.3610
 5149TIP3    H139642   1.223   2.857  19.031 -1.5554  0.7565  0.3124
 5149TIP3    H239643   1.137   2.840  18.907  0.8130 -0.4200 -1.2288
 5150TIP3   OH239644   0.967   2.034  17.820  0.4502  0.7850  0.0626
 5150TIP3    H139645   1.004   2.088  17.751  2.4020 -0.5370 -0.0317
 5150TIP3    H239646   0.995   2.077  17.901 -0.2234  1.3132  0.0163
 5151TIP3   OH239647   1.540   0.449  17.289  0.1529  0.1748  0.4080
 5151TIP3    H139648   1.600   0.455  17.364  1.9696 -4.3129 -0.3592
 5151TIP3    H239649   1.597   0.454  17.213 -0.7911 -1.3628 -0.4447
 5152TIP3   OH239650   5.593   1.894  16.535  0.4320 -0.4920  0.2030
 5152TIP3    H139651   5.601   1.990  16.534  1.8636 -0.5436  1.8285
 5152TIP3    H239652   5.618   1.866  16.447  1.4288  0.5544  0.1309
 5153TIP3   OH239653   1.363   1.126  18.964  0.4458 -0.0353 -0.5994
 5153TIP3    H139654   1.446   1.116  19.011 -0.1690 -1.2317  0.2895
 5153TIP3    H239655   1.389   1.150  18.875  1.8175 -1.4280 -0.6302
 5154TIP3   OH239656   5.159   5.906  18.576  0.4210  0.1401 -0.4744
 5154TIP3    H139657   5.222   5.862  18.520 -1.4547 -0.5305 -2.2084
 5154TIP3    H239658   5.129   5.838  18.637  1.3362  0.4605  0.3542
 5155TIP3   OH239659   3.552   2.635  18.901 -0.1107 -0.1061  0.1372
 5155TIP3    H139660   3.511   2.553  18.875 -0.4332  0.1809 -0.2699
 5155TIP3    H239661   3.646   2.617  18.895 -0.1550 -0.0133 -1.4388
 5156TIP3   OH239662   2.687   5.524  15.882 -0.0731 -0.3102 -0.0291
 5156TIP3    H139663   2.761   5.462  15.880  1.3174  1.2831 -1.8248
 5156TIP3    H239664   2.610   5.470  15.866  0.7913 -1.8869  0.8767
 5157TIP3   OH239665   1.761   5.630  19.136  0.2462  0.4858 -0.1609
 5157TIP3    H139666   1.677   5.667  19.109  0.8521  1.3235 -1.0089
 5157TIP3    H239667   1.739   5.552  19.185 -0.9997 -0.1335 -1.6277
 5158TIP3   OH239668   2.671   0.523  18.011  0.2104  0.2329 -0.3067
 5158TIP3    H139669   2.652   0.436  17.977  1.8200  0.1875 -1.1714
 5158TIP3    H239670   2.588   0.553  18.048 -0.3298 -1.7222  0.1589
 5159TIP3   OH239671   3.639   2.079  18.936  0.4763 -0.1377 -0.3415
 5159TIP3    H139672   3.547   2.100  18.954  0.7019 -0.7413  1.8323
 5159TIP3    H239673   3.636   1.991  18.898  0.1287  0.1388 -0.9750
 5160TIP3   OH239674   2.022   4.974  16.514  0.0565  0.4007 -0.4516
 5160TIP3    H139675   2.033   5.034  16.588 -0.8449 -0.1324  0.1353
 5160TIP3    H239676   1.948   5.009  16.466 -0.7109 -0.4198  0.1001
 5161TIP3   OH239677   2.601   4.976  19.176 -0.7207  0.5171 -0.2806
 5161TIP3    H139678   2.618   4.887  19.206 -1.1908  0.0840 -1.2521
 5161TIP3    H239679   2.535   4.966  19.107 -0.7165  1.6087 -0.4615
 5162TIP3   OH239680   6.349   0.904  16.297 -0.2935  0.1557 -0.1070
 5162TIP3    H139681   6.413   0.950  16.351  0.0149 -0.2098 -0.1587
 5162TIP3    H239682   6.315   0.971  16.237 -1.1799  0.7468  1.0167
 5163TIP3   OH239683   2.684   0.769  18.249  0.0100  0.3914  0.3406
 5163TIP3    H139684   2.750   0.712  18.213  1.4723  1.8723  0.5523
 5163TIP3    H239685   2.610   0.712  18.270  0.7630 -1.1093 -1.0013
 5164TIP3   OH239686   1.147   6.154  16.282  0.0724  0.1878  0.6180
 5164TIP3    H139687   1.119   6.085  16.342 -0.1873  0.4380  0.7864
 5164TIP3    H239688   1.089   6.228  16.301 -0.3497  0.0998 -0.3016
 5165TIP3   OH239689   6.159   6.239  16.443  0.1747  0.4959  0.4074
 5165TIP3    H139690   6.158   6.235  16.539 -0.4699  1.7846  0.4846
 5165TIP3    H239691   6.068   6.225  16.418  0.6909 -2.4885 -0.2272
 5166TIP3   OH239692   5.344   4.445  18.851 -0.3166  1.0060 -0.2461
 5166TIP3    H139693   5.405   4.371  18.852 -0.9264  0.4986  0.5771
 5166TIP3    H239694   5.391   4.516  18.895  0.0930  0.9699 -0.6217
 5167TIP3   OH239695   4.295   2.137  19.042  0.3928  0.1942  0.3448
 5167TIP3    H139696   4.385   2.167  19.041  0.5490 -0.2665  0.3490
 5167TIP3    H239697   4.287   2.080  18.965 -0.1535  0.9682 -0.1781
 5168TIP3   OH239698   6.530   4.260  18.519  1.1341 -0.6112 -0.7194
 5168TIP3    H139699   6.496   4.175  18.494 -1.8423  0.4056 -0.4599
 5168TIP3    H239700   6.584   4.243  18.596 -0.5491 -2.1020  0.1907
 5169TIP3   OH239701   3.608   4.110  17.251  0.2071  0.4605  0.0972
 5169TIP3    H139702   3.680   4.093  17.312  0.1714  0.8485  0.2474
 5169TIP3    H239703   3.549   4.167  17.300 -0.1810  0.1792 -0.0427
 5170TIP3   OH239704   5.515   6.097  16.284  0.3722 -0.0367  0.4908
 5170TIP3    H139705   5.466   6.168  16.327  0.0651  0.4665 -0.6527
 5170TIP3    H239706   5.572   6.142  16.222 -1.4144 -0.8418 -1.8942
 5171TIP3   OH239707   4.131   6.558  18.956 -0.3066  0.2775 -0.3181
 5171TIP3    H139708   4.116   6.491  19.023 -1.9746  0.5878 -0.3354
 5171TIP3    H239709   4.158   6.635  19.005 -0.2053  0.1273 -0.1354
 5172TIP3   OH239710   3.781   4.645  17.541 -0.4587 -0.2470 -0.0143
 5172TIP3    H139711   3.805   4.697  17.618 -0.1954  1.4375 -1.1647
 5172TIP3    H239712   3.742   4.565  17.577 -0.5969  0.5989  1.8540
 5173TIP3   OH239713   6.666   0.072  18.898 -0.3984 -0.2337  0.4382
 5173TIP3    H139714   6.649   0.155  18.942 -0.4332  0.9448 -1.7048
 5173TIP3    H239715   6.761   0.064  18.898 -0.3945 -0.2057  0.6108
 5174TIP3   OH239716   5.719   4.901  19.131  0.0220 -0.5618  0.5112
 5174TIP3    H139717   5.689   4.973  19.075  0.2290 -1.1048 -0.3254
 5174TIP3    H239718   5.645   4.883  19.188 -0.0599  0.2581  0.6763
 5175TIP3   OH239719   3.786   1.020  17.017  1.0691 -0.4487  0.3196
 5175TIP3    H139720   3.789   1.112  16.991  0.7109 -0.4918  0.1212
 5175TIP3    H239721   3.699   0.990  16.989  1.4013 -0.9964 -0.1395
 5176TIP3   OH239722   0.094   4.771  18.955 -0.2286 -0.2258  0.4187
 5176TIP3    H139723   0.080   4.822  18.875  0.2488  0.3517  0.6950
 5176TIP3    H239724   0.188   4.781  18.973 -0.4424  0.1463  1.3839
 5177TIP3   OH239725   2.081   1.388  18.066 -0.1943  0.1806  0.1913
 5177TIP3    H139726   2.108   1.329  18.135  0.5908  0.0251 -0.2285
 5177TIP3    H239727   2.073   1.333  17.988  0.7093  0.6267 -0.2431
 5178TIP3   OH239728   3.837   4.048  17.385  0.2587 -0.0076  0.5695
 5178TIP3    H139729   3.918   4.074  17.430  1.0596  1.4539 -1.5559
 5178TIP3    H239730   3.868   4.005  17.305 -1.0219  0.9805 -0.5009
 5179TIP3   OH239731   2.783   6.618  17.711 -0.0990 -0.2463 -0.1752
 5179TIP3    H139732   2.741   6.690  17.663 -1.4120 -1.4347 -0.9190
 5179TIP3    H239733   2.855   6.659  17.759 -1.4052  1.7230  0.2257
 5180TIP3   OH239734   3.866   1.936  16.831 -0.2554  0.1944  0.5441
 5180TIP3    H139735   3.790   1.920  16.886 -0.2898 -0.8890  0.2001
 5180TIP3    H239736   3.920   1.857  16.840 -0.6467 -0.3879 -1.5758
 5181TIP3   OH239737   0.255   5.991  17.634  0.0947 -0.3661 -0.1717
 5181TIP3    H139738   0.248   6.079  17.670  0.0022 -1.2554  2.1417
 5181TIP3    H239739   0.256   5.934  17.710  1.5639 -2.3024 -1.5446
 5182TIP3   OH239740   2.227   4.396  19.022 -0.5038  0.2011  0.2967
 5182TIP3    H139741   2.252   4.344  18.947 -0.0492 -0.6749  1.0404
 5182TIP3    H239742   2.131   4.393  19.022 -0.4862 -0.4343  0.1912
 5183TIP3   OH239743   4.484   6.442  16.733  0.0144 -0.0785  1.1359
 5183TIP3    H139744   4.442   6.425  16.817 -0.6438 -1.8996  0.4998
 5183TIP3    H239745   4.415   6.425  16.668  0.5223  1.2172  0.2138
 5184TIP3   OH239746   2.826   2.148  17.819  0.1790  0.3420 -0.1472
 5184TIP3    H139747   2.794   2.085  17.882 -0.3629  0.6160 -0.1433
 5184TIP3    H239748   2.848   2.096  17.741 -0.3847  0.1657 -0.1904
 5185TIP3   OH239749   0.139   6.041  16.681 -0.9037 -0.1473  0.2133
 5185TIP3    H139750   0.187   6.108  16.729 -0.2442 -0.6729  0.3078
 5185TIP3    H239751   0.115   6.083  16.598  2.1316 -0.6290 -1.0545
 5186TIP3   OH239752   1.565   1.070  16.953 -0.2135  0.1662  0.4695
 5186TIP3    H139753   1.511   1.092  16.877 -2.2068 -1.2733  1.3904
 5186TIP3    H239754   1.536   0.982  16.979  2.8401 -0.8546  0.8360
 5187TIP3   OH239755   4.251   2.073  16.605 -0.0055 -0.3624 -0.4939
 5187TIP3    H139756   4.196   2.071  16.684 -0.1123 -0.6050 -0.5721
 5187TIP3    H239757   4.240   1.985  16.567  3.1422 -1.7244  1.3532
 5188TIP3   OH239758   3.630   6.356  17.017  0.3408  0.5150 -0.5815
 5188TIP3    H139759   3.566   6.350  16.946  0.4491  0.3977 -0.6706
 5188TIP3    H239760   3.585   6.405  17.086 -0.8655 -1.8870  0.4662
 5189TIP3   OH239761   2.298   4.283  18.114 -0.3263  0.0530 -0.0088
 5189TIP3    H139762   2.268   4.365  18.074  1.0163  1.2345  1.3078
 5189TIP3    H239763   2.286   4.217  18.045 -0.3072  1.5638 -1.5195
 5190TIP3   OH239764   3.659   2.038  19.229 -0.1596 -0.3611  0.0012
 5190TIP3    H139765   3.668   2.067  19.139  0.2619 -1.2899 -0.2732
 5190TIP3    H239766   3.674   1.943  19.225  2.7186 -0.0736  1.4100
 5191TIP3   OH239767   5.169   3.809  18.118  0.5233 -0.3080  1.1406
 5191TIP3    H139768   5.155   3.902  18.106 -1.5908 -0.8469 -1.3618
 5191TIP3    H239769   5.091   3.767  18.082  2.3671 -3.1385  0.0408
 5192TIP3   OH239770   0.092   5.686  16.017 -0.4468  0.3564 -0.0251
 5192TIP3    H139771   0.147   5.657  16.090  0.3186  0.4023 -0.5752
 5192TIP3    H239772   0.003   5.685  16.053 -0.3126 -1.4109  0.3685
 5193TIP3   OH239773   5.785   3.795  16.969 -0.6043  0.4656  0.1276
 5193TIP3    H139774   5.730   3.810  16.893 -1.7700 -0.0017  0.8541
 5193TIP3    H239775   5.724   3.787  17.042  0.4340  0.1116  0.9889
 5194TIP3   OH239776   3.043   2.462  18.416 -0.0316 -0.2471  0.8259
 5194TIP3    H139777   3.001   2.422  18.492 -0.5121  0.3477  0.8793
 5194TIP3    H239778   3.063   2.389  18.358 -0.7788 -0.5716  0.9737
 5195TIP3   OH239779   3.757   0.356  17.543 -0.3505 -0.1119  0.1807
 5195TIP3    H139780   3.766   0.447  17.572  1.0472 -0.2271  0.1830
 5195TIP3    H239781   3.797   0.354  17.457 -1.4713 -0.4921 -0.3525
 5196TIP3   OH239782   6.617   4.601  16.279 -0.3169 -0.2762 -0.0983
 5196TIP3    H139783   6.673   4.556  16.216 -0.1919 -0.5645  0.2151
 5196TIP3    H239784   6.672   4.610  16.357 -0.1984  0.7904 -0.2879
 5197TIP3   OH239785   5.824   6.409  17.876 -0.1108 -0.6393  0.2273
 5197TIP3    H139786   5.752   6.469  17.895  0.5125  0.4739 -0.8177
 5197TIP3    H239787   5.842   6.366  17.960 -1.1851 -0.0447  0.7791
 5198TIP3   OH239788   1.139   1.790  17.899  0.0521  0.1103  0.2984
 5198TIP3    H139789   1.109   1.798  17.808 -0.1086 -0.7264  0.2668
 5198TIP3    H239790   1.111   1.871  17.941 -1.7260 -0.3751  0.1132
 5199TIP3   OH239791   0.114   1.424  18.553  0.1690  0.0673 -0.6627
 5199TIP3    H139792   0.100   1.330  18.553 -2.0060  0.1725  3.1990
 5199TIP3    H239793   0.045   1.459  18.497 -1.0276 -0.5321  0.4089
 5200TIP3   OH239794   5.793   2.624  17.090 -0.2168  0.2141 -0.0993
 5200TIP3    H139795   5.783   2.607  17.184 -0.0140 -0.7294 -0.2323
 5200TIP3    H239796   5.885   2.602  17.072 -0.6983 -1.3493 -0.8306
 5201TIP3   OH239797   4.413   2.627  18.756  0.1839 -0.0891 -0.0543
 5201TIP3    H139798   4.394   2.604  18.665  0.2264  1.2746 -0.4312
 5201TIP3    H239799   4.472   2.559  18.786 -0.7306 -1.1976 -0.6829
 5202TIP3   OH239800   2.800   2.089  17.433 -0.3582 -0.1210  0.4082
 5202TIP3    H139801   2.737   2.082  17.361  0.2543  0.1425 -0.1646
 5202TIP3    H239802   2.883   2.060  17.395  0.2683  1.3448  0.6079
 5203TIP3   OH239803   4.919   1.329  16.806  0.0171  0.8918  0.0142
 5203TIP3    H139804   4.933   1.359  16.896  2.3603  0.8022 -0.2422
 5203TIP3    H239805   4.964   1.244  16.803 -2.8102 -0.6976 -0.4261
 5204TIP3   OH239806   3.251   6.550  19.209 -0.3331  0.1716  0.2126
 5204TIP3    H139807   3.252   6.477  19.270  0.9678  0.5717  0.7027
 5204TIP3    H239808   3.162   6.585  19.214 -0.7126 -0.8334  0.6201
 5205TIP3   OH239809   5.590   6.407  18.403 -0.0542  0.1999  0.3478
 5205TIP3    H139810   5.595   6.326  18.453  1.5283  0.3322  0.4390
 5205TIP3    H239811   5.522   6.458  18.447 -0.4912 -0.7405  0.7820
 5206TIP3   OH239812   2.477   2.153  16.351 -0.7623 -0.3208 -0.5519
 5206TIP3    H139813   2.540   2.224  16.365  0.1172 -0.7067 -2.2113
 5206TIP3    H239814   2.523   2.092  16.293 -1.2017 -2.6590  1.3868
 5207TIP3   OH239815   2.607   2.059  17.191  0.6615 -0.3253 -0.6207
 5207TIP3    H139816   2.652   2.143  17.203 -1.3266  0.8658 -1.0528
 5207TIP3    H239817   2.631   2.031  17.102  1.1843 -0.1228 -0.5453
 5208TIP3   OH239818   0.763   6.544  18.256  0.2224 -0.0213 -0.2958
 5208TIP3    H139819   0.754   6.637  18.236 -0.3478  0.0189  0.1216
 5208TIP3    H239820   0.673   6.514  18.270  0.2468 -0.9721 -1.9042
 5209TIP3   OH239821   0.250   2.162  17.499  0.1724  0.2288 -0.4503
 5209TIP3    H139822   0.231   2.129  17.586 -1.0550  1.4858 -0.2043
 5209TIP3    H239823   0.192   2.114  17.441  1.4157 -1.0381 -0.6822
 5210TIP3   OH239824   4.979   1.416  17.831 -0.0853 -0.4247  0.2947
 5210TIP3    H139825   5.026   1.336  17.855 -1.7923 -1.3762  0.6692
 5210TIP3    H239826   5.001   1.479  17.899  2.3157 -0.0909 -0.6989
 5211TIP3   OH239827   4.240   3.249  18.597 -0.3316  0.7244 -0.3391
 5211TIP3    H139828   4.300   3.280  18.666 -0.8425  0.2964  0.3148
 5211TIP3    H239829   4.194   3.175  18.637 -1.3975  1.1336 -0.7689
 5212TIP3   OH239830   5.154   1.152  18.609 -0.3794 -0.3820 -0.1926
 5212TIP3    H139831   5.145   1.125  18.518  2.0494  0.7039 -0.8227
 5212TIP3    H239832   5.142   1.247  18.607 -0.7123 -0.3893  0.7144
 5213TIP3   OH239833   6.533   1.910  16.772  0.2188 -0.4300  0.3198
 5213TIP3    H139834   6.599   1.939  16.835  0.2130 -3.7197  2.0480
 5213TIP3    H239835   6.457   1.967  16.788  1.3521  0.9851  0.8821
 5214TIP3   OH239836   6.574   5.036  17.296  0.2185  0.6099 -0.5868
 5214TIP3    H139837   6.580   4.982  17.374 -2.2187  0.2962 -0.5412
 5214TIP3    H239838   6.638   4.999  17.236  0.3103 -0.7869  0.3341
 5215TIP3   OH239839   2.094   5.666  18.062  0.0866  0.2131  0.4237
 5215TIP3    H139840   2.124   5.740  18.008  1.9299 -0.3472  0.6193
 5215TIP3    H239841   2.002   5.686  18.079 -0.4523  0.6792 -2.4622
 5216TIP3   OH239842   4.337   0.745  18.754 -0.2098  0.2185  0.0085
 5216TIP3    H139843   4.311   0.809  18.687 -0.9042 -0.3334 -0.2562
 5216TIP3    H239844   4.404   0.692  18.711  0.1321  0.5518  0.1216
 5217TIP3   OH239845   0.167   5.412  17.853  0.6379 -0.1570 -0.5915
 5217TIP3    H139846   0.213   5.431  17.934  1.3334 -1.0819 -0.7600
 5217TIP3    H239847   0.212   5.336  17.815 -0.7021 -0.7971 -1.0116
 5218TIP3   OH239848   6.310   5.368  16.552  0.3005  0.2855 -0.4675
 5218TIP3    H139849   6.296   5.279  16.521  0.3969  0.7861 -2.0561
 5218TIP3    H239850   6.323   5.359  16.646  3.7480 -1.8174 -0.9718
 5219TIP3   OH239851   5.441   1.282  16.770  0.1953  0.1018  0.2089
 5219TIP3    H139852   5.484   1.350  16.821  1.6351 -1.6862  1.5070
 5219TIP3    H239853   5.440   1.316  16.680  1.6723  1.4448  0.6611
 5220TIP3   OH239854   2.516   5.054  17.897  0.2681 -0.1038  0.2611
 5220TIP3    H139855   2.593   5.110  17.891  0.2881 -0.1887 -0.4187
 5220TIP3    H239856   2.536   4.980  17.839 -0.0635 -0.4345  0.5659
 5221TIP3   OH239857   2.517   5.848  17.545 -0.8574  0.0340  0.0876
 5221TIP3    H139858   2.523   5.780  17.478 -0.7980  1.0025 -0.9144
 5221TIP3    H239859   2.432   5.832  17.586 -2.6037  1.5198 -2.6182
 5222TIP3   OH239860   2.687   4.600  16.329 -0.3857 -0.0290 -0.3643
 5222TIP3    H139861   2.702   4.602  16.235 -2.3085  0.0140 -0.7137
 5222TIP3    H239862   2.603   4.555  16.339 -0.1673 -0.1356  1.3435
 5223TIP3   OH239863   0.009   0.511  19.245  0.4196  0.3493 -0.7106
 5223TIP3    H139864   0.001   0.544  19.156  1.1648  0.5778 -0.6992
 5223TIP3    H239865   0.025   0.417  19.234 -0.7591  0.1347 -0.7700
 5224TIP3   OH239866   3.921   0.312  16.753 -0.2687  0.0704 -0.2283
 5224TIP3    H139867   3.971   0.325  16.833 -0.9585  0.1480  0.1968
 5224TIP3    H239868   3.911   0.217  16.745 -0.9915  0.0936  0.2852
 5225TIP3   OH239869   5.887   4.058  18.830  0.2237 -0.0601  0.2144
 5225TIP3    H139870   5.975   4.040  18.862  0.1617 -1.8831 -0.4970
 5225TIP3    H239871   5.896   4.060  18.735  0.0567  3.2642  0.1708
 5226TIP3   OH239872   2.490   4.860  16.885  0.0866  0.2366  0.0334
 5226TIP3    H139873   2.555   4.925  16.914  0.6620  0.1771 -1.0630
 5226TIP3    H239874   2.418   4.913  16.850  0.4665  0.3065 -0.6713
 5227TIP3   OH239875   2.199   5.256  16.448 -0.3528 -0.6550  0.1528
 5227TIP3    H139876   2.235   5.187  16.504 -2.0455 -1.4712  0.2978
 5227TIP3    H239877   2.274   5.314  16.431  0.1885 -0.0383  3.6820
 5228TIP3   OH239878   6.173   3.505  19.338  0.2405  0.6949  0.3056
 5228TIP3    H139879   6.253   3.467  19.301  0.1332  2.2733 -1.7103
 5228TIP3    H239880   6.142   3.439  19.401  2.1306 -0.7546 -0.1822
 5229TIP3   OH239881   3.920   6.281  16.309 -0.0346  0.0243 -0.3832
 5229TIP3    H139882   3.870   6.215  16.356 -0.8611  1.1326  0.3446
 5229TIP3    H239883   3.997   6.297  16.363  0.7837 -1.1624 -1.1472
 5230TIP3   OH239884   4.043   1.225  17.321  0.3463  0.0886  0.0961
 5230TIP3    H139885   3.958   1.248  17.283  1.1803  1.2298 -1.1899
 5230TIP3    H239886   4.067   1.142  17.278  0.5576  0.5549 -0.7089
 5231TIP3   OH239887   5.824   0.295  16.909 -0.2857  0.0104  0.2641
 5231TIP3    H139888   5.910   0.325  16.879  0.0254 -2.0763 -1.2195
 5231TIP3    H239889   5.786   0.370  16.955  2.5156  0.8241  1.4310
 5232TIP3   OH239890   2.178   5.558  17.015  0.0080 -0.3907  0.2646
 5232TIP3    H139891   2.215   5.515  16.938 -0.8182 -0.6544 -0.0034
 5232TIP3    H239892   2.208   5.506  17.089  0.5049 -0.3521  0.0952
 5233TIP3   OH239893   1.919   2.854  18.289 -0.4839 -0.4673 -0.4718
 5233TIP3    H139894   1.865   2.832  18.364 -0.4825 -0.8132 -0.5676
 5233TIP3    H239895   1.903   2.783  18.227 -1.1173  0.2363 -1.1347
 5234TIP3   OH239896   5.138   1.143  18.176 -0.2728 -0.1839 -0.1724
 5234TIP3    H139897   5.165   1.235  18.169  1.8900 -0.8765 -2.1016
 5234TIP3    H239898   5.063   1.137  18.116  0.1011  0.1605 -0.6883
 5235TIP3   OH239899   2.925   3.577  17.777 -0.1382 -0.0185 -0.3981
 5235TIP3    H139900   2.846   3.555  17.826  0.0392  0.5095  0.1478
 5235TIP3    H239901   2.918   3.528  17.696  0.0971 -1.8217  0.6288
 5236TIP3   OH239902   1.594   0.738  16.908 -0.3663  0.4311 -0.2116
 5236TIP3    H139903   1.624   0.664  16.854 -0.4018 -0.9085  1.5359
 5236TIP3    H239904   1.675   0.781  16.935 -0.1911 -0.4268  0.7091
 5237TIP3   OH239905   4.190   3.784  18.343  0.0583 -0.0920  0.3875
 5237TIP3    H139906   4.110   3.733  18.350  0.1677 -0.7225 -1.9139
 5237TIP3    H239907   4.162   3.875  18.353 -0.9885 -0.3008 -0.4618
 5238TIP3   OH239908   2.980   4.590  19.434 -0.2748  0.4356 -0.3052
 5238TIP3    H139909   2.939   4.506  19.454  0.3724  0.7889  3.2933
 5238TIP3    H239910   2.938   4.652  19.494  0.6866  2.2699 -1.4353
 5239TIP3   OH239911   4.240   1.072  18.424 -0.5544  0.7862  0.6431
 5239TIP3    H139912   4.213   1.159  18.394  0.9975  1.2434  0.4701
 5239TIP3    H239913   4.314   1.089  18.483  1.6427 -0.4622 -1.5439
 5240TIP3   OH239914   3.027   3.184  18.944 -0.2970  0.4785  0.0030
 5240TIP3    H139915   3.021   3.172  18.850  1.2175  1.8939 -0.3115
 5240TIP3    H239916   2.939   3.163  18.976 -0.6997 -0.5280 -1.6367
 5241TIP3   OH239917   1.678   5.353  18.933 -0.1448 -0.0643 -0.3204
 5241TIP3    H139918   1.668   5.428  18.876  1.9094  0.8450  0.4267
 5241TIP3    H239919   1.722   5.287  18.880  0.3142  0.1912 -0.2592
 5242TIP3   OH239920   3.959   4.463  16.696  0.4015 -0.2017 -0.2204
 5242TIP3    H139921   3.935   4.426  16.611  0.8153  2.0211 -1.3725
 5242TIP3    H239922   4.024   4.531  16.676  0.9133  0.0185  1.9274
 5243TIP3   OH239923   1.648   0.224  16.634  0.3623 -0.8424  0.1997
 5243TIP3    H139924   1.651   0.141  16.683 -1.3725 -0.5678  0.8835
 5243TIP3    H239925   1.648   0.291  16.702 -1.8014 -0.4382 -0.1107
 5244TIP3   OH239926   2.938   1.510  16.992 -0.1647  0.2943 -0.2732
 5244TIP3    H139927   2.927   1.582  16.929  0.2072 -0.8741 -1.7293
 5244TIP3    H239928   2.893   1.541  17.071 -2.9128  0.8135 -1.8918
 5245TIP3   OH239929   0.878   5.528  15.924  0.1380 -0.3623 -0.2678
 5245TIP3    H139930   0.794   5.543  15.880 -1.3193 -1.4074  1.9706
 5245TIP3    H239931   0.885   5.433  15.930  0.6974 -0.2518  0.9913
 5246TIP3   OH239932   5.967   3.858  19.647 -0.4047 -0.1459  0.5917
 5246TIP3    H139933   6.042   3.916  19.630 -0.2433 -0.8437 -1.3412
 5246TIP3    H239934   5.899   3.916  19.680  0.0274  1.0348 -0.5036
 5247TIP3   OH239935   1.088   5.112  16.480 -0.6594 -0.3638 -0.2786
 5247TIP3    H139936   1.050   5.098  16.393 -0.2915 -2.8070 -0.1251
 5247TIP3    H239937   1.140   5.192  16.471 -2.1090  0.4666 -1.7628
 5248TIP3   OH239938   4.174   4.981  19.053  0.0229 -0.1282 -0.2948
 5248TIP3    H139939   4.186   4.886  19.054  1.0644 -0.0164  1.2155
 5248TIP3    H239940   4.082   4.994  19.076 -0.3578 -0.7689 -1.3791
 5249TIP3   OH239941   0.270   3.686  18.591  0.3819 -0.2012 -0.7723
 5249TIP3    H139942   0.343   3.746  18.576  0.6982 -0.6777 -1.2066
 5249TIP3    H239943   0.250   3.694  18.684 -0.9042  2.0513 -1.1688
 5250TIP3   OH239944   5.113   3.953  17.791  0.2153  0.6202  0.8864
 5250TIP3    H139945   5.088   4.022  17.851  1.1703  2.4177 -0.6546
 5250TIP3    H239946   5.050   3.960  17.719 -0.5875 -1.1343  1.3772
 5251TIP3   OH239947   0.210   6.063  18.893 -0.3241  0.2541 -0.3955
 5251TIP3    H139948   0.120   6.094  18.887 -0.3856  0.2728  0.4797
 5251TIP3    H239949   0.221   6.037  18.984  0.8272  1.1080 -0.2586
 5252TIP3   OH239950   0.755   1.978  18.662 -0.0131 -0.1285  0.1597
 5252TIP3    H139951   0.790   2.041  18.725  0.0976  0.2528 -0.2751
 5252TIP3    H239952   0.821   1.974  18.593 -0.3239 -0.2240 -0.1382
 5253TIP3   OH239953   1.877   2.892  18.849 -0.0892  0.8127 -0.3520
 5253TIP3    H139954   1.844   2.954  18.784 -0.5568  0.4641 -0.4547
 5253TIP3    H239955   1.947   2.845  18.804  1.1198  2.1040  0.1227
 5254TIP3   OH239956   2.581   3.932  19.077  0.6123 -0.8420 -0.0858
 5254TIP3    H139957   2.635   3.986  19.135  0.9311 -1.3336  0.0788
 5254TIP3    H239958   2.494   3.971  19.083  0.8260 -0.3734  0.0678
 5255TIP3   OH239959   4.998   4.170  16.829 -0.2802 -0.0143 -0.3531
 5255TIP3    H139960   4.990   4.134  16.917 -1.7440  1.9197  0.3985
 5255TIP3    H239961   4.909   4.201  16.808  0.0663 -0.2912 -2.4656
 5256TIP3   OH239962   2.116   2.681  16.923  0.1832  0.0964  0.1449
 5256TIP3    H139963   2.190   2.659  16.979  0.7996 -0.4854 -0.8456
 5256TIP3    H239964   2.104   2.775  16.934 -0.3419 -0.1535  1.9578
 5257TIP3   OH239965   2.920   1.230  18.537  0.4360 -0.3059 -0.1109
 5257TIP3    H139966   2.892   1.265  18.453  0.0426  1.2051  0.5958
 5257TIP3    H239967   2.915   1.135  18.528 -0.4000 -0.1502 -1.5098
 5258TIP3   OH239968   4.780   5.074  17.989 -0.1550  0.3039 -0.3452
 5258TIP3    H139969   4.754   5.166  17.978 -1.3636  0.1056  0.6429
 5258TIP3    H239970   4.700   5.025  17.971  0.0794 -0.4701  0.6659
 5259TIP3   OH239971   3.592   6.386  16.302  0.1806 -0.5533  0.5227
 5259TIP3    H139972   3.528   6.457  16.295  0.6641  0.1058  2.2255
 5259TIP3    H239973   3.653   6.401  16.230  0.1517  0.6505  0.7254
 5260TIP3   OH239974   6.510   0.507  17.842 -0.4856  0.1743  0.0914
 5260TIP3    H139975   6.502   0.499  17.747  1.3992  0.3093 -0.1136
 5260TIP3    H239976   6.427   0.545  17.870 -2.0165 -1.9966 -1.1954
 5261TIP3   OH239977   1.854   3.733  18.561 -0.1009  0.1763 -0.2307
 5261TIP3    H139978   1.828   3.709  18.472 -2.4024  0.0801  0.3876
 5261TIP3    H239979   1.806   3.814  18.577 -0.3459 -0.2293  1.1672
 5262TIP3   OH239980   5.630   3.945  17.518  0.0251  0.3914 -0.5931
 5262TIP3    H139981   5.588   3.878  17.465 -0.0485  0.9080 -1.1872
 5262TIP3    H239982   5.682   3.895  17.582 -2.6272 -0.3080  1.1741
 5263TIP3   OH239983   5.832   2.824  19.256 -0.3369  0.2265 -0.1820
 5263TIP3    H139984   5.876   2.908  19.265  0.9390 -0.5203  1.0252
 5263TIP3    H239985   5.846   2.780  19.340  0.2238 -1.7249 -1.2178
 5264TIP3   OH239986   6.383   2.032  17.589 -0.0808 -0.2901  0.0607
 5264TIP3    H139987   6.316   2.057  17.652 -0.2278 -2.6528  0.9149
 5264TIP3    H239988   6.465   2.058  17.630 -0.3179  0.7652 -0.0887
 5265TIP3   OH239989   6.085   0.706  17.850  0.1948  0.0742 -0.4254
 5265TIP3    H139990   6.155   0.642  17.866  0.9080  0.8509 -0.3966
 5265TIP3    H239991   6.012   0.674  17.903  0.6729 -0.4991 -0.0889
 5266TIP3   OH239992   2.790   0.971  16.534 -0.2071  0.0982  0.1278
 5266TIP3    H139993   2.775   0.951  16.626  0.3838  1.6071  0.5698
 5266TIP3    H239994   2.846   1.049  16.534  1.1862 -0.8132 -1.4885
 5267TIP3   OH239995   6.508   6.397  16.705 -0.1392 -0.4494  0.1656
 5267TIP3    H139996   6.418   6.406  16.738 -0.7321 -0.4760 -1.3871
 5267TIP3    H239997   6.538   6.313  16.741 -1.1578 -1.0012 -0.2408
 5268TIP3   OH239998   4.733   6.388  16.436  0.5461 -0.1409 -0.1639
 5268TIP3    H139999   4.826   6.390  16.412  0.2378 -1.3470 -1.6662
 5268TIP3    H240000   4.730   6.334  16.515  1.3363  1.9367  1.3966
 5269TIP3   OH240001   3.276   1.266  19.103  0.3582 -0.9287  0.1591
 5269TIP3    H140002   3.233   1.300  19.025  1.1914 -0.3881 -0.0754
 5269TIP3    H240003   3.349   1.326  19.118 -0.0339 -0.7651  1.6026
 5270TIP3   OH240004   0.974   6.017  19.379 -0.1262  0.0756  0.3065
 5270TIP3    H140005   0.883   6.049  19.380  0.3304  1.4139  0.6403
 5270TIP3    H240006   0.977   5.951  19.448 -1.1364 -0.8897 -0.5188
 5271TIP3   OH240007   2.145   0.389  16.128 -0.4784  0.1874 -0.0109
 5271TIP3    H140008   2.220   0.369  16.072 -0.4665  2.2575 -0.8233
 5271TIP3    H240009   2.162   0.342  16.210  0.5669 -1.1771 -0.9780
 5272TIP3   OH240010   6.234   4.985  17.888 -0.1120  0.0599 -0.0549
 5272TIP3    H140011   6.326   5.010  17.886  0.5394 -2.1274 -0.6948
 5272TIP3    H240012   6.199   5.015  17.804 -0.4178  2.1750  0.7687
 5273TIP3   OH240013   6.089   2.266  18.751  0.1977 -0.3409  0.0128
 5273TIP3    H140014   6.074   2.352  18.791  0.5654 -0.2101 -0.1181
 5273TIP3    H240015   6.002   2.230  18.738 -0.0550  0.6250 -1.2346
 5274TIP3   OH240016   0.591   1.806  16.361 -0.0456 -0.0197 -0.0405
 5274TIP3    H140017   0.528   1.759  16.415  0.3964 -0.4891  0.0748
 5274TIP3    H240018   0.671   1.753  16.365  0.8400  1.3014  1.0293
 5275TIP3   OH240019   4.037   3.341  18.024 -0.0544 -0.4374  0.2978
 5275TIP3    H140020   4.026   3.347  17.929 -2.2050  1.5776  0.5829
 5275TIP3    H240021   4.018   3.250  18.045  0.8029 -0.9971 -1.1975
 5276TIP3   OH240022   1.536   6.548  16.309  0.0418  0.4124 -0.4750
 5276TIP3    H140023   1.627   6.562  16.334 -0.5046  1.3913  1.1333
 5276TIP3    H240024   1.496   6.506  16.386 -1.1848  1.4133 -0.5212
 5277TIP3   OH240025   3.808   6.320  17.697 -0.0166 -0.0930 -0.5498
 5277TIP3    H140026   3.853   6.390  17.648  0.0045  0.3227  0.0561
 5277TIP3    H240027   3.823   6.342  17.789 -0.4390 -0.6240 -0.3518
 5278TIP3   OH240028   5.138   5.271  17.834  0.4297 -1.1180 -0.1094
 5278TIP3    H140029   5.095   5.245  17.916 -2.1117  0.1861 -0.9108
 5278TIP3    H240030   5.065   5.294  17.776  2.2347  0.8566 -1.7248
 5279TIP3   OH240031   5.690   5.326  18.551 -0.3336  0.4708  0.2492
 5279TIP3    H140032   5.773   5.279  18.547 -0.9011 -0.5828  0.3061
 5279TIP3    H240033   5.646   5.303  18.469 -0.5149  1.1362  0.1534
 5280TIP3   OH240034   1.924   2.247  17.073 -0.0130  0.0765  0.0872
 5280TIP3    H140035   1.980   2.306  17.023 -0.8026 -0.2445 -1.2207
 5280TIP3    H240036   1.919   2.286  17.160  2.1641  0.1443  0.2269
 5281TIP3   OH240037   3.756   0.628  17.606  0.3824 -0.0806  0.2762
 5281TIP3    H140038   3.665   0.637  17.578  0.1402 -1.3980  0.5825
 5281TIP3    H240039   3.785   0.718  17.621  0.3063  0.7106 -3.3369
 5282TIP3   OH240040   4.066   0.456  17.006  0.1681 -0.1830  0.2208
 5282TIP3    H140041   4.151   0.412  17.005  0.2840  0.0515 -0.1062
 5282TIP3    H240042   4.045   0.464  17.099  0.3953 -0.4465  0.2977
 5283TIP3   OH240043   3.390   1.821  17.442 -0.3531 -0.3551  0.4130
 5283TIP3    H140044   3.474   1.855  17.473  0.4324 -0.7169 -1.1824
 5283TIP3    H240045   3.334   1.898  17.435  0.3620  0.1420 -0.0108
 5284TIP3   OH240046   4.302   5.115  18.816  0.1524 -0.2781 -0.1331
 5284TIP3    H140047   4.217   5.110  18.861 -0.4242 -0.5789 -1.2377
 5284TIP3    H240048   4.347   5.188  18.859  0.2031 -1.4309  1.8868
 5285TIP3   OH240049   2.023   1.838  19.790  0.2575 -0.2096 -0.0253
 5285TIP3    H140050   1.931   1.809  19.795  0.2764 -0.1295  0.8871
 5285TIP3    H240051   2.071   1.759  19.767  0.0623 -0.4546  0.3907
 5286TIP3   OH240052   5.190   4.230  18.378  0.6381 -0.5627 -0.5322
 5286TIP3    H140053   5.097   4.250  18.371  0.8095  0.1482 -0.9127
 5286TIP3    H240054   5.214   4.261  18.466  0.1615 -2.3384  0.2688
 5287TIP3   OH240055   4.148   5.964  19.273 -0.2573 -0.2319  0.1505
 5287TIP3    H140056   4.104   6.023  19.333 -0.0350  1.3587 -1.1731
 5287TIP3    H240057   4.238   5.959  19.305 -0.3528 -0.0871  0.4366
 5288TIP3   OH240058   1.546   3.040  17.839  0.0262  0.1839 -0.4524
 5288TIP3    H140059   1.544   2.982  17.763 -0.2800 -0.3043 -0.0723
 5288TIP3    H240060   1.460   3.029  17.880  0.5268 -0.2732  0.4995
 5289TIP3   OH240061   5.024   5.512  18.076  0.1209 -0.1875  0.7587
 5289TIP3    H140062   4.966   5.588  18.083 -0.4310 -0.4945 -0.2943
 5289TIP3    H240063   4.967   5.440  18.049  1.0319 -0.3932 -0.7726
 5290TIP3   OH240064   5.265   1.659  18.115 -0.2234  0.0712 -0.3110
 5290TIP3    H140065   5.225   1.719  18.179 -2.2514  1.2851 -2.5319
 5290TIP3    H240066   5.316   1.716  18.058 -1.2698 -0.4149 -1.7893
 5291TIP3   OH240067   0.551   4.523  17.479  0.2055 -0.0665  0.2682
 5291TIP3    H140068   0.506   4.574  17.412 -2.7764 -0.0807  2.0775
 5291TIP3    H240069   0.625   4.577  17.506 -1.0827  1.9219 -0.0195
 5292TIP3   OH240070   5.970   4.417  17.701 -0.1067 -0.1825  0.2685
 5292TIP3    H140071   6.051   4.464  17.682 -0.6776  0.5043 -0.5447
 5292TIP3    H240072   5.901   4.481  17.686 -0.9137 -1.2915 -1.0141
 5293TIP3   OH240073   6.724   4.673  18.016  0.3765 -0.4221  0.1604
 5293TIP3    H140074   6.738   4.587  18.056 -0.7738 -1.5876 -1.7821
 5293TIP3    H240075   6.675   4.723  18.082 -1.3548 -2.2125  0.3240
 5294TIP3   OH240076   5.814   5.081  18.706  0.9457  0.2243 -0.3022
 5294TIP3    H140077   5.758   5.085  18.783 -0.4826  3.1477 -1.3507
 5294TIP3    H240078   5.881   5.148  18.721  0.7212  0.7503 -1.5037
 5295TIP3   OH240079   2.077   6.190  18.716 -0.1970  0.4458  0.6432
 5295TIP3    H140080   2.056   6.263  18.657 -0.2297  0.9636  1.2881
 5295TIP3    H240081   2.135   6.228  18.782  0.3870 -0.2896  0.5711
 5296TIP3   OH240082   6.703   4.622  18.501 -0.6911  0.0113 -0.3245
 5296TIP3    H140083   6.653   4.696  18.465  0.8182  1.3982  0.3066
 5296TIP3    H240084   6.658   4.601  18.583 -2.0026 -0.7978 -1.1973
 5297TIP3   OH240085   0.674   5.530  15.768 -0.3847 -0.3148  0.2152
 5297TIP3    H140086   0.602   5.530  15.831 -0.3495 -0.1995  0.2575
 5297TIP3    H240087   0.636   5.562  15.687 -1.2481 -3.5649 -0.8085
 5298TIP3   OH240088   1.663   1.595  16.204  0.5418 -0.1739 -0.5116
 5298TIP3    H140089   1.600   1.601  16.132 -0.0607 -0.2839 -0.0008
 5298TIP3    H240090   1.611   1.611  16.283  1.1292 -0.4163 -0.0702
 5299TIP3   OH240091   2.115   1.593  18.227  0.2296 -0.4941  0.4940
 5299TIP3    H140092   2.092   1.563  18.315  0.9679 -1.9268  0.2310
 5299TIP3    H240093   2.110   1.514  18.173  2.2073 -0.1777 -0.2478
 5300TIP3   OH240094   4.434   4.911  19.431 -0.0378 -0.6391 -0.3074
 5300TIP3    H140095   4.480   4.869  19.358 -0.1437  0.0944 -0.8151
 5300TIP3    H240096   4.420   4.841  19.494  0.5716 -1.1670 -0.7391
 5301TIP3   OH240097   2.606   1.947  16.722 -0.5717  0.6634 -0.5041
 5301TIP3    H140098   2.512   1.964  16.718 -0.6122  0.3588 -0.9569
 5301TIP3    H240099   2.645   2.011  16.663 -0.5231  0.5905 -0.5508
 5302TIP3   OH240100   5.423   5.836  16.905 -0.3536 -0.2039 -0.7442
 5302TIP3    H140101   5.415   5.866  16.995  4.4821 -0.4744  0.0240
 5302TIP3    H240102   5.417   5.916  16.852  1.8193  0.7828  0.3649
 5303TIP3   OH240103   5.667   3.209  19.121  0.1659 -1.2391 -0.3210
 5303TIP3    H140104   5.615   3.138  19.159 -1.2731  0.8300  1.8487
 5303TIP3    H240105   5.608   3.284  19.120  1.0300 -0.3866 -4.2484
 5304TIP3   OH240106   0.969   0.125  17.089  0.2043  0.4415 -0.2561
 5304TIP3    H140107   0.910   0.137  17.015 -0.9129  0.7008  0.6478
 5304TIP3    H240108   1.043   0.182  17.070 -0.7272  1.6002 -0.4950
 5305TIP3   OH240109   2.487   1.001  16.547 -0.7019 -0.2466  1.1164
 5305TIP3    H140110   2.454   1.023  16.635  0.9002  1.5242  1.3482
 5305TIP3    H240111   2.580   0.981  16.561 -0.3136  0.5316 -0.2204
 5306TIP3   OH240112   2.958   1.736  16.816 -0.2073  0.2017  0.3072
 5306TIP3    H140113   3.050   1.761  16.805  0.0832 -1.0308 -0.2260
 5306TIP3    H240114   2.935   1.694  16.734 -1.6437  1.5826 -0.0465
 5307TIP3   OH240115   2.784   6.404  19.341 -0.2042  0.1441 -0.3522
 5307TIP3    H140116   2.715   6.410  19.407 -0.1579  1.6106 -0.4092
 5307TIP3    H240117   2.739   6.410  19.257 -0.1572 -0.6382 -0.4425
 5308TIP3   OH240118   1.780   3.669  17.889  0.5994 -0.4784  0.3504
 5308TIP3    H140119   1.831   3.750  17.891  0.2946 -0.2473 -0.6667
 5308TIP3    H240120   1.813   3.619  17.963  0.0746  0.9930  1.6260
 5309TIP3   OH240121   4.710   1.886  18.883  0.2188 -0.3269  0.2138
 5309TIP3    H140122   4.748   1.974  18.879  0.4899 -0.4799 -1.0242
 5309TIP3    H240123   4.731   1.856  18.972  2.2018 -0.0352 -0.1027
 5310TIP3   OH240124   2.354   2.110  16.618 -0.1687 -0.2035  0.2604
 5310TIP3    H140125   2.367   2.120  16.524 -0.4101  0.7487  0.3220
 5310TIP3    H240126   2.269   2.066  16.626  0.2765 -1.1495  0.0252
 5311TIP3   OH240127   5.880   2.076  16.703  0.8223 -0.6006  0.9192
 5311TIP3    H140128   5.827   2.026  16.765 -0.3276 -1.8052 -0.9481
 5311TIP3    H240129   5.825   2.152  16.682  0.2034 -1.3403 -0.2597
 5312TIP3   OH240130   5.399   2.309  16.855  0.3371 -0.0589 -0.2710
 5312TIP3    H140131   5.327   2.278  16.799 -0.3047 -1.5470  1.2805
 5312TIP3    H240132   5.395   2.252  16.932  1.7458  1.3302  0.8910
 5313TIP3   OH240133   0.555   1.162  16.767  0.1079  0.2010  0.0685
 5313TIP3    H140134   0.550   1.160  16.672  0.3006  0.8943  0.0389
 5313TIP3    H240135   0.512   1.081  16.795 -1.2363  0.6763 -0.5517
 5314TIP3   OH240136   0.316   3.110  16.679  0.2166 -0.0933  0.1408
 5314TIP3    H140137   0.326   3.172  16.751  0.0038  0.8542 -0.6263
 5314TIP3    H240138   0.393   3.123  16.624  0.5603 -1.0616  0.3620
 5315TIP3   OH240139   6.417   1.420  18.527  0.1280  0.0706 -0.1126
 5315TIP3    H140140   6.465   1.441  18.607 -0.0279  0.6427 -0.1669
 5315TIP3    H240141   6.483   1.423  18.458  0.0659  0.6088 -0.1517
 5316TIP3   OH240142   1.725   5.113  18.489 -0.1586 -0.0496 -0.5578
 5316TIP3    H140143   1.665   5.067  18.431  0.2946 -1.9216  0.3597
 5316TIP3    H240144   1.797   5.141  18.433 -0.0465 -1.2284 -1.0260
 5317TIP3   OH240145   5.129   4.569  18.260 -0.3889 -0.4890  0.1695
 5317TIP3    H140146   5.038   4.547  18.279 -0.0916 -0.7367  1.3904
 5317TIP3    H240147   5.178   4.536  18.335  0.1845  3.5986  1.8867
 5318TIP3   OH240148   1.837   1.204  18.261 -0.1275  0.1947 -0.2783
 5318TIP3    H140149   1.807   1.258  18.334 -2.3449  0.4465 -1.3124
 5318TIP3    H240150   1.872   1.125  18.303  0.9076  1.3411  1.1368
 5319TIP3   OH240151   0.665   0.447  18.049  0.0409  0.1112  0.0510
 5319TIP3    H140152   0.576   0.483  18.045  1.1065  3.3105  2.0543
 5319TIP3    H240153   0.719   0.511  18.003  1.4877 -1.3683 -0.4050
 5320TIP3   OH240154   4.238   4.300  17.343  0.0601  0.2387  0.5284
 5320TIP3    H140155   4.263   4.392  17.351  0.8623  0.2773 -1.6384
 5320TIP3    H240156   4.198   4.293  17.256  0.9102 -1.6120  0.2248
 5321TIP3   OH240157   3.361   4.832  19.113  0.1521  0.1381  0.3935
 5321TIP3    H140158   3.339   4.748  19.155 -1.1489  1.3579  2.3466
 5321TIP3    H240159   3.285   4.851  19.059  0.5546 -0.0327 -0.2423
 5322TIP3   OH240160   2.021   4.988  17.781 -0.0166 -0.2059 -0.0146
 5322TIP3    H140161   2.090   5.040  17.824 -0.1087 -0.3660  0.3238
 5322TIP3    H240162   1.947   5.049  17.774 -0.6019 -0.6751  1.6201
 5323TIP3   OH240163   0.978   4.277  19.206 -0.5219  0.3270  0.6118
 5323TIP3    H140164   0.927   4.200  19.229  1.3906 -0.9533  0.8136
 5323TIP3    H240165   1.006   4.262  19.116  0.3399  0.4994  0.8402
 5324TIP3   OH240166   5.723   6.523  18.143  0.3727  0.0718 -0.5834
 5324TIP3    H140167   5.701   6.477  18.224  1.4125  1.7083  0.7045
 5324TIP3    H240168   5.672   6.604  18.147  2.0156  1.1504 -0.4689
 5325TIP3   OH240169   6.360   6.520  15.755  0.0156 -0.3707 -0.4634
 5325TIP3    H140170   6.362   6.608  15.793 -1.2528 -0.1806 -0.8014
 5325TIP3    H240171   6.321   6.533  15.668 -0.1456 -1.2655 -0.5301
 5326TIP3   OH240172   4.724   5.577  16.721 -0.6771 -0.1165  0.1038
 5326TIP3    H140173   4.780   5.655  16.717  0.1221 -0.6514  0.5532
 5326TIP3    H240174   4.785   5.505  16.737 -1.6256 -0.5429  2.1245
 5327TIP3   OH240175   1.093   6.037  16.043  0.0337  0.0046 -0.1205
 5327TIP3    H140176   1.137   6.074  16.119  0.3687 -0.7706  0.0747
 5327TIP3    H240177   1.079   6.111  15.984  2.4408  0.1265 -0.6136
 5328TIP3   OH240178   5.415   3.074  17.014  0.7211  0.1037 -0.1517
 5328TIP3    H140179   5.321   3.070  16.999  0.6235  0.0991  0.4515
 5328TIP3    H240180   5.445   3.146  16.959  0.3854  0.0313 -0.4315
 5329TIP3   OH240181   4.858   0.208  18.195  0.2840  0.0845 -0.4596
 5329TIP3    H140182   4.885   0.228  18.285  0.1692 -0.6356 -0.2522
 5329TIP3    H240183   4.929   0.153  18.161  1.2468  1.8806 -1.4672
 5330TIP3   OH240184   1.348   5.018  19.055  0.1996 -0.4679 -0.1688
 5330TIP3    H140185   1.257   4.995  19.033 -0.3522 -0.9991  2.4364
 5330TIP3    H240186   1.346   5.113  19.067 -0.1392 -0.5570  0.4685
 5331TIP3   OH240187   0.480   4.957  16.460  0.7710 -0.2998 -0.0764
 5331TIP3    H140188   0.435   4.872  16.464  1.3327 -0.8571 -3.0362
 5331TIP3    H240189   0.411   5.021  16.474 -0.0434 -1.2243  0.2880
 5332TIP3   OH240190   5.483   4.386  18.566 -0.2128 -0.1591 -0.1567
 5332TIP3    H140191   5.558   4.326  18.560 -0.7812 -0.8486 -0.4391
 5332TIP3    H240192   5.522   4.470  18.593  0.6586 -0.5072 -0.2960
 5333TIP3   OH240193   2.623   6.258  15.681 -0.0828 -0.1624 -0.2412
 5333TIP3    H140194   2.592   6.200  15.752  0.6862  0.2182  0.4181
 5333TIP3    H240195   2.702   6.216  15.649  0.9336  0.9057  0.7819
 5334TIP3   OH240196   1.867   1.247  19.545 -0.3209  0.3437  0.7419
 5334TIP3    H140197   1.800   1.195  19.588 -0.8234 -0.5829 -1.0522
 5334TIP3    H240198   1.949   1.201  19.562 -0.5023  0.0230  0.7402
 5335TIP3   OH240199   1.094   2.462  17.176 -0.3135 -0.4133  0.2405
 5335TIP3    H140200   1.168   2.501  17.224 -0.6073 -0.8585  1.0829
 5335TIP3    H240201   1.112   2.368  17.178 -0.9054 -0.5223  0.4584
 5336TIP3   OH240202   2.377   4.413  17.671 -0.4113  0.5388  0.0994
 5336TIP3    H140203   2.390   4.496  17.716 -0.5320  0.3458  0.4974
 5336TIP3    H240204   2.369   4.436  17.579  1.6264  0.7679 -0.0518
 5337TIP3   OH240205   1.537   2.379  19.499  0.1701 -0.5235 -0.1851
 5337TIP3    H140206   1.586   2.462  19.500 -0.7066  0.0253  1.1842
 5337TIP3    H240207   1.448   2.405  19.474  0.3043 -1.3423 -1.5700
 5338TIP3   OH240208   2.574   1.280  19.155 -0.1070  0.0656 -0.0811
 5338TIP3    H140209   2.537   1.192  19.163  0.1420  0.0030  0.4534
 5338TIP3    H240210   2.641   1.284  19.224 -0.3317  0.7850  0.1012
 5339TIP3   OH240211   4.068   3.468  16.645  0.4190  0.2506  0.6006
 5339TIP3    H140212   4.048   3.413  16.570 -1.3083 -0.4760  1.5564
 5339TIP3    H240213   4.079   3.556  16.608 -0.3319 -0.1074 -0.5028
 5340TIP3   OH240214   0.472   1.555  16.466 -0.4981 -0.3816  0.3672
 5340TIP3    H140215   0.442   1.493  16.400 -1.1214 -0.8749  1.1042
 5340TIP3    H240216   0.505   1.501  16.538  0.5783  0.1531  0.2971
 5341TIP3   OH240217   0.949   5.482  16.866  0.6237  0.2565  0.2345
 5341TIP3    H140218   0.924   5.393  16.841 -0.2915  0.5962 -0.0663
 5341TIP3    H240219   1.022   5.503  16.808 -0.6772  0.5775 -1.3380
 5342TIP3   OH240220   0.755   0.458  16.291 -0.0462  0.1892 -0.2572
 5342TIP3    H140221   0.832   0.515  16.291 -0.2528  0.5125  1.2595
 5342TIP3    H240222   0.690   0.506  16.239  0.8171 -0.2072 -1.7748
 5343TIP3   OH240223   4.344   1.835  16.923  0.0340 -0.7656 -0.3397
 5343TIP3    H140224   4.307   1.755  16.958 -1.2895  0.1319  0.3684
 5343TIP3    H240225   4.269   1.887  16.896  0.5786  1.6856  2.3653
 5344TIP3   OH240226   1.877   0.240  17.673 -0.4558  0.0045 -0.5661
 5344TIP3    H140227   1.908   0.201  17.755  2.0253  1.5286 -0.6954
 5344TIP3    H240228   1.952   0.235  17.614 -1.9012 -0.1786 -2.4665
 5345TIP3   OH240229   0.157   1.414  18.272 -0.3653 -0.6587  0.5353
 5345TIP3    H140230   0.125   1.491  18.321  2.4592  0.5610  0.6651
 5345TIP3    H240231   0.247   1.404  18.301  0.1943 -2.3491 -1.5670
 5346TIP3   OH240232   6.561   6.176  16.834  0.1912  0.2797  0.3911
 5346TIP3    H140233   6.472   6.163  16.868 -0.7500  1.9965 -1.2588
 5346TIP3    H240234   6.582   6.092  16.793 -1.3507  0.3504 -0.6335
 5347TIP3   OH240235   3.013   1.055  18.830 -0.1962 -0.1486 -0.0883
 5347TIP3    H140236   2.998   1.149  18.837 -0.8335  0.1346 -3.4737
 5347TIP3    H240237   3.062   1.032  18.909 -0.4256  2.9056  1.0645
 5348TIP3   OH240238   5.922   3.228  19.155  0.4856 -0.1779  0.5041
 5348TIP3    H140239   5.926   3.279  19.236  0.2557  0.4066  0.1501
 5348TIP3    H240240   5.829   3.208  19.143  0.2406  1.3614 -0.5919
 5349TIP3   OH240241   3.709   5.742  19.380  1.0221  0.1636 -0.9450
 5349TIP3    H140242   3.736   5.696  19.301  0.2219 -0.7644 -0.7043
 5349TIP3    H240243   3.613   5.749  19.373  0.9169 -0.0897  0.0144
 5350TIP3   OH240244   2.944   5.882  19.094 -0.4050  0.3239 -0.3298
 5350TIP3    H140245   2.895   5.953  19.052  1.3434  0.8686 -1.5324
 5350TIP3    H240246   3.017   5.926  19.137  0.8685 -0.7392 -1.3424
 5351TIP3   OH240247   2.960   6.104  17.395  0.4437  0.0238  0.3757
 5351TIP3    H140248   2.934   6.016  17.367 -1.0160  0.4205  0.3977
 5351TIP3    H240249   2.971   6.153  17.313 -1.7401  0.6093  0.3711
 5352TIP3   OH240250   5.449   5.862  16.572 -0.1912  0.1139 -0.2884
 5352TIP3    H140251   5.362   5.849  16.533 -0.7317 -0.7216  1.1217
 5352TIP3    H240252   5.444   5.949  16.611 -0.3155  0.1645 -0.4142
 5353TIP3   OH240253   5.625   4.187  18.453  0.3284  0.1269  0.0408
 5353TIP3    H140254   5.544   4.139  18.437  0.3265 -0.4387  1.6083
 5353TIP3    H240255   5.693   4.120  18.451  0.6259  0.4317 -0.1412
 5354TIP3   OH240256   6.530   5.869  17.578  0.1575 -0.0567 -0.0054
 5354TIP3    H140257   6.613   5.835  17.610  0.4369  0.7325  0.1493
 5354TIP3    H240258   6.468   5.856  17.650  0.2381 -0.3096  0.0168
 5355TIP3   OH240259   1.768   4.750  17.709 -0.4454 -0.1772  0.4851
 5355TIP3    H140260   1.816   4.667  17.712  0.1632  0.1234 -0.4787
 5355TIP3    H240261   1.834   4.816  17.730 -0.7142  0.1334  0.3592
 5356TIP3   OH240262   3.538   0.567  16.187  0.3652 -0.5208 -0.4352
 5356TIP3    H140263   3.566   0.653  16.156  2.7225 -0.7075  0.9171
 5356TIP3    H240264   3.476   0.536  16.121  0.3447  1.6994 -1.5465
 5357TIP3   OH240265   6.259   1.378  17.504 -0.4813 -0.0156  0.0738
 5357TIP3    H140266   6.206   1.407  17.578  1.4604 -0.7893  1.8671
 5357TIP3    H240267   6.222   1.293  17.481  0.3288 -0.8804  1.7735
 5358TIP3   OH240268   5.120   0.152  16.888  0.0981  0.5138 -0.8033
 5358TIP3    H140269   5.077   0.069  16.907 -0.4858  0.7340 -1.1395
 5358TIP3    H240270   5.087   0.211  16.956  0.0936  0.6072 -0.8872
 5359TIP3   OH240271   3.089   2.470  19.092  0.5144 -0.2152  0.5441
 5359TIP3    H140272   3.023   2.414  19.134  1.7613 -0.9554  1.5900
 5359TIP3    H240273   3.084   2.447  18.999 -1.7377  0.8643  0.3376
 5360TIP3   OH240274   4.805   3.021  19.179 -0.3436  0.1601  0.1606
 5360TIP3    H140275   4.785   3.015  19.086 -0.6137 -1.0613  0.2832
 5360TIP3    H240276   4.740   3.082  19.214 -1.0096 -0.3090 -0.2420
 5361TIP3   OH240277   5.557   4.065  16.826 -1.3802 -0.0236  0.3422
 5361TIP3    H140278   5.503   4.144  16.824 -0.9320  0.2802 -0.6106
 5361TIP3    H240279   5.613   4.075  16.903 -1.5712  0.4197  0.4259
 5362TIP3   OH240280   0.111   1.087  17.641  0.0195 -0.4673 -0.5193
 5362TIP3    H140281   0.103   1.046  17.554 -1.2739 -0.5101 -0.3884
 5362TIP3    H240282   0.095   1.015  17.702 -1.1748  0.0054 -0.2730
 5363TIP3   OH240283   2.554   3.679  17.680 -0.2752 -0.2146  0.0517
 5363TIP3    H140284   2.634   3.631  17.702  0.6385  0.7348 -1.0045
 5363TIP3    H240285   2.543   3.664  17.586 -0.8658  0.3356  0.0294
 5364TIP3   OH240286   1.640   0.869  18.670 -0.3654  0.7011  0.0780
 5364TIP3    H140287   1.635   0.918  18.588 -0.3035 -1.2649 -1.1864
 5364TIP3    H240288   1.708   0.913  18.720  1.2421  0.6778 -1.9158
 5365TIP3   OH240289   3.724   3.875  19.161  0.3841 -0.0986 -0.4531
 5365TIP3    H140290   3.704   3.854  19.069  0.4328 -0.0573 -0.4731
 5365TIP3    H240291   3.796   3.817  19.184 -0.5432 -1.0983 -0.0088
 5366TIP3   OH240292   6.366   3.467  16.830  0.2821  0.3169  0.2705
 5366TIP3    H140293   6.319   3.530  16.776  1.1887  0.1242 -0.7886
 5366TIP3    H240294   6.316   3.462  16.911  0.6349  3.0795  0.7725
 5367TIP3   OH240295   1.217   5.024  17.382  0.1978  0.1622  0.1813
 5367TIP3    H140296   1.154   5.096  17.393  0.7837  0.7816 -0.4757
 5367TIP3    H240297   1.302   5.067  17.377  0.4002 -0.3862 -2.1693
 5368TIP3   OH240298   3.850   3.079  16.717  0.0069 -0.2586 -0.2134
 5368TIP3    H140299   3.775   3.029  16.750  1.0541 -1.8055 -0.0573
 5368TIP3    H240300   3.826   3.102  16.628 -0.8797 -0.2436  0.0164
 5369TIP3   OH240301   3.925   3.720  19.059  0.1640  0.5391  0.1923
 5369TIP3    H140302   3.861   3.720  18.987  0.0308  0.3673  0.3084
 5369TIP3    H240303   4.009   3.740  19.017  0.3301 -0.9254 -0.2472
 5370TIP3   OH240304   5.154   1.017  15.525 -0.5566  0.1361  0.0142
 5370TIP3    H140305   5.202   1.048  15.601  0.2263 -0.4269 -0.2440
 5370TIP3    H240306   5.185   1.071  15.452 -0.0616 -0.4569 -0.2157
 5371TIP3   OH240307   3.754   6.508  17.334 -0.0268 -0.4163 -0.1071
 5371TIP3    H140308   3.711   6.422  17.338 -0.1324 -0.4513 -1.3239
 5371TIP3    H240309   3.716   6.557  17.406  0.8816 -1.7464  1.3432
 5372TIP3   OH240310   0.669   0.718  17.298  0.8911 -0.0017  0.0408
 5372TIP3    H140311   0.588   0.758  17.330 -1.0807 -3.0407 -0.7917
 5372TIP3    H240312   0.716   0.692  17.377  0.8750  1.3072  0.5185
 5373TIP3   OH240313   3.859   6.016  19.113 -0.2156  0.8873 -0.3345
 5373TIP3    H140314   3.796   6.034  19.183  0.0927 -0.3142  0.2745
 5373TIP3    H240315   3.935   6.070  19.135  0.9590 -1.4549  1.8377
 5374TIP3   OH240316   5.724   1.234  16.969  0.2365  0.7057  0.8819
 5374TIP3    H140317   5.819   1.224  16.963 -0.0169 -2.9865  0.7667
 5374TIP3    H240318   5.695   1.235  16.878 -0.0375 -3.6855  0.6985
 5375TIP3   OH240319   1.855   5.426  17.270 -0.1492 -0.4484 -0.1530
 5375TIP3    H140320   1.844   5.382  17.186 -0.9133  1.4673 -1.1247
 5375TIP3    H240321   1.949   5.446  17.274 -0.2745  0.4720 -1.1474
 5376TIP3   OH240322   2.867   3.536  19.054  0.1221 -0.3999 -0.3799
 5376TIP3    H140323   2.917   3.509  18.978 -0.8984 -0.6632 -0.9831
 5376TIP3    H240324   2.798   3.592  19.019 -0.4449 -0.6417  0.3218
 5377TIP3   OH240325   3.052   1.420  19.467 -0.0801  0.0454  0.5091
 5377TIP3    H140326   3.069   1.495  19.409  0.2709 -1.0194 -0.8391
 5377TIP3    H240327   3.139   1.384  19.485 -0.2805 -0.3399  0.7194
 5378TIP3   OH240328   3.032   5.287  19.179 -0.2270  0.2139 -0.2037
 5378TIP3    H140329   2.960   5.226  19.161  0.8052 -0.8307 -0.9276
 5378TIP3    H240330   3.049   5.276  19.273  0.0452 -0.7371 -0.3548
 5379TIP3   OH240331   4.161   6.260  17.430  0.5106 -0.3175  0.3202
 5379TIP3    H140332   4.104   6.228  17.361  0.6184 -0.8966  0.4993
 5379TIP3    H240333   4.113   6.335  17.467 -0.4271 -1.1730  0.8838
 5380TIP3   OH240334   3.740   1.448  18.875  0.0761 -0.4728 -0.2155
 5380TIP3    H140335   3.751   1.366  18.827 -1.8009 -1.1424  0.4059
 5380TIP3    H240336   3.659   1.485  18.841  0.7141  0.9562 -0.2259
 5381TIP3   OH240337   0.833   3.132  17.204  0.0815  0.2404  0.0326
 5381TIP3    H140338   0.911   3.182  17.226 -0.0637  0.7816 -0.6292
 5381TIP3    H240339   0.864   3.064  17.144 -0.1494  1.3995 -1.4877
 5382TIP3   OH240340   2.846   3.218  18.286  0.3199  0.0291  0.2889
 5382TIP3    H140341   2.845   3.156  18.359 -0.1916  1.8563  1.9253
 5382TIP3    H240342   2.875   3.167  18.210 -0.4864 -2.2719  1.4619
 5383TIP3   OH240343   5.053   2.775  17.243 -0.2634  0.0151 -0.5270
 5383TIP3    H140344   5.148   2.760  17.243 -0.2954 -0.1945 -0.5462
 5383TIP3    H240345   5.016   2.689  17.226 -0.4859 -0.1068  0.5340
 5384TIP3   OH240346   0.225   0.030  17.453  0.1804  0.1636  0.3102
 5384TIP3    H140347   0.172  -0.030  17.402 -1.0200  0.9193  0.6364
 5384TIP3    H240348   0.254  -0.021  17.529 -0.7698 -0.0287  0.5522
 5385TIP3   OH240349   1.798   0.024  17.060  0.1122  0.5662 -0.2561
 5385TIP3    H140350   1.825  -0.058  17.101 -0.2345  0.5401 -0.0773
 5385TIP3    H240351   1.869   0.085  17.078  0.8144  0.0569 -1.1827
 5386TIP3   OH240352   3.708   1.095  18.230 -0.7134  0.1611 -0.1619
 5386TIP3    H140353   3.803   1.088  18.239 -0.7311  1.0156  1.0263
 5386TIP3    H240354   3.695   1.168  18.170 -0.6370 -1.2833 -2.0187
 5387TIP3   OH240355   0.575   1.361  18.814 -0.1596 -0.4589  0.2819
 5387TIP3    H140356   0.524   1.441  18.815  0.9928  0.3986 -2.0189
 5387TIP3    H240357   0.665   1.389  18.831  0.1596 -1.3397  0.1066
 5388TIP3   OH240358   5.757   0.890  16.794  0.3912  0.1714 -0.2024
 5388TIP3    H140359   5.764   0.798  16.767 -0.0762  0.0752 -0.0156
 5388TIP3    H240360   5.823   0.900  16.862 -0.9472 -0.6154  1.2927
 5389TIP3   OH240361   2.265   1.132  19.303  0.0579  0.4141  0.0689
 5389TIP3    H140362   2.328   1.196  19.337 -0.0911  0.4256  0.3226
 5389TIP3    H240363   2.317   1.053  19.288  0.6767  1.1554 -2.1190
 5390TIP3   OH240364   1.231   3.770  19.558 -0.4323  0.3532 -0.4165
 5390TIP3    H140365   1.318   3.734  19.576 -0.5510  1.3248  2.7884
 5390TIP3    H240366   1.248   3.856  19.522 -0.0534  0.2789 -0.4209
 5391TIP3   OH240367   0.720   2.761   9.490  0.1480  0.9152 -0.1950
 5391TIP3    H140368   0.652   2.694   9.488  0.7211  0.3577 -1.2556
 5391TIP3    H240369   0.801   2.715   9.469  1.0067  1.4369  1.6873
 5392TIP3   OH240370   3.759   4.467   9.103  0.5499  0.2813  0.3018
 5392TIP3    H140371   3.851   4.440   9.104  0.1924 -1.2618 -2.0200
 5392TIP3    H240372   3.761   4.556   9.067  1.0938 -0.0221 -0.4412
 5393TIP3   OH240373   0.843   1.475   7.545 -0.3839  0.0164 -0.2318
 5393TIP3    H140374   0.833   1.569   7.532 -0.1785 -0.0762 -1.1751
 5393TIP3    H240375   0.777   1.436   7.488  0.6150 -0.4330 -1.1062
 5394TIP3   OH240376   0.878   4.092   8.756 -0.2655  0.0617 -0.0438
 5394TIP3    H140377   0.860   4.015   8.702 -1.8030 -0.1622  0.7536
 5394TIP3    H240378   0.972   4.107   8.744  0.4164 -2.8131  0.8914
 5395TIP3   OH240379   5.409   1.514   8.291  0.0571  0.0457 -0.2299
 5395TIP3    H140380   5.346   1.565   8.239 -1.2253 -1.0106  0.2268
 5395TIP3    H240381   5.442   1.576   8.355 -2.7425 -0.0061  1.4093
 5396TIP3   OH240382   1.287   2.869  10.263  0.1435  0.3486 -0.0090
 5396TIP3    H140383   1.337   2.790  10.245  2.7593  1.3353  2.2119
 5396TIP3    H240384   1.201   2.853  10.224  1.1567 -2.7726 -1.2426
 5397TIP3   OH240385   6.266   0.672  10.208 -0.2909 -0.3547 -0.2206
 5397TIP3    H140386   6.239   0.674  10.116  0.9436  0.1285 -0.5947
 5397TIP3    H240387   6.256   0.580  10.234 -0.6154 -0.4997 -0.8335
 5398TIP3   OH240388   1.285   4.682  10.901 -0.3885  0.2011  0.0260
 5398TIP3    H140389   1.212   4.621  10.888 -0.2887  0.1259 -0.1710
 5398TIP3    H240390   1.305   4.676  10.995 -0.9033  0.5233  0.1612
 5399TIP3   OH240391   4.942   2.099   8.313 -0.4215  0.4019 -0.0633
 5399TIP3    H140392   5.011   2.117   8.377 -1.4277  1.4517  0.7539
 5399TIP3    H240393   4.944   2.004   8.301  0.2313  0.2705  1.0056
 5400TIP3   OH240394   1.683   2.930  10.301  0.3791  0.1342  0.2108
 5400TIP3    H140395   1.653   3.020  10.316  0.0814 -0.1117  1.1423
 5400TIP3    H240396   1.658   2.912  10.211  2.0407  1.6005 -0.6061
 5401TIP3   OH240397   5.993   1.795  11.146  0.0746 -0.1657 -0.1110
 5401TIP3    H140398   6.069   1.779  11.090 -0.1862 -0.3332 -0.4182
 5401TIP3    H240399   6.008   1.883  11.182 -0.3321  0.4586 -1.3878
 5402TIP3   OH240400   3.292   0.403   8.549 -0.5734  0.1621  0.6122
 5402TIP3    H140401   3.257   0.434   8.633  1.3073  0.5517  1.2932
 5402TIP3    H240402   3.341   0.477   8.514  0.3707 -0.6400  0.1731
 5403TIP3   OH240403   2.924   3.807  10.525 -0.3244 -0.0050 -0.3084
 5403TIP3    H140404   2.912   3.732  10.467 -0.5977 -0.5872  0.4707
 5403TIP3    H240405   2.835   3.840  10.540 -0.2120  0.4387 -0.5936
 5404TIP3   OH240406   1.053   0.741   8.434 -0.1202  0.5145 -0.1461
 5404TIP3    H140407   0.991   0.703   8.496  0.1081  0.0806 -0.1788
 5404TIP3    H240408   1.139   0.722   8.471  0.0802 -1.2209 -1.4181
 5405TIP3   OH240409   5.251   4.362   9.922 -0.0249  0.3439 -0.1770
 5405TIP3    H140410   5.212   4.392   9.840 -0.7160  2.3543  0.8144
 5405TIP3    H240411   5.183   4.311   9.964  0.1169 -0.1687 -0.5518
 5406TIP3   OH240412   3.142   4.519   9.803  0.2133  0.3389 -0.3460
 5406TIP3    H140413   3.147   4.614   9.803  0.3763  0.4279 -3.4126
 5406TIP3    H240414   3.051   4.500   9.826  0.3031  1.1680  0.7914
 5407TIP3   OH240415   1.853   6.073  11.104  0.4001  0.6619 -0.6004
 5407TIP3    H140416   1.819   6.057  11.016 -1.6350 -1.0007  0.4229
 5407TIP3    H240417   1.785   6.041  11.163  1.5029  2.1408  1.6235
 5408TIP3   OH240418   1.205   2.544  10.380  0.3450 -0.0411 -1.1968
 5408TIP3    H140419   1.227   2.597  10.456  1.0471  0.0556 -1.4516
 5408TIP3    H240420   1.285   2.495  10.362 -0.5089 -1.7619 -0.5181
 5409TIP3   OH240421   2.979   2.983   9.050  0.3369  0.4226 -0.1536
 5409TIP3    H140422   3.068   3.016   9.064  1.2532 -1.4166 -1.3138
 5409TIP3    H240423   2.934   3.053   9.003  0.2716  2.4973  2.6943
 5410TIP3   OH240424   2.306   6.001   8.580  1.0481  0.8842  0.1699
 5410TIP3    H140425   2.285   5.917   8.539  2.0201 -0.2655  1.9054
 5410TIP3    H240426   2.227   6.054   8.568 -0.6536 -1.2230  1.4100
 5411TIP3   OH240427   3.727   6.154  10.323 -0.1116  0.1606  0.2413
 5411TIP3    H140428   3.670   6.221  10.358  0.6090  0.6651  0.4674
 5411TIP3    H240429   3.799   6.147  10.386 -1.4040 -2.6511  1.6156
 5412TIP3   OH240430   6.718   5.240   9.428  0.6463 -0.2146  0.0615
 5412TIP3    H140431   6.708   5.214   9.519 -0.9922  1.0724  0.2932
 5412TIP3    H240432   6.685   5.329   9.424  0.0040 -0.4762 -1.9241
 5413TIP3   OH240433   3.046   3.597   8.233  0.0050  0.2056 -0.4804
 5413TIP3    H140434   3.009   3.529   8.177  0.0055 -0.4064  0.2368
 5413TIP3    H240435   2.972   3.652   8.257 -0.3564 -0.6653  0.4684
 5414TIP3   OH240436   2.063   0.159   8.347  0.0020  0.1747 -0.2231
 5414TIP3    H140437   2.136   0.189   8.293 -1.3740  1.2617 -1.5567
 5414TIP3    H240438   2.043   0.072   8.315 -0.6412  0.7155 -1.3306
 5415TIP3   OH240439   2.528   6.134  10.805 -0.3645 -0.2463  0.0885
 5415TIP3    H140440   2.517   6.187  10.727 -2.2136 -2.4625 -1.3133
 5415TIP3    H240441   2.622   6.131  10.820 -0.0162  0.7573 -1.6718
 5416TIP3   OH240442   0.019   1.450  10.590 -0.6397 -0.2760  0.5170
 5416TIP3    H140443  -0.013   1.449  10.680 -1.2928 -0.9083  0.2841
 5416TIP3    H240444  -0.001   1.538  10.559 -0.2149  0.0191  1.0516
 5417TIP3   OH240445   4.750   3.973   8.432  0.9459 -0.3248  0.3244
 5417TIP3    H140446   4.684   4.040   8.451 -1.8043 -2.4107 -1.0102
 5417TIP3    H240447   4.800   4.009   8.359 -0.1837  0.4944 -0.0859
 5418TIP3   OH240448   4.440   3.809   9.535  0.2647 -0.2000 -0.0665
 5418TIP3    H140449   4.375   3.838   9.599 -1.5849 -0.6219 -1.6852
 5418TIP3    H240450   4.446   3.714   9.550  0.0789 -0.2482 -0.3015
 5419TIP3   OH240451   2.311   1.626  10.121  0.7992 -0.3270 -0.0503
 5419TIP3    H140452   2.252   1.610  10.048  1.2153  1.7992 -0.9281
 5419TIP3    H240453   2.335   1.719  10.113  2.1088 -0.4382  1.8606
 5420TIP3   OH240454   6.562   3.067  10.568 -0.1596 -0.0058  0.0434
 5420TIP3    H140455   6.468   3.086  10.560 -0.5918 -1.6469  0.7500
 5420TIP3    H240456   6.598   3.142  10.615 -0.8549  1.2503 -1.3365
 5421TIP3   OH240457   3.492   0.173  10.226 -0.2104  0.5550 -0.2529
 5421TIP3    H140458   3.440   0.239  10.271 -0.8897 -1.1414  1.6395
 5421TIP3    H240459   3.577   0.176  10.269 -1.2035 -1.8513  2.1982
 5422TIP3   OH240460   0.466   2.609  10.388  0.2543  0.2241 -0.1065
 5422TIP3    H140461   0.377   2.633  10.416 -0.0021 -0.3764 -0.3725
 5422TIP3    H240462   0.489   2.535  10.444  0.6585  0.4935  0.0803
 5423TIP3   OH240463   2.017   1.041  10.304 -0.2177  0.1822 -0.8782
 5423TIP3    H140464   1.998   1.049  10.211 -1.2068 -2.0786 -0.9327
 5423TIP3    H240465   1.931   1.033  10.345  0.2618 -0.0632  0.0982
 5424TIP3   OH240466   4.622   2.863  11.142 -0.3312  0.3420 -0.0832
 5424TIP3    H140467   4.668   2.848  11.225 -0.7605 -0.5182  0.0086
 5424TIP3    H240468   4.648   2.952  11.117  1.8144 -0.2793 -0.3053
 5425TIP3   OH240469   3.948   2.215   8.603  0.1185  0.1950 -0.4158
 5425TIP3    H140470   3.962   2.130   8.561  0.6287  0.2535 -0.3663
 5425TIP3    H240471   4.013   2.219   8.673 -0.3719  0.3312  0.0358
 5426TIP3   OH240472   4.184   0.807  10.130  0.2524 -0.0524 -0.0127
 5426TIP3    H140473   4.168   0.874  10.063  1.9555 -0.6282 -1.0719
 5426TIP3    H240474   4.224   0.855  10.202  0.2961  0.2684 -0.2444
 5427TIP3   OH240475   0.760   5.501   8.291 -0.3679  0.4664  0.1881
 5427TIP3    H140476   0.722   5.426   8.336 -1.8726  0.4123 -1.1043
 5427TIP3    H240477   0.783   5.562   8.362 -0.9080 -0.4015  1.1332
 5428TIP3   OH240478   5.494   5.085  10.454  0.7573  0.3014  0.1610
 5428TIP3    H140479   5.410   5.091  10.408  0.9061  2.0580  0.0644
 5428TIP3    H240480   5.471   5.092  10.546  0.6575 -1.0599  0.2596
 5429TIP3   OH240481   2.141   6.118   8.222  0.1060  0.2226 -0.6340
 5429TIP3    H140482   2.139   6.191   8.161 -2.5457  1.3718  0.6596
 5429TIP3    H240483   2.059   6.071   8.207 -0.5247  0.3983  1.7832
 5430TIP3   OH240484   1.326   0.733   8.509  0.1829 -0.6611  0.0849
 5430TIP3    H140485   1.333   0.757   8.417 -1.6361  1.3528  0.3915
 5430TIP3    H240486   1.404   0.772   8.549 -0.6134  1.3081 -0.1470
 5431TIP3   OH240487   3.441   3.768   8.875 -0.0707  0.2098  0.1794
 5431TIP3    H140488   3.445   3.862   8.857 -0.9039 -0.0582 -1.6476
 5431TIP3    H240489   3.523   3.733   8.840  0.0702  0.2094  0.5105
 5432TIP3   OH240490   1.156   1.200  10.738  0.4095  0.3380  0.5564
 5432TIP3    H140491   1.117   1.247  10.665 -0.3641 -0.5528  0.3765
 5432TIP3    H240492   1.224   1.259  10.771  0.3599  1.0064 -0.4888
 5433TIP3   OH240493   1.780   2.920   9.096  0.3227  0.3372 -0.0590
 5433TIP3    H140494   1.845   2.945   9.031 -0.1929  1.1457 -0.2758
 5433TIP3    H240495   1.736   2.843   9.058 -0.2739  1.0641 -0.8787
 5434TIP3   OH240496   5.425   5.700  10.018  0.6290  0.1477 -0.2061
 5434TIP3    H140497   5.451   5.638  10.086  2.2054  1.4567  0.4471
 5434TIP3    H240498   5.493   5.693   9.951  0.5524  0.7989 -0.3612
 5435TIP3   OH240499   2.499   5.188   9.095 -0.4465 -0.2374  0.2898
 5435TIP3    H140500   2.436   5.226   9.157 -1.2505 -0.4155 -0.3897
 5435TIP3    H240501   2.519   5.260   9.035  0.4163 -0.0332  0.8095
 5436TIP3   OH240502   3.064   5.530   9.233 -0.1059  0.8276 -0.5083
 5436TIP3    H140503   3.069   5.615   9.190 -0.3601  0.1158 -2.0202
 5436TIP3    H240504   3.117   5.472   9.177 -1.3162 -0.3614 -0.4684
 5437TIP3   OH240505   5.002   4.258   9.474 -0.7349 -0.1037  0.4207
 5437TIP3    H140506   4.973   4.319   9.542  0.2538  0.5976  0.2298
 5437TIP3    H240507   5.072   4.305   9.428 -1.4079 -0.5427 -1.1111
 5438TIP3   OH240508   2.338   2.522  10.771 -0.4943 -0.2860 -0.0633
 5438TIP3    H140509   2.354   2.588  10.839 -1.6332 -0.3015  0.2566
 5438TIP3    H240510   2.330   2.573  10.690  0.8511 -0.2650 -0.2041
 5439TIP3   OH240511   3.334   5.571  10.120 -0.1883  0.0140 -0.2253
 5439TIP3    H140512   3.242   5.588  10.141  0.2524 -0.2753  2.2496
 5439TIP3    H240513   3.380   5.650  10.148  0.3678 -0.0375 -0.9943
 5440TIP3   OH240514   5.236   0.755   9.235  0.3200 -0.1024 -0.1232
 5440TIP3    H140515   5.313   0.715   9.275 -1.4889 -0.4429  3.4020
 5440TIP3    H240516   5.233   0.844   9.270 -1.3394 -0.3952  0.5757
 5441TIP3   OH240517   1.106   4.005  11.935  0.1605 -0.0201  0.0848
 5441TIP3    H140518   1.141   3.926  11.893  1.3665  0.1872  0.6442
 5441TIP3    H240519   1.145   4.077  11.886 -0.3826  0.2383  0.0225
 5442TIP3   OH240520   3.939   3.619   8.240 -0.2145 -0.0406  0.4494
 5442TIP3    H140521   3.904   3.553   8.179  0.5711  0.8374 -1.0111
 5442TIP3    H240522   4.034   3.612   8.230 -0.0567 -0.1180  1.8731
 5443TIP3   OH240523   4.231   3.270  10.975 -0.0939  0.0308 -0.3666
 5443TIP3    H140524   4.317   3.301  11.001 -0.2896  0.5457 -0.3322
 5443TIP3    H240525   4.172   3.302  11.043 -0.2790 -0.5298 -0.2602
 5444TIP3   OH240526   0.606   6.091   8.708 -0.1358  0.1616  0.1594
 5444TIP3    H140527   0.671   6.029   8.674 -0.8323  0.1609 -1.2305
 5444TIP3    H240528   0.658   6.162   8.746  0.6832 -1.2839  1.8862
 5445TIP3   OH240529   1.685   3.175   9.141 -0.0202 -0.4993  0.2194
 5445TIP3    H140530   1.635   3.191   9.061 -1.3437 -0.9769  0.9285
 5445TIP3    H240531   1.723   3.089   9.129 -0.0399 -0.4785  0.0104
 5446TIP3   OH240532   2.516   2.875   7.874  0.2826 -0.4309  0.1112
 5446TIP3    H140533   2.554   2.923   7.948  1.2293 -0.3765 -0.3978
 5446TIP3    H240534   2.461   2.939   7.830 -0.4474 -0.5170  0.8741
 5447TIP3   OH240535   2.716   3.555   8.757 -0.3458  0.5478  0.1075
 5447TIP3    H140536   2.677   3.606   8.686  1.6128  1.7376 -0.1690
 5447TIP3    H240537   2.645   3.498   8.786 -1.4257  0.5556 -2.2725
 5448TIP3   OH240538   0.340   3.213   8.787  0.7423 -0.2603  0.5452
 5448TIP3    H140539   0.248   3.200   8.809  0.0151  1.1988 -1.4022
 5448TIP3    H240540   0.339   3.249   8.698  3.1453  0.6486  0.8168
 5449TIP3   OH240541   2.547   4.988  10.379 -0.0267 -0.4527 -0.2464
 5449TIP3    H140542   2.512   5.014  10.294  0.5146  1.0974 -0.0405
 5449TIP3    H240543   2.540   4.893  10.381 -1.8884 -0.3728 -1.2065
 5450TIP3   OH240544   1.751   5.105  10.765 -0.4688 -0.3724 -0.9246
 5450TIP3    H140545   1.735   5.136  10.854 -1.1405 -1.1437 -0.7635
 5450TIP3    H240546   1.846   5.104  10.757 -0.4170  0.9577 -0.6745
 5451TIP3   OH240547   6.397   3.748   9.569  0.0830 -0.2742 -0.1224
 5451TIP3    H140548   6.363   3.812   9.507  1.7228 -0.4027 -1.2246
 5451TIP3    H240549   6.325   3.686   9.583 -1.1569  1.1701  0.1197
 5452TIP3   OH240550   6.559   2.829   8.374  0.3921  0.3003  0.1939
 5452TIP3    H140551   6.602   2.862   8.296  1.8176  0.1116  0.8653
 5452TIP3    H240552   6.560   2.734   8.364 -0.9380  0.3174 -0.3105
 5453TIP3   OH240553   5.423   0.834  10.888  0.7103 -0.5547 -0.0966
 5453TIP3    H140554   5.367   0.819  10.964  1.1095 -0.1668  0.2816
 5453TIP3    H240555   5.459   0.747  10.868  0.7490 -0.6239  0.2731
 5454TIP3   OH240556   1.151   6.212  10.820 -0.7661  0.7512  0.3094
 5454TIP3    H140557   1.125   6.277  10.886 -0.8612  0.4422  0.5748
 5454TIP3    H240558   1.141   6.259  10.737 -3.4929  0.2724  0.2680
 5455TIP3   OH240559   3.436   6.605   9.782 -0.0896 -0.1964  0.1912
 5455TIP3    H140560   3.347   6.579   9.756  0.4457 -0.8388 -1.1404
 5455TIP3    H240561   3.424   6.662   9.858 -1.4974 -2.3744  1.7296
 5456TIP3   OH240562   2.291   0.125   8.556  0.0359 -0.8096  0.8798
 5456TIP3    H140563   2.310   0.166   8.472  0.3607 -0.2097  1.2425
 5456TIP3    H240564   2.196   0.120   8.560  0.0333 -2.1293 -0.1367
 5457TIP3   OH240565   0.597   0.863   8.616 -0.4645 -0.1969 -0.3793
 5457TIP3    H140566   0.587   0.958   8.606 -0.9776 -0.0778  1.0281
 5457TIP3    H240567   0.634   0.852   8.704 -0.9242 -1.3343 -0.3105
 5458TIP3   OH240568   0.457   5.972   9.819 -0.3813  0.0806  0.3002
 5458TIP3    H140569   0.376   5.927   9.843 -0.0817 -0.1564  0.8641
 5458TIP3    H240570   0.486   5.928   9.739 -0.8789  0.2617  0.0092
 5459TIP3   OH240571   0.034   5.540  10.921 -0.5088  0.0816 -0.3658
 5459TIP3    H140572   0.117   5.546  10.874 -0.5869  1.8681 -0.3553
 5459TIP3    H240573   0.044   5.464  10.979  0.9600  0.0409 -0.6400
 5460TIP3   OH240574   2.439   0.012   9.308 -0.0412  0.3211 -0.2686
 5460TIP3    H140575   2.518   0.054   9.275 -0.0455 -0.7330 -1.6942
 5460TIP3    H240576   2.463  -0.080   9.317 -0.3798  0.3755  1.7010
 5461TIP3   OH240577   6.217   1.151   9.437  0.0483 -0.3996 -0.2771
 5461TIP3    H140578   6.177   1.153   9.524 -0.5842  1.5451 -0.5580
 5461TIP3    H240579   6.308   1.179   9.451  0.3053 -1.2926 -0.1034
 5462TIP3   OH240580   3.950   1.303   9.876 -0.4420 -0.1290  0.2048
 5462TIP3    H140581   3.968   1.348   9.793 -2.1113 -1.1410 -0.7609
 5462TIP3    H240582   4.036   1.294   9.917  0.4966 -0.0136 -1.6387
 5463TIP3   OH240583   0.222   0.254   7.790  0.0523 -0.5969 -0.7371
 5463TIP3    H140584   0.287   0.189   7.817  0.0793 -0.0748  0.5325
 5463TIP3    H240585   0.179   0.280   7.871  0.5165  1.4833 -1.0986
 5464TIP3   OH240586   1.114   0.796  10.262 -0.6310  0.5279 -0.5625
 5464TIP3    H140587   1.051   0.866  10.276 -0.2386  1.9341 -4.6256
 5464TIP3    H240588   1.072   0.737  10.200 -0.2537 -2.0765  1.4448
 5465TIP3   OH240589   3.772   2.931   9.136  0.1263 -0.4237  0.2503
 5465TIP3    H140590   3.819   2.855   9.103 -0.8073 -1.8851  2.1032
 5465TIP3    H240591   3.819   2.956   9.216 -1.1043 -0.7470  1.1042
 5466TIP3   OH240592   0.207   6.681   8.461  0.4845  0.2769  0.3892
 5466TIP3    H140593   0.297   6.700   8.434  0.0827 -1.3705 -2.5987
 5466TIP3    H240594   0.214   6.605   8.518  0.9620 -0.1649 -0.2543
 5467TIP3   OH240595   5.995   2.537  11.754 -0.1827 -0.1540 -0.7224
 5467TIP3    H140596   5.969   2.445  11.744 -0.6173 -0.0377 -0.6431
 5467TIP3    H240597   6.080   2.532  11.798 -0.0739 -0.5275 -0.9674
 5468TIP3   OH240598   3.705   3.808   9.005  0.7682 -0.1677  0.3436
 5468TIP3    H140599   3.769   3.834   8.938  0.9367  0.5971  0.7902
 5468TIP3    H240600   3.698   3.713   8.995  2.9044 -0.4776  1.0815
 5469TIP3   OH240601   6.560   0.531   9.454 -0.3796 -0.4127  0.1644
 5469TIP3    H140602   6.571   0.564   9.543 -0.9289  0.0366  0.0677
 5469TIP3    H240603   6.619   0.456   9.450 -1.9654 -1.8282  1.6294
 5470TIP3   OH240604   2.633   4.039   9.489  0.8391  0.4273  0.2660
 5470TIP3    H140605   2.656   4.101   9.558 -1.0804  2.6363 -0.9213
 5470TIP3    H240606   2.538   4.048   9.480  0.8656 -0.6985 -1.8143
 5471TIP3   OH240607   2.367   1.447  10.448  0.1939 -0.1712 -0.4770
 5471TIP3    H140608   2.367   1.372  10.389 -0.5064  1.0225 -2.0732
 5471TIP3    H240609   2.288   1.496  10.425  0.7313  1.1658  0.3734
 5472TIP3   OH240610   5.095   4.582  11.025 -0.1106  0.1906 -0.1400
 5472TIP3    H140611   5.182   4.619  11.015 -0.3279  0.7324 -0.0780
 5472TIP3    H240612   5.052   4.638  11.090 -1.2150  1.2277 -1.6809
 5473TIP3   OH240613   3.074   1.738   8.957  0.6186 -0.2111 -0.0853
 5473TIP3    H140614   3.041   1.672   9.018 -0.7767  0.7547  0.2542
 5473TIP3    H240615   3.118   1.802   9.014  0.1079  0.2314 -0.1870
 5474TIP3   OH240616   1.329   3.950   9.060 -0.7458 -0.0762  0.0903
 5474TIP3    H140617   1.360   4.035   9.093  0.5819 -0.7825  0.7663
 5474TIP3    H240618   1.239   3.966   9.032 -0.4294  1.6245 -0.0727
 5475TIP3   OH240619   3.813   0.501   9.144  0.2208 -0.2815  0.1919
 5475TIP3    H140620   3.907   0.504   9.127  0.2649 -0.3225  0.4365
 5475TIP3    H240621   3.792   0.408   9.151  0.0007 -0.3174 -0.7675
 5476TIP3   OH240622   0.622   2.852  11.002  0.2535 -0.3756  0.4099
 5476TIP3    H140623   0.566   2.836  11.078 -1.4104  1.9195 -0.2175
 5476TIP3    H240624   0.562   2.873  10.931  1.8512  0.1970 -0.8476
 5477TIP3   OH240625   2.716   4.678   9.024 -0.4172  0.0788  0.3349
 5477TIP3    H140626   2.778   4.709   9.089  0.1691 -0.4288  0.0253
 5477TIP3    H240627   2.649   4.746   9.019  0.1247  0.6352  0.6532
 5478TIP3   OH240628   1.814   2.166   9.193 -0.2844 -0.4650  0.8058
 5478TIP3    H140629   1.829   2.174   9.099  0.9428  0.7689  1.0629
 5478TIP3    H240630   1.750   2.096   9.202  0.8757 -1.8072 -0.8331
 5479TIP3   OH240631   5.788   3.051   8.057  0.1993  0.9985  0.3038
 5479TIP3    H140632   5.826   3.139   8.054  2.8955 -0.0737 -0.6186
 5479TIP3    H240633   5.828   3.011   8.134  0.9616 -0.1700 -0.6632
 5480TIP3   OH240634   0.816   1.441   9.277  0.6151  0.7027 -0.4003
 5480TIP3    H140635   0.855   1.365   9.319  1.6233  0.8406 -1.0372
 5480TIP3    H240636   0.762   1.481   9.344  0.0002 -0.6151 -0.0767
 5481TIP3   OH240637   3.374   2.863  10.555 -0.3005 -0.2527 -0.1936
 5481TIP3    H140638   3.411   2.950  10.539 -2.4354  0.6752 -0.3187
 5481TIP3    H240639   3.444   2.803  10.528  0.9382  1.3925 -0.8446
 5482TIP3   OH240640   5.322   3.594   9.791 -0.4815 -0.0599 -0.3895
 5482TIP3    H140641   5.313   3.647   9.712 -0.4106 -0.5592 -0.7370
 5482TIP3    H240642   5.414   3.567   9.792 -0.5080 -0.1439 -0.1956
 5483TIP3   OH240643   0.470   5.291   7.951 -0.0069  0.8234 -0.1581
 5483TIP3    H140644   0.431   5.310   8.036 -2.3878  1.6207 -1.3400
 5483TIP3    H240645   0.478   5.196   7.948 -1.7646  0.6407  0.2213
 5484TIP3   OH240646   0.104   5.489   9.674 -0.1155 -0.6160  0.5310
 5484TIP3    H140647   0.146   5.404   9.689 -0.0834 -0.4869  1.1644
 5484TIP3    H240648   0.168   5.538   9.622  0.0430 -0.8213  0.5306
 5485TIP3   OH240649   5.813   4.471   8.926  0.9435 -0.2938  0.1828
 5485TIP3    H140650   5.801   4.428   8.842  0.7300 -0.4400  0.2861
 5485TIP3    H240651   5.802   4.565   8.908 -1.4212 -0.4724  0.4330
 5486TIP3   OH240652   5.521   3.095   8.057 -0.2379  0.5267  0.5169
 5486TIP3    H140653   5.531   3.186   8.085 -0.8215  0.7886 -0.1056
 5486TIP3    H240654   5.607   3.055   8.074  0.1303  1.2842  0.4746
 5487TIP3   OH240655   0.521   2.261   8.721 -0.5139 -0.5108 -0.1817
 5487TIP3    H140656   0.448   2.226   8.773  0.4272 -0.8274  0.9485
 5487TIP3    H240657   0.483   2.337   8.676 -2.0054 -1.6598 -0.9969
 5488TIP3   OH240658   2.416   2.658   8.189 -0.2025  0.0644  0.3381
 5488TIP3    H140659   2.479   2.657   8.117 -0.1922  2.5988  0.1982
 5488TIP3    H240660   2.401   2.751   8.205 -2.2121 -0.4607  1.8757
 5489TIP3   OH240661   3.938   4.090  11.432 -0.2317 -0.5400 -0.1537
 5489TIP3    H140662   3.996   4.045  11.493 -0.0731 -2.0417 -1.3623
 5489TIP3    H240663   3.927   4.178  11.470 -1.0302 -1.7181  2.5792
 5490TIP3   OH240664   4.293   3.248   8.082  0.3608 -0.4644 -0.2756
 5490TIP3    H140665   4.280   3.305   8.158  1.3876 -1.2163  0.4925
 5490TIP3    H240666   4.209   3.204   8.071  0.5711 -1.3741  1.3238
 5491TIP3   OH240667   4.161   1.499   8.685  0.4150  0.1198 -0.3204
 5491TIP3    H140668   4.186   1.569   8.625 -1.3643 -0.2813 -1.6408
 5491TIP3    H240669   4.189   1.529   8.771  1.9549  1.2771 -1.1754
 5492TIP3   OH240670   3.202   4.292   9.929  0.2732 -0.4486  0.4777
 5492TIP3    H140671   3.149   4.296  10.008 -0.5577  0.4932 -0.0977
 5492TIP3    H240672   3.173   4.367   9.877  3.1066  0.9698  0.7135
 5493TIP3   OH240673   5.628   6.193   9.788  0.3078  0.5108  0.2099
 5493TIP3    H140674   5.596   6.121   9.843  0.1421  1.3736  1.2753
 5493TIP3    H240675   5.722   6.195   9.803  0.5297 -0.3567 -0.9105
 5494TIP3   OH240676   2.566   4.556   8.767 -0.4341  0.3696 -0.3927
 5494TIP3    H140677   2.658   4.529   8.764  0.2884  2.6519 -0.6846
 5494TIP3    H240678   2.554   4.590   8.855 -1.1622 -0.3760 -0.1949
 5495TIP3   OH240679   6.471   4.856   8.332  0.0720 -0.0514 -0.1049
 5495TIP3    H140680   6.394   4.905   8.364  1.0508  1.5548 -0.1060
 5495TIP3    H240681   6.457   4.850   8.237 -0.1555  0.0653 -0.0821
 5496TIP3   OH240682   4.934   4.116   9.133  0.0665 -0.3884  0.1571
 5496TIP3    H140683   4.984   4.076   9.063 -3.6851 -2.5112 -1.6309
 5496TIP3    H240684   4.860   4.158   9.089 -3.0399 -2.6991  2.6412
 5497TIP3   OH240685   0.140   2.845   9.631  0.1376 -0.3462 -0.1321
 5497TIP3    H140686   0.069   2.783   9.644 -1.3696  1.2007 -0.6889
 5497TIP3    H240687   0.184   2.850   9.716 -0.5196 -1.1925  0.2668
 5498TIP3   OH240688   5.917   5.743   9.968  0.0603  0.0545  0.3419
 5498TIP3    H140689   5.851   5.702  10.024  0.3721 -0.3174  0.4385
 5498TIP3    H240690   5.993   5.686   9.975  0.5767  0.7645  0.6599
 5499TIP3   OH240691   1.197   5.615   9.971  0.2956  0.2292  0.2346
 5499TIP3    H140692   1.179   5.699  10.014 -2.9810 -0.5546  0.6747
 5499TIP3    H240693   1.245   5.638   9.892  0.4541  2.3948  0.8992
 5500TIP3   OH240694   0.237   5.970  10.186 -0.0801 -0.4691  0.0158
 5500TIP3    H140695   0.179   6.026  10.134  0.7019  1.4857  1.1540
 5500TIP3    H240696   0.188   5.951  10.265  0.0753 -0.4539  0.1168
 5501TIP3   OH240697   3.029   6.678  10.096 -0.5494  0.1440 -0.4467
 5501TIP3    H140698   3.044   6.697  10.004  0.4582  0.8444 -0.1562
 5501TIP3    H240699   2.969   6.604  10.096  2.1198 -2.1933 -1.7216
 5502TIP3   OH240700   2.621   5.389   8.945 -0.1560  0.3779 -0.1641
 5502TIP3    H140701   2.647   5.480   8.935  1.0998  0.1456  0.7585
 5502TIP3    H240702   2.703   5.341   8.951 -0.8022 -0.7984 -0.4783
 5503TIP3   OH240703   4.575   3.101   9.562 -0.0696 -0.1065  0.6693
 5503TIP3    H140704   4.554   3.062   9.647 -0.9285 -0.7358  0.1892
 5503TIP3    H240705   4.573   3.195   9.578 -0.1218 -0.2211  1.3694
 5504TIP3   OH240706   4.750   0.823   9.168 -0.5210 -0.2397 -0.6423
 5504TIP3    H140707   4.783   0.871   9.244 -0.4675 -1.0272 -0.1614
 5504TIP3    H240708   4.768   0.881   9.094 -0.3132  0.4118 -0.0931
 5505TIP3   OH240709   2.438   4.252   8.811 -0.2952 -0.2111 -0.3109
 5505TIP3    H140710   2.454   4.158   8.821 -0.1668 -0.0543  1.0704
 5505TIP3    H240711   2.523   4.289   8.790 -0.3955 -0.4202 -1.1443
 5506TIP3   OH240712   6.694   3.251  10.716 -0.0315  0.1852 -0.0095
 5506TIP3    H140713   6.764   3.255  10.651 -1.1791  0.2311 -1.2734
 5506TIP3    H240714   6.702   3.332  10.765  0.4927  0.4152 -0.4672
 5507TIP3   OH240715   1.065   5.595   8.850  0.3127  0.2009  0.3032
 5507TIP3    H140716   0.974   5.565   8.848  0.4763 -0.2763 -0.1883
 5507TIP3    H240717   1.115   5.519   8.878  0.7038  0.0489 -0.7358
 5508TIP3   OH240718   6.160   1.212   8.827  0.4486  0.1636 -0.7652
 5508TIP3    H140719   6.249   1.236   8.851 -0.4879  3.0794  0.1972
 5508TIP3    H240720   6.143   1.131   8.876  2.3070 -0.0876 -0.4657
 5509TIP3   OH240721   3.055   5.556  10.104  0.2468  0.6911 -0.6744
 5509TIP3    H140722   2.981   5.508  10.067  0.6592  0.4182 -1.1648
 5509TIP3    H240723   3.016   5.631  10.148 -0.7602 -1.6781  2.9038
 5510TIP3   OH240724   0.227   0.604   8.209 -0.2099  0.4046 -0.1853
 5510TIP3    H140725   0.179   0.665   8.153 -1.9145  0.4442  1.2117
 5510TIP3    H240726   0.240   0.653   8.291 -0.9842 -0.8298  0.7113
 5511TIP3   OH240727   1.491   5.492   9.185  0.0247  0.3012  0.6515
 5511TIP3    H140728   1.583   5.484   9.160  0.1641  0.1393  1.2117
 5511TIP3    H240729   1.443   5.487   9.102  0.4484 -0.6800  0.4547
 5512TIP3   OH240730   0.633   3.431  11.134  0.0165 -0.3277 -0.0483
 5512TIP3    H140731   0.546   3.462  11.108 -0.5183 -0.7048  1.2235
 5512TIP3    H240732   0.623   3.402  11.225  0.9382 -2.5095 -0.5687
 5513TIP3   OH240733   3.813   1.747   9.061  0.3482 -0.4338  0.1362
 5513TIP3    H140734   3.749   1.683   9.029 -1.4543  0.7500  1.2007
 5513TIP3    H240735   3.850   1.786   8.982  0.7308 -2.0254 -0.5126
 5514TIP3   OH240736   6.037   6.628  10.392  0.5659 -0.2645 -0.1866
 5514TIP3    H140737   6.098   6.576  10.444  1.2700  1.3190  0.6561
 5514TIP3    H240738   6.078   6.632  10.305  0.6660 -0.8494 -0.1670
 5515TIP3   OH240739   1.333   0.722   9.615  0.3236  0.4065  0.9304
 5515TIP3    H140740   1.252   0.770   9.595 -0.4108 -1.2328 -0.1852
 5515TIP3    H240741   1.390   0.739   9.539  0.2501 -0.0902  0.7653
 5516TIP3   OH240742   1.689   5.190   7.753  0.6823 -0.4919  0.0625
 5516TIP3    H140743   1.770   5.226   7.788  0.1175 -0.1239  1.0121
 5516TIP3    H240744   1.694   5.096   7.770 -0.5313 -0.0978  3.2318
 5517TIP3   OH240745   2.792   2.669  19.425  0.6595  0.3335  0.2652
 5517TIP3    H140746   2.859   2.727  19.463  0.1356  2.2088 -1.5066
 5517TIP3    H240747   2.729   2.729  19.385 -0.7280 -1.4664 -0.3265
 5518TIP3   OH240748   5.969   2.213   9.612 -0.1883  0.1820  0.3803
 5518TIP3    H140749   6.023   2.197   9.534 -2.2337  0.6756 -1.2297
 5518TIP3    H240750   6.028   2.257   9.673  1.2246  0.7688 -1.3258
 5519TIP3   OH240751   2.698   1.638  10.610 -0.0655 -0.5409 -0.0689
 5519TIP3    H140752   2.729   1.701  10.676  0.0453  0.0873 -0.7084
 5519TIP3    H240753   2.602   1.641  10.619 -0.4015  2.6992 -2.6612
 5520TIP3   OH240754   0.967   2.680   7.828  0.2078 -0.8389 -0.3564
 5520TIP3    H140755   1.017   2.599   7.819  1.8906  0.2979 -2.0327
 5520TIP3    H240756   1.031   2.745   7.858 -1.0606 -0.0428  0.7668
 5521TIP3   OH240757   2.153   0.574  11.365  0.5321 -0.4291 -0.2279
 5521TIP3    H140758   2.189   0.629  11.435 -1.3420  0.5178  0.0704
 5521TIP3    H240759   2.185   0.486  11.385  0.9375  0.0137  1.1989
 5522TIP3   OH240760   2.295   2.929  10.042 -0.2055 -0.0585  0.3584
 5522TIP3    H140761   2.298   2.931   9.947  1.9952 -0.4555  0.3707
 5522TIP3    H240762   2.251   2.846  10.063 -0.3870 -0.1334 -0.3142
 5523TIP3   OH240763   1.526   1.726   9.904  0.4855  0.5556 -0.1166
 5523TIP3    H140764   1.605   1.673   9.914 -0.0525  0.1305  2.7949
 5523TIP3    H240765   1.464   1.668   9.858  1.0119 -0.0837 -0.0327
 5524TIP3   OH240766   2.464   6.725  10.852  0.3007 -0.0949 -0.2952
 5524TIP3    H140767   2.487   6.680  10.933  0.0188  0.5583  0.1578
 5524TIP3    H240768   2.387   6.777  10.875  0.3087  0.2139 -0.9435
 5525TIP3   OH240769   0.075   4.804  11.026 -0.0872  0.5615 -0.0948
 5525TIP3    H140770   0.082   4.861  11.102  1.0467  0.9652 -0.4844
 5525TIP3    H240771   0.028   4.856  10.961 -0.5805  0.4091  0.1306
 5526TIP3   OH240772   4.317   1.370  10.552  0.6139  0.0495  0.4221
 5526TIP3    H140773   4.249   1.314  10.589  0.3209  0.8695  1.1690
 5526TIP3    H240774   4.275   1.412  10.476  0.1049  0.9104  1.1533
 5527TIP3   OH240775   4.898   1.283   9.444 -0.0108  0.0646  0.6999
 5527TIP3    H140776   4.867   1.364   9.484  0.3081  0.7209 -0.3628
 5527TIP3    H240777   4.985   1.270   9.483  0.3634  0.7826  0.1207
 5528TIP3   OH240778   4.493   1.259  11.358 -1.0235 -0.1861  0.2163
 5528TIP3    H140779   4.533   1.297  11.279 -1.9309  0.3891  0.0182
 5528TIP3    H240780   4.499   1.328  11.423 -0.2251 -0.6824  0.6852
 5529TIP3   OH240781   2.628   5.674  18.646 -0.4079  0.0681  0.2136
 5529TIP3    H140782   2.693   5.703  18.710  0.7464 -1.3645 -0.2670
 5529TIP3    H240783   2.637   5.736  18.574 -1.4142  1.4317  1.1874
 5530TIP3   OH240784   2.971   6.470  11.256 -0.1383 -0.2175  0.3330
 5530TIP3    H140785   2.930   6.437  11.176 -0.3984  0.7889  0.0329
 5530TIP3    H240786   2.898   6.482  11.316 -0.0587 -0.1129  0.4091
 5531TIP3   OH240787   2.708   4.392  10.367 -0.2734  0.9274  0.6794
 5531TIP3    H140788   2.704   4.469  10.423 -0.2481  0.3985  1.4142
 5531TIP3    H240789   2.657   4.416  10.290  0.3269  1.9395  0.5767
 5532TIP3   OH240790   5.851   3.431   8.044  0.1461 -0.1268 -0.1014
 5532TIP3    H140791   5.929   3.379   8.064 -0.2294 -0.4912  0.4451
 5532TIP3    H240792   5.884   3.509   8.000  0.7737 -0.5295 -0.3588
 5533TIP3   OH240793   4.592   6.269  10.181 -0.2399  0.0410  0.2314
 5533TIP3    H140794   4.606   6.207  10.252  0.1117  0.6943  0.7468
 5533TIP3    H240795   4.575   6.352  10.225  0.8814  0.6470 -0.4356
 5534TIP3   OH240796   5.427   6.399   9.796 -0.0555  0.3216 -0.6422
 5534TIP3    H140797   5.499   6.344   9.766 -0.3428  1.3211 -3.5074
 5534TIP3    H240798   5.451   6.487   9.767 -1.4970  1.0016  0.1359
 5535TIP3   OH240799   1.209   5.536   8.520 -0.2058  0.8965  0.2666
 5535TIP3    H140800   1.284   5.486   8.553 -0.0310  0.3090 -0.9760
 5535TIP3    H240801   1.134   5.478   8.530 -0.0190  0.3900 -1.0842
 5536TIP3   OH240802   2.980   3.625   8.511 -0.1988 -0.3120 -0.3565
 5536TIP3    H140803   3.034   3.702   8.528 -0.3324  0.1665 -1.9025
 5536TIP3    H240804   2.904   3.659   8.464 -0.3827 -1.3523 -0.8426
 5537TIP3   OH240805   4.281   4.097   8.982  0.0679  0.2354 -0.0971
 5537TIP3    H140806   4.348   4.128   9.044  1.8472 -1.7707 -0.8913
 5537TIP3    H240807   4.264   4.173   8.926  1.0615  1.0493  0.6420
 5538TIP3   OH240808   6.159   3.187   8.414 -0.0159  0.0367 -0.5061
 5538TIP3    H140809   6.227   3.150   8.470 -0.9252 -0.1235  0.5183
 5538TIP3    H240810   6.200   3.193   8.327  1.2813 -0.0921  0.0753
 5539TIP3   OH240811   6.555   4.205   9.474 -0.0674  0.3547 -0.0103
 5539TIP3    H140812   6.588   4.215   9.385 -1.0119  1.2040 -0.2943
 5539TIP3    H240813   6.469   4.247   9.472 -0.8334 -1.0800  0.8779
 5540TIP3   OH240814   0.734   2.196   9.898 -0.2039  0.1296 -0.2677
 5540TIP3    H140815   0.733   2.212   9.992 -1.7758 -1.3298  0.0106
 5540TIP3    H240816   0.646   2.218   9.869  0.5461  1.5847 -1.6412
 5541TIP3   OH240817   3.059   0.639  11.025  0.2948  0.5950 -0.1521
 5541TIP3    H140818   3.050   0.723  11.068 -1.3031  0.1701  0.4096
 5541TIP3    H240819   2.976   0.625  10.980  0.6192 -0.5726 -0.4489
 5542TIP3   OH240820   4.019   4.882  10.226  0.2717 -0.2172  0.0476
 5542TIP3    H140821   4.047   4.870  10.135 -0.7092 -0.0801 -0.2843
 5542TIP3    H240822   3.936   4.834  10.232 -0.0610  0.4212  0.6516
 5543TIP3   OH240823   0.149   6.061  10.705 -0.3823 -0.0885  0.1894
 5543TIP3    H140824   0.206   6.093  10.775 -0.1185  0.5552 -0.3035
 5543TIP3    H240825   0.191   6.092  10.624 -0.3646 -1.3317 -0.2877
 5544TIP3   OH240826   4.255   5.724  11.032  0.7214 -0.4417 -0.0319
 5544TIP3    H140827   4.197   5.743  10.958 -1.2575  0.7623  1.7091
 5544TIP3    H240828   4.230   5.636  11.060 -0.1573 -0.0273  0.5498
 5545TIP3   OH240829   1.542   2.018   9.254 -0.2823  0.2364 -0.0601
 5545TIP3    H140830   1.491   2.033   9.174  0.5347  0.2509 -0.5991
 5545TIP3    H240831   1.522   2.093   9.310 -2.4943 -0.8150  0.6566
 5546TIP3   OH240832   3.664   0.908  10.312 -0.0421  0.2590 -0.2590
 5546TIP3    H140833   3.595   0.974  10.312 -0.3566 -0.0551  0.3982
 5546TIP3    H240834   3.631   0.838  10.256 -0.8544 -0.4733  1.0897
 5547TIP3   OH240835   4.846   0.266   8.462 -0.3163 -0.1466  0.2800
 5547TIP3    H140836   4.899   0.197   8.421 -0.5036 -0.6246  0.8256
 5547TIP3    H240837   4.910   0.329   8.495 -0.1591  0.1960 -0.6420
 5548TIP3   OH240838   1.111   3.992   8.915 -0.3016  0.1076 -0.1751
 5548TIP3    H140839   1.015   3.998   8.910 -0.5830 -0.6661  2.4434
 5548TIP3    H240840   1.138   4.078   8.947 -0.3264 -0.1519  0.5798
 5549TIP3   OH240841   0.684   4.926  10.437  0.2940 -0.1378  0.0961
 5549TIP3    H140842   0.709   4.991  10.502  1.1341 -0.9228  0.5972
 5549TIP3    H240843   0.767   4.901  10.396  0.0970 -1.3603  0.3871
 5550TIP3   OH240844   4.171   6.702  10.535  0.7940 -0.0505  0.2907
 5550TIP3    H140845   4.111   6.628  10.529 -1.2286  1.4116  1.2575
 5550TIP3    H240846   4.186   6.713  10.629  3.2785 -0.8198  0.0735
 5551TIP3   OH240847   6.271   4.118   9.892  0.1671  0.5721 -0.0426
 5551TIP3    H140848   6.318   4.196   9.923 -0.9689  0.8897  0.9662
 5551TIP3    H240849   6.221   4.088   9.967 -0.1613 -0.5858 -0.6909
 5552TIP3   OH240850   1.360   6.082   9.004  0.3707  0.0849 -0.4597
 5552TIP3    H140851   1.294   6.056   8.940 -0.7820  1.1112  0.2531
 5552TIP3    H240852   1.359   6.012   9.070  1.6547 -1.0409 -1.5600
 5553TIP3   OH240853   6.751   1.485  10.113  0.4060  0.1157  0.1131
 5553TIP3    H140854   6.773   1.456  10.025 -0.3373 -1.1127  0.2990
 5553TIP3    H240855   6.768   1.579  10.113 -0.1212  0.2449 -1.5075
 5554TIP3   OH240856   5.091   2.167   8.053  0.1416 -0.1800  0.4131
 5554TIP3    H140857   5.032   2.147   8.126  1.0511 -2.2031  0.6632
 5554TIP3    H240858   5.049   2.241   8.009 -1.7766 -0.5433  1.4787
 5555TIP3   OH240859   5.675   4.922   9.780 -0.0601  0.2074  0.4894
 5555TIP3    H140860   5.701   5.012   9.800  2.6193 -0.0024 -1.4978
 5555TIP3    H240861   5.709   4.870   9.853  1.1618  0.4811  0.1334
 5556TIP3   OH240862   5.446   0.837   8.098 -0.5695 -0.6667  0.2638
 5556TIP3    H140863   5.423   0.856   8.189 -1.4914 -1.0310  0.1190
 5556TIP3    H240864   5.381   0.885   8.046  1.3647  1.5110 -0.3115
 5557TIP3   OH240865   5.604   6.542  10.420  0.0072  0.4644 -0.6205
 5557TIP3    H140866   5.669   6.573  10.483 -0.0129 -1.6931  0.5561
 5557TIP3    H240867   5.634   6.454  10.396 -2.9042 -1.0345  0.7179
 5558TIP3   OH240868   4.048   3.414  10.497  0.2911  0.4407  0.4062
 5558TIP3    H140869   4.114   3.400  10.564  0.8332  2.3854  0.3375
 5558TIP3    H240870   3.991   3.337  10.502  0.8802  0.0867  2.4142
 5559TIP3   OH240871   0.331   1.625   7.594  0.4325  0.9002 -0.2892
 5559TIP3    H140872   0.242   1.615   7.562  0.7713 -0.5230 -0.8683
 5559TIP3    H240873   0.367   1.536   7.595  2.2389  1.5562 -1.2844
 5560TIP3   OH240874   2.348   0.208  10.934  0.2847  0.0606 -0.2384
 5560TIP3    H140875   2.411   0.218  11.006  1.1585 -2.3035 -0.5759
 5560TIP3    H240876   2.264   0.191  10.978  0.0927  1.9814  0.2044
 5561TIP3   OH240877   5.335   0.751   9.995  0.4585 -0.3179 -0.3606
 5561TIP3    H140878   5.324   0.836  10.038  0.3924 -0.3158 -0.3823
 5561TIP3    H240879   5.369   0.773   9.908 -0.6445 -0.2422 -0.7892
 5562TIP3   OH240880   6.696   5.179   9.681  0.5657 -0.3957 -0.2592
 5562TIP3    H140881   6.646   5.099   9.698  0.1679  0.1522  1.3768
 5562TIP3    H240882   6.672   5.237   9.754  2.4244  0.4399 -0.2789
 5563TIP3   OH240883   0.315   6.355   8.802 -0.4850  0.0103  0.6415
 5563TIP3    H140884   0.397   6.312   8.827 -0.4351 -0.9838 -1.0809
 5563TIP3    H240885   0.262   6.355   8.882  0.5083 -0.9738  1.3231
 5564TIP3   OH240886   4.809   0.889   8.863  0.4376 -0.0791 -0.4309
 5564TIP3    H140887   4.903   0.872   8.861  0.9012  1.8051  1.7016
 5564TIP3    H240888   4.794   0.949   8.790  1.2210  0.8748  0.1664
 5565TIP3   OH240889   4.832   6.510  10.239 -0.5174 -0.3906 -0.0448
 5565TIP3    H140890   4.909   6.541  10.191 -0.4430  1.2548  1.0569
 5565TIP3    H240891   4.763   6.572  10.215 -0.7300 -0.1351  1.1660
 5566TIP3   OH240892   3.108   2.369   8.584 -0.4881  0.3485  0.7179
 5566TIP3    H140893   3.015   2.385   8.603 -0.7556 -0.3942  0.1135
 5566TIP3    H240894   3.148   2.353   8.669 -0.4472  2.7782  1.2391
 5567TIP3   OH240895   6.429   3.428   8.260  0.1643 -0.8872 -0.0185
 5567TIP3    H140896   6.366   3.476   8.314 -1.3027 -0.6531 -1.8353
 5567TIP3    H240897   6.513   3.472   8.277 -0.5647  0.2586  0.7722
 5568TIP3   OH240898   2.286   3.735  11.410  0.1581 -0.0195  0.0195
 5568TIP3    H140899   2.204   3.772  11.376  0.9137  0.8905 -0.8749
 5568TIP3    H240900   2.281   3.751  11.504 -0.0089  1.4715 -0.2147
 5569TIP3   OH240901   5.430   2.885   8.237 -0.1540  0.5362  0.4207
 5569TIP3    H140902   5.462   2.935   8.162 -1.8060  1.6364  0.3873
 5569TIP3    H240903   5.397   2.951   8.298  0.4920 -0.3790  1.8189
 5570TIP3   OH240904   2.688   2.735  11.633 -0.0398  0.0808 -0.7770
 5570TIP3    H140905   2.772   2.752  11.591 -0.3303  0.4833 -1.2009
 5570TIP3    H240906   2.671   2.813  11.686 -0.4510  0.2817 -1.2002
 5571TIP3   OH240907   5.890   2.831  10.169  0.1821 -0.6393 -0.1104
 5571TIP3    H140908   5.830   2.792  10.106  1.3044  0.2608 -1.7942
 5571TIP3    H240909   5.977   2.821  10.129  0.7257  1.6757  0.3877
 5572TIP3   OH240910   4.708   0.888   8.434  0.4332 -0.1917 -0.0957
 5572TIP3    H140911   4.688   0.795   8.446  2.7700 -0.7503  0.0629
 5572TIP3    H240912   4.676   0.909   8.347  1.0330 -1.5313 -0.6621
 5573TIP3   OH240913   4.042   0.303   8.583  0.3317 -0.2342 -0.6165
 5573TIP3    H140914   4.002   0.240   8.523 -0.7528 -0.1267 -0.0395
 5573TIP3    H240915   4.012   0.274   8.670 -1.6306  2.0157 -0.4338
 5574TIP3   OH240916   2.780   5.995   8.372  0.4701 -0.4594 -0.1381
 5574TIP3    H140917   2.758   5.906   8.401 -0.7185  0.3703  1.7341
 5574TIP3    H240918   2.713   6.017   8.308  0.2081 -0.5849  0.0901
 5575TIP3   OH240919   0.803   4.266  10.481  0.1852  0.1537  0.3076
 5575TIP3    H140920   0.882   4.268  10.427 -0.8470 -0.2245 -1.3050
 5575TIP3    H240921   0.756   4.346  10.458 -0.1558  0.1005  0.8166
 5576TIP3   OH240922   0.783   6.647   9.269  0.0953 -0.4769 -0.5566
 5576TIP3    H140923   0.857   6.586   9.267  1.8405  1.4683  0.5591
 5576TIP3    H240924   0.762   6.656   9.362 -0.6429  0.0209 -0.7603
 5577TIP3   OH240925   4.376   6.168   9.844  0.4998 -0.0076 -0.0574
 5577TIP3    H140926   4.342   6.084   9.874  1.9910  0.0419  2.0162
 5577TIP3    H240927   4.364   6.227   9.918  1.3354  1.0604 -0.7289
 5578TIP3   OH240928   2.865   5.294   8.348  0.0240 -0.4626  0.4300
 5578TIP3    H140929   2.933   5.234   8.315  0.6622 -0.6649  2.0224
 5578TIP3    H240930   2.885   5.304   8.441  0.4038  2.8717  0.0906
 5579TIP3   OH240931   5.883   2.579   8.853 -0.6859  0.3820  0.2493
 5579TIP3    H140932   5.898   2.544   8.765 -1.6947  0.2960  0.0990
 5579TIP3    H240933   5.970   2.582   8.893  0.0419  1.9084 -1.2898
 5580TIP3   OH240934   1.500   2.753   8.093  0.2313  0.8313 -0.6263
 5580TIP3    H140935   1.434   2.751   8.023 -1.0149 -1.2139  0.5046
 5580TIP3    H240936   1.579   2.717   8.052 -0.7212 -1.1670 -0.8308
 5581TIP3   OH240937   0.425   1.366  10.510  0.0048  0.4484 -0.1413
 5581TIP3    H140938   0.482   1.371  10.434  0.7660 -0.6610  0.3210
 5581TIP3    H240939   0.460   1.430  10.572 -0.8095  1.5826 -0.8171
 5582TIP3   OH240940   5.687   4.658   9.985 -0.2905 -0.5626  0.6692
 5582TIP3    H140941   5.775   4.630  10.011 -1.1454 -3.3058  1.0000
 5582TIP3    H240942   5.646   4.578   9.953 -2.2169  0.9512 -0.8678
 5583TIP3   OH240943   1.637   0.721   8.326  0.2171  0.0243  0.3218
 5583TIP3    H140944   1.650   0.630   8.299  0.2840 -0.7602  2.7519
 5583TIP3    H240945   1.545   0.739   8.309  0.2197 -0.4497 -0.2367
 5584TIP3   OH240946   3.281   4.995   8.011  0.2981  0.4874  0.1165
 5584TIP3    H140947   3.231   4.915   8.030 -0.1681  0.5059 -0.9554
 5584TIP3    H240948   3.363   4.984   8.058 -0.3292  0.0190  1.1328
 5585TIP3   OH240949   6.071   6.244   9.275  0.1625 -0.2517  0.0901
 5585TIP3    H140950   6.007   6.218   9.208  0.3389  1.8930 -0.9907
 5585TIP3    H240951   6.020   6.248   9.356 -0.8071  0.2113 -0.5265
 5586TIP3   OH240952   0.122   6.021  11.153 -0.8963  0.0277 -0.3872
 5586TIP3    H140953   0.171   6.020  11.236 -1.5227 -0.0108 -0.0060
 5586TIP3    H240954   0.176   6.073  11.094 -0.8369  0.7989  0.3128
 5587TIP3   OH240955   1.305   2.710   9.060 -0.1726  0.6361  0.4783
 5587TIP3    H140956   1.375   2.706   9.125 -0.1471  0.2521  0.4270
 5587TIP3    H240957   1.269   2.798   9.070 -1.2774  0.0538  2.1801
 5588TIP3   OH240958   5.376   6.626  10.559 -0.4097  0.8109 -0.2380
 5588TIP3    H140959   5.371   6.707  10.508  0.5519 -0.4085 -2.4416
 5588TIP3    H240960   5.437   6.571  10.510 -0.0782 -0.8021  1.8505
 5589TIP3   OH240961   3.735   2.253   9.889 -0.2253  0.3839 -0.4059
 5589TIP3    H140962   3.762   2.231   9.799 -0.1999 -0.5433 -0.1821
 5589TIP3    H240963   3.670   2.322   9.878 -2.4770 -1.7402 -1.3658
 5590TIP3   OH240964   1.925   5.602   9.475  0.3563  0.6295 -0.4699
 5590TIP3    H140965   1.938   5.695   9.458  0.5489  0.4394 -1.4297
 5590TIP3    H240966   1.841   5.597   9.521 -0.1174  1.2040 -1.2457
 5591TIP3   OH240967   5.006   5.905  11.231 -0.5437 -0.0804 -0.1920
 5591TIP3    H140968   4.973   5.963  11.300 -1.2181  0.2037 -0.7459
 5591TIP3    H240969   5.088   5.946  11.203 -1.0715  0.6675 -0.6550
 5592TIP3   OH240970   0.259   2.598   8.060  0.0807  0.1592 -0.0286
 5592TIP3    H140971   0.302   2.524   8.103 -1.5645  0.2780  1.9698
 5592TIP3    H240972   0.202   2.558   7.994  0.7172 -0.2032 -0.3652
 5593TIP3   OH240973   4.229   5.342   8.443  0.2988  0.0413  0.1891
 5593TIP3    H140974   4.315   5.303   8.433 -0.2436 -1.1715  0.0454
 5593TIP3    H240975   4.246   5.436   8.457  1.5717 -0.0103 -0.8744
 5594TIP3   OH240976   1.986   1.427   7.895  0.1363 -0.5408  0.3484
 5594TIP3    H140977   1.926   1.491   7.857  1.8066  0.0234 -1.4754
 5594TIP3    H240978   1.943   1.343   7.880  0.6687 -0.3405 -2.8928
 5595TIP3   OH240979   0.408   0.304   9.855 -0.4893 -0.0756 -0.0512
 5595TIP3    H140980   0.326   0.255   9.861 -0.8290  0.4991  0.0889
 5595TIP3    H240981   0.448   0.296   9.941  0.3712 -1.6365 -0.5405
 5596TIP3   OH240982   0.868   2.105  10.905  0.0570 -0.2484 -0.6166
 5596TIP3    H140983   0.779   2.071  10.908 -0.0220  0.0296  1.3272
 5596TIP3    H240984   0.921   2.040  10.952  0.3695  0.8986  0.7030
 5597TIP3   OH240985   5.488   6.420  11.089 -0.2822  0.5033 -0.1627
 5597TIP3    H140986   5.485   6.437  10.995  0.6802  1.7843  0.0089
 5597TIP3    H240987   5.579   6.395  11.105 -0.2893  0.9065  0.5219
 5598TIP3   OH240988   3.828   3.601  10.102  0.2796  0.3222 -0.0930
 5598TIP3    H140989   3.813   3.684  10.148  1.3687  0.0485  0.8075
 5598TIP3    H240990   3.912   3.614  10.057  0.9647 -0.6246  0.8729
 5599TIP3   OH240991   0.560   1.596   7.354 -0.0284  0.1173 -0.6247
 5599TIP3    H140992   0.646   1.635   7.372  1.1643 -1.4339 -2.4966
 5599TIP3    H240993   0.501   1.641   7.414  2.2789  0.3417  1.6835
 5600TIP3   OH240994   1.779   3.481   9.472 -0.1170 -0.7925 -0.4096
 5600TIP3    H140995   1.743   3.499   9.385  0.3366 -2.0397 -0.8809
 5600TIP3    H240996   1.757   3.389   9.489 -0.9057 -0.3418  1.1534
 5601TIP3   OH240997   4.683   2.339  10.729  0.6931 -1.1103  0.3126
 5601TIP3    H140998   4.707   2.254  10.767  0.3210 -0.3777  2.2982
 5601TIP3    H240999   4.630   2.381  10.796  0.4223  0.4989 -0.8498
 5602TIP3   OH241000   0.812   4.675   9.168 -0.4220  0.8892  0.7722
 5602TIP3    H141001   0.768   4.756   9.192 -0.4324  0.1729  3.5936
 5602TIP3    H241002   0.763   4.641   9.094 -1.5466  2.5559  0.7229
 5603TIP3   OH241003   6.419   3.476   9.850 -1.0677 -0.6959 -0.1035
 5603TIP3    H141004   6.497   3.439   9.891 -2.1997 -2.7627  0.3458
 5603TIP3    H241005   6.392   3.547   9.908  0.6376  0.2966 -0.4629
 5604TIP3   OH241006   2.636   4.519   7.969  0.7624 -0.4242 -0.3481
 5604TIP3    H141007   2.703   4.459   8.002  0.9908 -1.6336 -2.7805
 5604TIP3    H241008   2.649   4.520   7.875  1.0544  3.8737 -0.4486
 5605TIP3   OH241009   0.054   3.116   9.566  0.2476  0.4013  0.0517
 5605TIP3    H141010   0.114   3.074   9.628  1.3569  0.7705 -0.7338
 5605TIP3    H241011   0.007   3.043   9.526 -0.6938  0.1678  1.4834
 5606TIP3   OH241012   0.007   4.785   8.982  0.2554 -0.3240  0.3818
 5606TIP3    H141013   0.027   4.879   8.978  0.8914 -0.3917  1.5081
 5606TIP3    H241014  -0.088   4.782   8.996 -0.0339  0.0918 -1.2316
 5607TIP3   OH241015   5.059   0.709   9.634 -1.0124  0.1395  0.1929
 5607TIP3    H141016   4.973   0.750   9.644 -0.5210  0.7979  2.2314
 5607TIP3    H241017   5.040   0.615   9.629 -1.9779  0.4056 -1.8719
 5608TIP3   OH241018   1.919   4.211   9.968  0.7228  0.5010  0.1460
 5608TIP3    H141019   2.010   4.228   9.992  1.2534 -0.7033 -0.8876
 5608TIP3    H241020   1.900   4.126  10.006  0.7848 -0.2900 -1.5263
 5609TIP3   OH241021   5.930   2.468   8.159 -0.4359 -0.5234  0.4451
 5609TIP3    H141022   5.902   2.442   8.247 -0.5296  2.1016  1.2954
 5609TIP3    H241023   5.848   2.481   8.111 -0.4231 -0.6660  0.3840
 5610TIP3   OH241024   0.617   6.458   9.660  0.3804 -0.2617 -0.0335
 5610TIP3    H141025   0.682   6.413   9.606  0.1368 -0.5440 -0.0980
 5610TIP3    H241026   0.619   6.413   9.744  1.0049  0.4004  0.3208
 5611TIP3   OH241027   1.992   6.609   9.437 -0.0850  0.2940  0.2921
 5611TIP3    H141028   2.054   6.632   9.367 -0.2273 -0.8773 -0.2432
 5611TIP3    H241029   1.983   6.689   9.488 -0.5399  1.4151 -1.4626
 5612TIP3   OH241030   6.390   1.369   9.125  0.5823  0.0561 -0.4866
 5612TIP3    H141031   6.391   1.361   9.220 -0.2896  3.2418 -0.1040
 5612TIP3    H241032   6.332   1.443   9.107  2.5520  1.1162 -3.3400
 5613TIP3   OH241033   5.548   3.966   9.379  0.3866  0.4672 -0.4149
 5613TIP3    H141034   5.619   3.974   9.316  0.3378 -0.2674 -0.5720
 5613TIP3    H241035   5.471   3.996   9.332  0.1038 -1.3077 -1.1876
 5614TIP3   OH241036   0.202   5.083  10.386 -0.0607 -0.9484 -0.1142
 5614TIP3    H141037   0.232   5.174  10.375  0.6539 -1.1207  0.3370
 5614TIP3    H241038   0.112   5.084  10.353 -0.1263 -0.0333  0.0472
 5615TIP3   OH241039   4.637   6.598   9.054 -0.0099  0.7629 -0.2644
 5615TIP3    H141040   4.727   6.567   9.040  0.1535  0.1945  1.6993
 5615TIP3    H241041   4.582   6.522   9.034  0.2119 -0.0026  1.7503
 5616TIP3   OH241042   1.076   5.247   9.635 -0.0561  0.4802  0.1247
 5616TIP3    H141043   1.093   5.342   9.637  0.2690  0.4476  2.6629
 5616TIP3    H241044   1.062   5.227   9.543 -0.1271  3.0018 -0.4889
 5617TIP3   OH241045   0.788   3.919   8.344 -0.8263  0.6620 -0.2365
 5617TIP3    H141046   0.821   4.007   8.362 -3.4875  1.9526 -1.2033
 5617TIP3    H241047   0.785   3.876   8.430  0.6215  1.4252  0.2274
 5618TIP3   OH241048   5.250   5.612  10.435  0.1914  0.2914 -0.4287
 5618TIP3    H141049   5.162   5.586  10.407  0.2679  0.4971 -0.8567
 5618TIP3    H241050   5.270   5.690  10.384  0.2934  0.7289  0.2702
 5619TIP3   OH241051   5.495   6.396  10.813 -0.3343  0.1358  0.7102
 5619TIP3    H141052   5.438   6.350  10.751  0.1611  1.8579 -1.1289
 5619TIP3    H241053   5.578   6.348  10.809 -0.7916 -0.7385  1.3259
 5620TIP3   OH241054   6.095   5.215   8.415  0.1087 -0.3407 -0.3448
 5620TIP3    H141055   6.057   5.303   8.408  2.0410  0.5051 -0.9047
 5620TIP3    H241056   6.132   5.212   8.503  1.2801 -0.0114 -0.7949
 5621TIP3   OH241057   3.447   0.427  10.776 -0.0224 -0.3021  0.0555
 5621TIP3    H141058   3.522   0.458  10.827 -1.4514 -0.2801  2.3021
 5621TIP3    H241059   3.373   0.437  10.835 -1.8177 -0.3789 -2.0619
 5622TIP3   OH241060   2.324   5.381   7.752  0.1363 -0.3774 -0.2806
 5622TIP3    H141061   2.415   5.385   7.780 -0.4772 -0.4617  1.9529
 5622TIP3    H241062   2.292   5.298   7.787 -0.8499 -0.2481 -0.8381
 5623TIP3   OH241063   1.769   1.666   8.388 -0.4456 -0.5302 -0.4237
 5623TIP3    H141064   1.757   1.592   8.448 -0.9406 -0.1107  0.0085
 5623TIP3    H241065   1.693   1.722   8.404 -0.1949 -0.0405 -0.9145
 5624TIP3   OH241066   3.501   6.636   8.965 -0.0557  0.1030  0.4966
 5624TIP3    H141067   3.460   6.551   8.981  1.0657 -0.3172  1.2583
 5624TIP3    H241068   3.595   6.619   8.970  0.3457  0.6852 -3.0200
 5625TIP3   OH241069   4.572   3.064   8.960  0.0852 -0.3682 -0.1891
 5625TIP3    H141070   4.594   3.146   8.916 -1.8528  1.3220  1.7335
 5625TIP3    H241071   4.495   3.032   8.913  0.8882 -1.1877 -0.9890
 5626TIP3   OH241072   1.138   3.445   8.013 -0.3889  0.1837  0.0954
 5626TIP3    H141073   1.182   3.477   7.934 -2.9459 -1.3899 -2.1831
 5626TIP3    H241074   1.190   3.371   8.042  0.4696  0.6407 -0.2503
 5627TIP3   OH241075   4.512   1.090   9.128  0.5166 -0.0245 -0.2397
 5627TIP3    H141076   4.453   1.152   9.172  2.1700  0.3694  1.5853
 5627TIP3    H241077   4.598   1.132   9.133  1.3524 -1.6244 -0.6744
 5628TIP3   OH241078   0.481   5.053   8.053 -0.1591 -0.3095  0.1946
 5628TIP3    H141079   0.518   4.982   8.106 -1.2071 -1.4011 -0.4639
 5628TIP3    H241080   0.391   5.062   8.084 -0.7350 -0.8375 -1.1900
 5629TIP3   OH241081   4.823   6.318   9.277  0.1325 -0.4822 -0.1730
 5629TIP3    H141082   4.852   6.380   9.210 -1.7802 -1.2453 -1.8116
 5629TIP3    H241083   4.901   6.303   9.331  1.2638  1.5229 -1.1220
 5630TIP3   OH241084   3.544   4.895  10.088  0.3595 -0.6016 -0.3312
 5630TIP3    H141085   3.491   4.969  10.116 -0.3520 -0.6706 -1.4537
 5630TIP3    H241086   3.591   4.926  10.011  2.8130 -0.2053  1.2117
 5631TIP3   OH241087   1.139   1.422   8.409  0.6356 -0.5497 -0.3499
 5631TIP3    H141088   1.177   1.417   8.321  0.9468 -1.7883 -0.1731
 5631TIP3    H241089   1.064   1.480   8.400  0.1340 -1.3509 -1.6389
 5632TIP3   OH241090   3.666   5.588  10.363 -0.4774  0.5036 -0.1410
 5632TIP3    H141091   3.670   5.496  10.388  2.0068 -0.0346 -2.0951
 5632TIP3    H241092   3.595   5.594  10.300 -0.5379 -0.1003 -0.1275
 5633TIP3   OH241093   5.689   3.653   8.757 -0.3958 -0.4796  0.0984
 5633TIP3    H141094   5.726   3.568   8.733 -2.2420 -1.4417  0.4704
 5633TIP3    H241095   5.668   3.645   8.850  0.3617  0.7890  0.4154
 5634TIP3   OH241096   4.589   2.759  10.062 -0.0602 -0.1980  0.6563
 5634TIP3    H141097   4.616   2.812   9.987 -0.2813 -1.9619 -0.7447
 5634TIP3    H241098   4.652   2.781  10.131  0.5058  1.0598 -0.2244
 5635TIP3   OH241099   1.314   5.108  11.550  0.2225  0.0635  0.3395
 5635TIP3    H141100   1.328   5.137  11.460 -1.5666 -1.2968 -0.4626
 5635TIP3    H241101   1.330   5.013  11.547  0.3877  0.0416  1.5121
 5636TIP3   OH241102   0.310   2.207  11.148 -0.1275 -0.3778 -0.4136
 5636TIP3    H141103   0.395   2.164  11.162 -0.6041 -0.7651  1.5900
 5636TIP3    H241104   0.327   2.300  11.161 -0.2920 -0.6080  1.7273
 5637TIP3   OH241105   6.566   3.103  10.165 -0.0423 -0.2078  0.7067
 5637TIP3    H141106   6.655   3.132  10.186  0.4697 -0.5379 -0.8788
 5637TIP3    H241107   6.515   3.183  10.159  0.6916  0.1858 -0.6768
 5638TIP3   OH241108   5.181   4.207  11.692  0.3407 -0.7164 -0.0749
 5638TIP3    H141109   5.184   4.137  11.758  0.6484 -0.8291 -0.2066
 5638TIP3    H241110   5.089   4.231  11.688  0.5973  0.8681  2.0204
 5639TIP3   OH241111   4.011   2.840   9.909  0.6897 -0.4214  0.2388
 5639TIP3    H141112   4.057   2.780   9.968 -1.2797 -0.7149  1.5616
 5639TIP3    H241113   4.000   2.920   9.961  0.6110  0.0221 -0.4415
 5640TIP3   OH241114   5.473   0.285   9.714 -0.4414  0.2482 -0.0762
 5640TIP3    H141115   5.490   0.332   9.795 -1.4251  0.8606 -0.2165
 5640TIP3    H241116   5.531   0.326   9.650  1.4306 -1.1823  0.5801
 5641TIP3   OH241117   1.202   5.319   9.076  0.3194 -0.1694  0.0569
 5641TIP3    H141118   1.158   5.236   9.090 -1.5496  0.8164  0.3977
 5641TIP3    H241119   1.158   5.380   9.135  0.8051  1.3210 -1.0420
 5642TIP3   OH241120   2.446   4.479  11.561 -0.1732 -0.5587 -0.0087
 5642TIP3    H141121   2.482   4.465  11.648  1.9734  1.0354 -0.5264
 5642TIP3    H241122   2.515   4.448  11.502 -0.7383  0.2118 -1.1048
 5643TIP3   OH241123   4.783   3.071  10.365 -0.1222  0.1998  0.2367
 5643TIP3    H141124   4.765   3.021  10.444  1.6144  0.9605  1.1746
 5643TIP3    H241125   4.706   3.127  10.354  0.1330  1.0148  2.1588
 5644TIP3   OH241126   1.555   5.525  11.131 -0.5140  0.1476  0.2261
 5644TIP3    H141127   1.628   5.555  11.186 -0.7906  0.9557  0.1664
 5644TIP3    H241128   1.587   5.534  11.042 -0.3808 -0.3275  0.2226
 5645TIP3   OH241129   4.330   1.297   9.266  0.1551  0.3050  0.2777
 5645TIP3    H141130   4.251   1.261   9.226  0.5340  1.5082 -1.6651
 5645TIP3    H241131   4.301   1.333   9.350 -1.1232 -0.3060  0.1039
 5646TIP3   OH241132   6.024   3.208   8.077 -0.1211  0.1404  0.1242
 5646TIP3    H141133   6.116   3.216   8.102 -0.6975  0.8683  2.2202
 5646TIP3    H241134   5.984   3.162   8.150 -1.4264 -0.1981 -0.7804
 5647TIP3   OH241135   3.921   4.320  10.433  0.2183  0.0438  0.0427
 5647TIP3    H141136   3.912   4.262  10.509 -0.4564 -1.0189 -0.8127
 5647TIP3    H241137   4.015   4.328  10.420  0.3259 -1.5222 -0.2917
 5648TIP3   OH241138   5.196   1.591   8.687 -0.4973 -0.1212  0.5322
 5648TIP3    H141139   5.176   1.504   8.724 -3.4985  0.3783  0.3624
 5648TIP3    H241140   5.149   1.652   8.744 -0.3630  1.1760 -0.7070
 5649TIP3   OH241141   0.141   3.591  10.271 -0.1353 -0.2799 -0.1800
 5649TIP3    H141142   0.163   3.504  10.236  1.3927  0.5327 -1.3835
 5649TIP3    H241143   0.097   3.635  10.199 -1.4217 -0.2214  0.6222
 5650TIP3   OH241144   1.276   3.038  10.985  0.0904 -0.2925  0.1090
 5650TIP3    H141145   1.342   3.084  11.038 -0.5871 -0.5835  1.2348
 5650TIP3    H241146   1.291   2.945  11.004  0.4509 -0.4572 -0.9549
 5651TIP3   OH241147   4.498   5.781   9.890 -0.4609 -0.1874 -0.2290
 5651TIP3    H141148   4.486   5.780   9.795  1.6834  0.6129 -0.5672
 5651TIP3    H241149   4.548   5.861   9.907 -1.4973  0.1051  1.6815
 5652TIP3   OH241150   5.216   5.193   8.061 -0.1443 -0.3563 -0.0189
 5652TIP3    H141151   5.125   5.177   8.036 -0.2805  1.8982 -1.3184
 5652TIP3    H241152   5.264   5.192   7.978 -0.0699  4.3102 -0.3118
 5653TIP3   OH241153   6.034   1.262   9.255  0.0582  0.1343 -0.7595
 5653TIP3    H141154   6.037   1.355   9.278 -0.5948 -0.5194  2.3302
 5653TIP3    H241155   6.106   1.222   9.304  0.5435 -0.9907 -2.3003
 5654TIP3   OH241156   6.627   2.971   7.844  0.0646  0.0116 -0.1303
 5654TIP3    H141157   6.586   3.057   7.835 -1.1284 -0.6206 -1.1598
 5654TIP3    H241158   6.572   2.913   7.791  2.0385 -0.9978 -1.1665
 5655TIP3   OH241159   2.886   5.399   8.913 -0.0487 -0.4058 -0.2492
 5655TIP3    H141160   2.918   5.341   8.982  1.8127 -1.7329 -2.0628
 5655TIP3    H241161   2.937   5.479   8.923 -0.1858 -0.3814  0.2537
 5656TIP3   OH241162   2.164   4.213   8.711  0.5681 -0.0693  0.4479
 5656TIP3    H141163   2.088   4.236   8.657 -0.0020 -2.0448  0.3526
 5656TIP3    H241164   2.194   4.297   8.746 -0.9914  0.8844 -0.3810
 5657TIP3   OH241165   6.541   0.048  10.505 -0.2509  0.3895 -0.5252
 5657TIP3    H141166   6.630   0.028  10.474  0.0872 -0.1217  0.6962
 5657TIP3    H241167   6.518  -0.027  10.560  0.1988  2.2605  2.4827
 5658TIP3   OH241168   3.434   1.887   9.254 -0.2102 -0.3207  0.5093
 5658TIP3    H141169   3.360   1.828   9.262  0.5824 -1.2268  1.5355
 5658TIP3    H241170   3.458   1.907   9.345  0.5365  0.2869  0.1890
 5659TIP3   OH241171   5.785   6.358  10.905 -0.0585 -0.0731 -0.2903
 5659TIP3    H141172   5.753   6.334  10.992  0.7655  1.8132  0.6002
 5659TIP3    H241173   5.876   6.328  10.904  0.3166  1.0024  0.0124
 5660TIP3   OH241174   1.657   5.908   9.031  0.6195 -0.8301 -0.0379
 5660TIP3    H141175   1.706   5.932   8.952 -0.5217 -1.3383 -0.9389
 5660TIP3    H241176   1.702   5.830   9.065  1.1533 -0.5740 -0.1551
 5661TIP3   OH241177   4.765   0.579   9.011 -0.2639 -0.3062 -0.9969
 5661TIP3    H141178   4.721   0.639   9.071 -0.5172 -0.2937 -1.1941
 5661TIP3    H241179   4.754   0.493   9.050 -2.4913 -0.6278 -2.1868
 5662TIP3   OH241180   0.277   5.228   9.622 -0.0063 -0.0425  0.0493
 5662TIP3    H141181   0.241   5.247   9.536  1.9492 -0.3920 -0.9013
 5662TIP3    H241182   0.349   5.167   9.605  2.5769  2.3705  1.5193
 5663TIP3   OH241183   3.869   4.330   8.671  0.1994  0.0318 -0.2286
 5663TIP3    H141184   3.900   4.417   8.647 -1.0514  0.2901 -1.0053
 5663TIP3    H241185   3.884   4.325   8.766 -0.7533  1.5546  0.0450
 5664TIP3   OH241186   5.381   4.931   9.475  0.2904  0.5166 -0.2455
 5664TIP3    H141187   5.385   4.957   9.567  0.2613 -0.3319  0.0101
 5664TIP3    H241188   5.472   4.910   9.452  0.6353  2.6882 -1.0290
 5665TIP3   OH241189   3.979   2.566  10.990  0.0834  0.1239 -0.1503
 5665TIP3    H141190   3.991   2.489  10.933 -0.7694 -1.4393  1.6864
 5665TIP3    H241191   4.049   2.558  11.055  0.7752  1.6477 -0.6690
 5666TIP3   OH241192   4.828   2.577   9.870 -0.0667  0.3240  0.9466
 5666TIP3    H141193   4.912   2.555   9.911 -0.4900 -0.7160  1.3040
 5666TIP3    H241194   4.810   2.666   9.898  0.7276  0.4054  1.2084
 5667TIP3   OH241195   6.743   0.078   7.753  0.8282  0.0247  0.1417
 5667TIP3    H141196   6.816   0.135   7.728  0.6599 -0.3848 -1.3855
 5667TIP3    H241197   6.784  -0.001   7.786  1.0610  0.0799 -0.0172
 5668TIP3   OH241198   3.168   4.183  10.605 -0.1624  0.2241  0.6823
 5668TIP3    H141199   3.094   4.175  10.666 -0.7903 -0.4074 -0.1371
 5668TIP3    H241200   3.175   4.277  10.589 -1.9048  0.2051 -0.5155
 5669TIP3   OH241201   3.858   3.159  10.247  0.3901 -0.1802  0.2784
 5669TIP3    H141202   3.809   3.130  10.170  1.5356 -1.0981 -0.1451
 5669TIP3    H241203   3.844   3.253  10.251 -1.1761 -0.3718  0.0337
 5670TIP3   OH241204   0.779   2.706   8.592  0.1833  0.0084 -0.1917
 5670TIP3    H141205   0.768   2.710   8.497  0.4961  0.1313 -0.2268
 5670TIP3    H241206   0.839   2.778   8.612  0.8554 -0.5888 -0.0220
 5671TIP3   OH241207   5.473   5.095   9.045  0.1200  0.5805  0.4858
 5671TIP3    H141208   5.564   5.067   9.044  0.2593  1.0362 -0.0009
 5671TIP3    H241209   5.424   5.018   9.074  0.2594 -0.9090 -2.7979
 5672TIP3   OH241210   0.788   1.848  10.390 -0.2930  0.4065 -0.7017
 5672TIP3    H141211   0.793   1.863  10.484  1.9174 -0.3110 -0.6615
 5672TIP3    H241212   0.815   1.931  10.351 -1.1148  0.6725 -0.7343
 5673TIP3   OH241213   1.765   0.841  11.557 -0.7583  0.2153 -0.3389
 5673TIP3    H141214   1.708   0.767  11.535 -2.0219  1.2919 -0.8787
 5673TIP3    H241215   1.798   0.822  11.644 -0.6954 -1.1886 -0.6485
 5674TIP3   OH241216   5.869   1.744   8.310 -0.2148  0.2553  1.0571
 5674TIP3    H141217   5.785   1.733   8.266  0.3987  1.3790 -0.4723
 5674TIP3    H241218   5.883   1.839   8.311  1.1552  0.0694  1.0724
 5675TIP3   OH241219   4.273   5.965   9.024  0.1898  0.0225 -0.0024
 5675TIP3    H141220   4.299   6.012   9.104  0.6474 -0.7786  0.3340
 5675TIP3    H241221   4.327   5.886   9.025 -1.2261 -0.9765 -0.0631
 5676TIP3   OH241222   0.075   4.414  10.347 -0.2128 -0.0498 -0.2007
 5676TIP3    H141223   0.024   4.339  10.377 -2.0337  1.7431  1.4582
 5676TIP3    H241224   0.014   4.465  10.293  0.9318  0.3684 -1.1458
 5677TIP3   OH241225   0.655   2.201   7.971  0.1662 -0.1879  0.4407
 5677TIP3    H141226   0.651   2.290   8.005  0.0694  0.0934 -0.2957
 5677TIP3    H241227   0.734   2.199   7.917 -1.0796  0.1562 -1.4743
 5678TIP3   OH241228   6.582   1.777   8.371  0.1307 -0.0033  0.0804
 5678TIP3    H141229   6.509   1.752   8.314  0.2662 -0.1117 -0.0449
 5678TIP3    H241230   6.557   1.745   8.457 -1.1016  2.0395  0.5727
 5679TIP3   OH241231   4.647   2.481   9.662  0.3347 -0.5024  0.2177
 5679TIP3    H141232   4.715   2.523   9.715 -0.2478  0.2083  0.4162
 5679TIP3    H241233   4.609   2.415   9.721 -0.7492  0.7250  0.9343
 5680TIP3   OH241234   3.097   2.211   9.064  0.2336 -0.2873  0.0112
 5680TIP3    H141235   3.049   2.164   8.996 -0.2409 -1.0193  0.8322
 5680TIP3    H241236   3.029   2.246   9.122  0.6684 -1.4738  1.2765
 5681TIP3   OH241237   4.952   5.409   8.702  0.3789  0.1137 -0.2142
 5681TIP3    H141238   5.037   5.443   8.729  0.2957 -0.4990  0.8968
 5681TIP3    H241239   4.893   5.484   8.707  0.5950  0.2544  0.2928
 5682TIP3   OH241240   6.015   4.155  11.140 -0.1987 -0.0866 -0.2995
 5682TIP3    H141241   5.948   4.156  11.208 -0.7151  0.8369 -0.8080
 5682TIP3    H241242   6.077   4.088  11.169 -2.3240 -2.4271 -0.7668
 5683TIP3   OH241243   1.900   0.911  11.341 -0.0619  0.0367  0.2921
 5683TIP3    H141244   1.847   0.907  11.420 -1.7291  0.9996 -0.7197
 5683TIP3    H241245   1.864   0.843  11.284  1.6992 -1.2562  0.6466
 5684TIP3   OH241246   2.819   5.506  10.803 -0.2455  0.3798  0.2031
 5684TIP3    H141247   2.789   5.476  10.889  0.9444 -0.4733  0.3545
 5684TIP3    H241248   2.741   5.506  10.749 -0.7371 -0.6198  0.8830
 5685TIP3   OH241249   4.361   4.404  10.173  0.5099  0.4952  0.1528
 5685TIP3    H141250   4.268   4.414  10.190  0.4715 -0.5208  0.5924
 5685TIP3    H241251   4.379   4.311  10.187  1.5443  0.6300 -0.1505
 5686TIP3   OH241252   3.454   3.516  11.094 -0.5553 -0.0026  0.3393
 5686TIP3    H141253   3.529   3.567  11.127 -1.1660  2.0701 -1.2237
 5686TIP3    H241254   3.379   3.548  11.144 -0.9382  0.6518 -0.6191
 5687TIP3   OH241255   3.775   5.916  11.598 -0.8777 -0.4187  0.8218
 5687TIP3    H141256   3.825   5.988  11.559 -0.1718 -0.9701  0.6847
 5687TIP3    H241257   3.690   5.953  11.617 -0.1155  0.8293  1.9787
 5688TIP3   OH241258   4.425   2.607  11.465  0.0917 -1.1262  0.8055
 5688TIP3    H141259   4.374   2.539  11.421 -1.4185 -0.4609  1.4597
 5688TIP3    H241260   4.360   2.660  11.510  0.9076  2.2497 -1.6199
 5689TIP3   OH241261   4.538   4.213   9.590 -0.5604 -0.1853 -0.0429
 5689TIP3    H141262   4.594   4.212   9.512 -0.8843  0.2455 -0.2857
 5689TIP3    H241263   4.450   4.231   9.556 -1.0121 -1.6820  0.2333
 5690TIP3   OH241264   0.285   5.793  10.731 -0.8111 -0.2016 -0.5568
 5690TIP3    H141265   0.302   5.778  10.824  3.2230  2.2640 -0.6598
 5690TIP3    H241266   0.253   5.883  10.727  1.9181  0.8332 -1.5886
 5691TIP3   OH241267   2.582   4.940  10.664 -0.1664 -0.0996 -0.1597
 5691TIP3    H141268   2.536   5.016  10.629 -0.2576 -1.2207 -2.7133
 5691TIP3    H241269   2.512   4.884  10.698 -0.2368  0.2111  0.2202
 5692TIP3   OH241270   1.432   0.472   9.607  0.0450 -0.1021  0.0822
 5692TIP3    H141271   1.384   0.555   9.614  1.5221  0.7410  0.9913
 5692TIP3    H241272   1.520   0.494   9.639  0.6721 -1.8649 -0.3532
 5693TIP3   OH241273   2.419   3.386  10.934 -0.0479 -0.4111 -0.5825
 5693TIP3    H141274   2.458   3.443  11.000  0.3687 -1.7858  0.3892
 5693TIP3    H241275   2.474   3.399  10.857  1.9867 -1.7673  0.5504
 5694TIP3   OH241276   6.156   0.988   8.060 -0.4308 -0.3323  0.4171
 5694TIP3    H141277   6.126   1.010   8.148 -1.2088 -0.5470  0.2152
 5694TIP3    H241278   6.249   1.009   8.060 -0.5657  0.2807  1.0870
 5695TIP3   OH241279   6.529   2.449  10.281  0.1081 -0.0672  0.4158
 5695TIP3    H141280   6.438   2.450  10.310 -0.0149 -2.4248  0.2730
 5695TIP3    H241281   6.530   2.507  10.205 -1.6113 -1.1200 -0.4689
 5696TIP3   OH241282   1.356   0.508  10.543 -0.1592 -1.0306  0.3746
 5696TIP3    H141283   1.419   0.553  10.599 -1.1042 -0.0707  0.6892
 5696TIP3    H241284   1.375   0.540  10.455 -1.8418  1.2730  0.7786
 5697TIP3   OH241285   4.108   5.849  10.201 -0.4544 -0.0802  0.0797
 5697TIP3    H141286   4.028   5.901  10.204 -2.0004 -2.1638 -1.7378
 5697TIP3    H241287   4.085   5.766  10.242  1.6107  0.1367  1.8865
 5698TIP3   OH241288   3.986   0.758   9.537  0.6647 -0.0880 -0.3815
 5698TIP3    H141289   3.896   0.752   9.503 -0.7096 -1.7226  3.0738
 5698TIP3    H241290   4.032   0.686   9.496  1.1485  1.8780 -3.6915
 5699TIP3   OH241291   4.974   1.810  11.294  0.1706  0.1749  0.3193
 5699TIP3    H141292   4.969   1.787  11.202 -1.4369  0.0215  0.4275
 5699TIP3    H241293   5.012   1.898  11.295  1.2092 -0.2369 -0.3954
 5700TIP3   OH241294   2.193   4.719   9.945  0.2122 -1.2182  0.3446
 5700TIP3    H141295   2.225   4.791   9.890 -1.0386 -1.7301 -1.1201
 5700TIP3    H241296   2.257   4.649   9.933  1.1421 -0.5858  1.3522
 5701TIP3   OH241297   3.053   5.735   9.694 -0.4581  0.5071  0.5187
 5701TIP3    H141298   3.147   5.735   9.713 -0.3835 -2.2073  0.5316
 5701TIP3    H241299   3.011   5.742   9.780 -0.3157  2.3371  0.4679
 5702TIP3   OH241300   4.938   1.779  10.750  0.7678  0.0209  0.0645
 5702TIP3    H141301   4.981   1.865  10.749  0.5145  0.1430 -1.0836
 5702TIP3    H241302   4.897   1.771  10.664 -1.5615 -0.0695  1.1036
 5703TIP3   OH241303   4.624   3.564   9.427 -0.5246 -0.9153 -0.0371
 5703TIP3    H141304   4.627   3.475   9.393 -3.4742 -0.5582 -1.6193
 5703TIP3    H241305   4.575   3.557   9.509 -1.5172 -0.7026 -0.5915
 5704TIP3   OH241306   6.218   1.988  10.623 -0.0237  0.5305 -0.3354
 5704TIP3    H141307   6.295   2.045  10.620  0.9459 -0.7552 -0.8257
 5704TIP3    H241308   6.180   1.993  10.535  0.0085  0.4913 -0.3521
 5705TIP3   OH241309   2.555   3.729  11.303 -0.0112 -0.2399  0.1919
 5705TIP3    H141310   2.616   3.758  11.370  0.0251  1.1049 -0.3807
 5705TIP3    H241311   2.469   3.735  11.344  0.0418  0.2327  0.2413
 5706TIP3   OH241312   5.189   3.194  11.664  0.6744  0.4338 -0.5041
 5706TIP3    H141313   5.251   3.171  11.594 -0.0645 -2.5003 -0.3479
 5706TIP3    H241314   5.174   3.111  11.710 -2.9086  1.1067 -0.1599
 5707TIP3   OH241315   5.527   6.654   9.715  0.0383 -0.0117 -0.2647
 5707TIP3    H141316   5.561   6.704   9.641 -0.1719 -0.3930 -0.6243
 5707TIP3    H241317   5.441   6.693   9.733 -0.0981 -0.2019 -0.5041
 5708TIP3   OH241318   3.610   2.528   8.146 -0.2135 -0.3393  0.2287
 5708TIP3    H141319   3.676   2.458   8.145 -1.3397 -1.4722  1.0495
 5708TIP3    H241320   3.533   2.488   8.104 -0.1158  1.2745 -1.6279
 5709TIP3   OH241321   3.812   5.904  10.299 -0.1339 -0.3099 -0.2606
 5709TIP3    H141322   3.768   5.983  10.269  0.8259 -0.2662 -1.6759
 5709TIP3    H241323   3.784   5.893  10.390 -0.7821  1.2877 -0.2408
 5710TIP3   OH241324   0.420   3.177  10.249 -0.3121 -0.1323 -0.6569
 5710TIP3    H141325   0.490   3.132  10.297  1.4058  1.9362 -1.0479
 5710TIP3    H241326   0.404   3.257  10.299 -1.6715 -0.0729 -1.1588
 5711TIP3   OH241327   5.757   5.876  10.942 -0.2919  0.1420 -0.2350
 5711TIP3    H141328   5.735   5.946  11.003  1.9792  0.3377  0.4445
 5711TIP3    H241329   5.811   5.919  10.875  1.1111 -0.9238  0.1732
 5712TIP3   OH241330   2.510   5.727  10.933 -0.3169 -0.0643 -0.1564
 5712TIP3    H141331   2.486   5.635  10.948  0.7920 -0.9548 -3.0455
 5712TIP3    H241332   2.570   5.748  11.004 -1.8200 -0.9959  1.4831
 5713TIP3   OH241333   4.672   2.699  11.343 -0.3274 -0.0807 -0.1219
 5713TIP3    H141334   4.592   2.684  11.393  0.2242  0.4857  0.9702
 5713TIP3    H241335   4.743   2.666  11.399  0.1599 -1.3060 -1.4069
 5714TIP3   OH241336   1.076   2.315   8.552 -0.0161 -0.0658 -0.7515
 5714TIP3    H141337   0.990   2.355   8.564 -0.4838 -1.0458 -0.7423
 5714TIP3    H241338   1.076   2.284   8.462  0.1657 -0.4366 -0.6282
 5715TIP3   OH241339   3.826   2.608   9.935 -0.0899 -0.1505  0.0258
 5715TIP3    H141340   3.837   2.689   9.985 -0.9405  0.3938 -0.6336
 5715TIP3    H241341   3.872   2.625   9.852 -0.3854 -0.2838 -0.1686
 5716TIP3   OH241342   4.879   2.376   7.986  0.3169  0.1525 -0.2705
 5716TIP3    H141343   4.788   2.394   7.963  0.6919  2.4151 -0.2136
 5716TIP3    H241344   4.907   2.454   8.034  2.6796  0.1418 -1.5038
 5717TIP3   OH241345   3.431   6.344   8.962 -0.0410 -0.4100  0.0527
 5717TIP3    H141346   3.466   6.308   8.880 -1.7190 -1.6395 -0.1969
 5717TIP3    H241347   3.434   6.271   9.023  1.6036  0.6204  1.2738
 5718TIP3   OH241348   3.853   2.732  10.711  0.0983  0.0554 -0.1022
 5718TIP3    H141349   3.921   2.742  10.645 -1.2096  1.7283 -1.2689
 5718TIP3    H241350   3.896   2.756  10.793  1.2843 -0.3397 -0.5791
 5719TIP3   OH241351   4.970   2.663   8.160 -0.6189  0.4031 -0.3829
 5719TIP3    H141352   5.046   2.647   8.103 -0.3573 -0.6158  0.2156
 5719TIP3    H241353   4.994   2.622   8.243 -2.0593 -0.4640 -0.3569
 5720TIP3   OH241354   3.618   4.057   9.692 -0.1352 -0.0196 -0.2336
 5720TIP3    H141355   3.593   4.044   9.601 -0.6914  2.1130 -0.4372
 5720TIP3    H241356   3.665   4.141   9.693  0.1554 -0.1601  1.3903
 5721TIP3   OH241357   4.476   5.849  10.228 -0.7477 -0.3915 -0.0268
 5721TIP3    H141358   4.477   5.908  10.152 -0.3958  0.4389  0.6117
 5721TIP3    H241359   4.526   5.773  10.199 -2.4328 -1.0822 -1.3782
 5722TIP3   OH241360   3.591   4.421   8.356  0.1782 -0.3361 -0.2615
 5722TIP3    H141361   3.600   4.327   8.344 -0.6658 -0.4821  0.1466
 5722TIP3    H241362   3.679   4.456   8.346  0.4574 -1.1424 -0.6487
 5723TIP3   OH241363   6.583   2.637   8.583 -0.3937  0.0128 -0.1358
 5723TIP3    H141364   6.500   2.605   8.548 -1.0831  0.3424  1.1369
 5723TIP3    H241365   6.579   2.732   8.573 -0.2713  0.0480  0.1374
 5724TIP3   OH241366   2.613   3.772   9.111 -0.4857 -0.4174  0.4370
 5724TIP3    H141367   2.670   3.702   9.143  0.2395  0.8859  2.1873
 5724TIP3    H241368   2.672   3.836   9.071 -0.5894  1.0629  2.4872
 5725TIP3   OH241369   0.631   5.959  10.980 -0.4606 -0.3313 -0.1057
 5725TIP3    H141370   0.570   5.893  11.012 -0.6524  0.0799  0.3876
 5725TIP3    H241371   0.576   6.021  10.933 -0.4319  0.0458  0.3478
 5726TIP3   OH241372   2.643   3.192   9.530  0.3268  0.0290  0.2541
 5726TIP3    H141373   2.663   3.186   9.437  0.9636  1.4411  0.2782
 5726TIP3    H241374   2.621   3.284   9.544  2.2632  0.3226  1.8575
 5727TIP3   OH241375   5.836   2.531   9.728 -0.2968 -0.1082 -0.3860
 5727TIP3    H141376   5.823   2.448   9.682  0.2768  0.6505 -1.9975
 5727TIP3    H241377   5.897   2.580   9.672 -1.0798  1.6298  0.2250
 5728TIP3   OH241378   4.191   2.648   8.417  0.2017 -0.2110  0.2624
 5728TIP3    H141379   4.145   2.573   8.378  0.7992  0.4957 -1.9214
 5728TIP3    H241380   4.187   2.716   8.350  1.4049  1.0559  1.4225
 5729TIP3   OH241381   4.703   1.845   9.220  0.0271 -0.2603 -0.0709
 5729TIP3    H141382   4.726   1.929   9.260  2.0178 -1.5144  1.6789
 5729TIP3    H241383   4.662   1.868   9.137  0.9659  2.4163  0.1059
 5730TIP3   OH241384   2.491   1.604   8.089 -0.4637 -0.3539 -0.9824
 5730TIP3    H141385   2.577   1.640   8.112 -1.1280 -0.1013  1.3459
 5730TIP3    H241386   2.511   1.522   8.044  0.9956  0.4373 -1.8453
 5731TIP3   OH241387   0.529   4.976   8.605  0.7184  0.2072  0.9034
 5731TIP3    H141388   0.563   5.041   8.666 -0.0114  1.6578 -0.1566
 5731TIP3    H241389   0.603   4.919   8.586  1.4626  0.9068  1.6625
 5732TIP3   OH241390   1.501   5.340   7.900 -0.0904  0.2827  0.5620
 5732TIP3    H141391   1.551   5.419   7.921 -0.0895  0.4039  0.1095
 5732TIP3    H241392   1.563   5.284   7.852 -0.8211  1.1173 -1.4853
 5733TIP3   OH241393   3.611   2.748  10.223  0.4615 -0.1465  0.1532
 5733TIP3    H141394   3.691   2.791  10.252  2.9771 -3.4219 -1.3174
 5733TIP3    H241395   3.563   2.730  10.305  1.8876  0.6215  1.2054
 5734TIP3   OH241396   6.694   1.758  10.637 -0.1968 -0.1301 -0.2876
 5734TIP3    H141397   6.691   1.745  10.732  0.7457  2.2095  0.1418
 5734TIP3    H241398   6.603   1.751  10.609 -0.3250 -2.4203  0.4910
 5735TIP3   OH241399   6.277   1.342  10.170 -0.4286 -0.7220 -0.6259
 5735TIP3    H141400   6.250   1.288  10.095 -0.0166  1.4664 -2.4718
 5735TIP3    H241401   6.369   1.317  10.185  0.1611  0.2383 -2.2899
 5736TIP3   OH241402   6.628   2.745  10.148  0.2983  0.2275 -0.0885
 5736TIP3    H141403   6.575   2.771  10.224  0.0820  0.9320 -0.4690
 5736TIP3    H241404   6.708   2.708  10.186  0.3030  0.7996  0.4846
 5737TIP3   OH241405   2.759   1.216  10.282  0.0737 -0.6092 -0.1772
 5737TIP3    H141406   2.742   1.168  10.364  1.7179  0.0960  0.6218
 5737TIP3    H241407   2.854   1.227  10.280 -0.1996  2.8456 -0.1700
 5738TIP3   OH241408   6.446   0.571   7.922  0.2287  0.2850  0.0695
 5738TIP3    H141409   6.369   0.609   7.965  1.7119  0.3970  2.8540
 5738TIP3    H241410   6.415   0.488   7.885 -1.8795  1.7189 -1.6749
 5739TIP3   OH241411   4.336   0.374  10.626 -0.1058  0.4530 -0.3801
 5739TIP3    H141412   4.328   0.288  10.666 -1.6545  0.9454  0.4483
 5739TIP3    H241413   4.249   0.414  10.637  0.4728  1.9762 -1.0581
 5740TIP3   OH241414   3.759   4.967   8.716 -0.5411 -0.0718 -0.0290
 5740TIP3    H141415   3.763   4.954   8.810 -0.2453  1.7597  0.2550
 5740TIP3    H241416   3.807   4.892   8.679  0.9122  0.1192  1.3751
 5741TIP3   OH241417   4.133   5.064   8.881  0.3832 -0.0846 -0.2773
 5741TIP3    H141418   4.197   5.130   8.855 -0.2866  0.3773 -0.7718
 5741TIP3    H241419   4.052   5.113   8.894 -0.3672 -0.9338 -1.5886
 5742TIP3   OH241420   6.055   4.900  10.811 -0.3930 -0.0013  0.0722
 5742TIP3    H141421   5.995   4.865  10.877 -0.5968 -0.7745 -0.5160
 5742TIP3    H241422   6.136   4.917  10.860 -0.8830  0.4718  0.7421
 5743TIP3   OH241423   4.747   1.340  17.704 -0.0524 -0.9715 -0.1723
 5743TIP3    H141424   4.820   1.379  17.752 -0.1490 -1.3298  0.2700
 5743TIP3    H241425   4.785   1.265  17.659 -0.2780 -1.5446  0.5817
 5744TIP3   OH241426   5.144   5.100   9.802 -0.0799  0.3839  0.1886
 5744TIP3    H141427   5.229   5.074   9.767 -0.4370 -0.6208  0.0465
 5744TIP3    H241428   5.156   5.191   9.829  0.6945  0.6394 -0.9489
 5745TIP3   OH241429   1.508   3.348   8.696 -0.0119  0.1258 -1.0521
 5745TIP3    H141430   1.586   3.360   8.642  2.1201  0.9307  1.9613
 5745TIP3    H241431   1.500   3.430   8.744  0.3972 -1.6846  2.3977
 5746TIP3   OH241432   1.255   1.974  10.851 -0.2937 -0.3094 -0.1800
 5746TIP3    H141433   1.339   1.989  10.895  0.0669  2.1443 -1.5378
 5746TIP3    H241434   1.189   1.989  10.919  0.3120  0.1205  0.3241
 5747TIP3   OH241435   6.393   2.934   9.311  0.4059  0.2388 -0.2151
 5747TIP3    H141436   6.298   2.929   9.322  0.3799  0.0526 -0.5155
 5747TIP3    H241437   6.412   2.874   9.239  0.9099 -0.7871  0.7375
 5748TIP3   OH241438   4.791   4.819   9.996 -0.1060  0.5860 -0.2782
 5748TIP3    H141439   4.882   4.844  10.011  0.3566 -0.6010 -1.0272
 5748TIP3    H241440   4.777   4.832   9.902 -0.6878  0.6617 -0.1890
 5749TIP3   OH241441   1.655   4.756   9.857  0.2431 -0.1394 -0.1285
 5749TIP3    H141442   1.708   4.828   9.823  2.6261 -1.4697  0.5488
 5749TIP3    H241443   1.656   4.691   9.786 -1.0323  0.0417 -0.3368
 5750TIP3   OH241444   0.420   4.042   8.033  0.1720  0.1395  0.6248
 5750TIP3    H141445   0.440   3.956   8.069  1.8222  0.0096 -0.4673
 5750TIP3    H241446   0.339   4.029   7.983 -0.0472 -0.5731  1.1535
 5751TIP3   OH241447   0.540   0.773  10.251 -0.2495  0.2655  0.2948
 5751TIP3    H141448   0.535   0.868  10.242 -0.6680  0.3258  0.9961
 5751TIP3    H241449   0.478   0.753  10.322 -1.7527 -0.7545 -1.2161
 5752TIP3   OH241450   3.903   0.578  10.260  0.6208  0.3007  0.6517
 5752TIP3    H141451   3.954   0.519  10.316 -0.0853 -0.1312  0.8574
 5752TIP3    H241452   3.844   0.519  10.212 -0.0042  0.8306  0.7607
 5753TIP3   OH241453   5.813   1.635   9.698 -0.2815 -0.3498  0.8308
 5753TIP3    H141454   5.734   1.629   9.643  0.5080  0.6813 -0.4579
 5753TIP3    H241455   5.847   1.545   9.701 -1.3489 -0.7611  1.1972
 5754TIP3   OH241456   5.472   4.190   8.386 -0.0660  0.4698  0.2792
 5754TIP3    H141457   5.567   4.195   8.396 -0.1895  2.1109  0.9792
 5754TIP3    H241458   5.453   4.243   8.308 -0.4759  0.9410  0.6920
 5755TIP3   OH241459   1.966   3.631  10.390  0.6606  0.1861 -0.0346
 5755TIP3    H141460   1.871   3.620  10.398  0.8206 -1.7439 -0.4462
 5755TIP3    H241461   1.999   3.620  10.479  0.6741 -1.2823 -0.2104
 5756TIP3   OH241462   2.069   2.957   8.481  0.3290 -0.0631 -0.4319
 5756TIP3    H141463   2.163   2.952   8.463  0.2988 -2.4061 -0.2896
 5756TIP3    H241464   2.050   3.050   8.487  2.8697  0.4591  0.6623
 5757TIP3   OH241465   0.860   0.940  10.205  0.4333 -0.2359 -0.1299
 5757TIP3    H141466   0.886   0.908  10.119 -0.3463 -0.2188 -0.3835
 5757TIP3    H241467   0.773   0.978  10.191  0.1575 -0.5200  0.7199
 5758TIP3   OH241468   5.101   5.936   8.498 -0.2080 -0.3741  0.3504
 5758TIP3    H141469   5.075   5.976   8.415 -2.2032 -0.4230  0.9193
 5758TIP3    H241470   5.120   5.845   8.474  2.0240  0.2515 -0.5132
 5759TIP3   OH241471   0.164   6.163   8.667  0.2109 -0.4533  0.4075
 5759TIP3    H141472   0.243   6.214   8.685  0.8030 -1.2627  0.1678
 5759TIP3    H241473   0.094   6.213   8.707  1.1487 -0.9401  2.8225
 5760TIP3   OH241474   0.740   1.834  11.578 -0.1422  0.0812 -0.1024
 5760TIP3    H141475   0.740   1.928  11.591  1.4748 -0.0135  0.7799
 5760TIP3    H241476   0.659   1.817  11.530 -1.2286  1.7237  1.0160
 5761TIP3   OH241477   5.991   5.816  10.314  0.4804 -0.2321  0.3339
 5761TIP3    H141478   6.081   5.845  10.297  0.3638 -0.2288 -0.3105
 5761TIP3    H241479   5.997   5.721  10.320  0.7392 -0.1564  1.6788
 5762TIP3   OH241480   5.002   5.558  10.674 -0.2862  0.3613  0.0690
 5762TIP3    H141481   4.950   5.495  10.624 -0.3642  0.7753 -0.3907
 5762TIP3    H241482   5.069   5.506  10.717 -0.5541 -0.0730 -0.0337
 5763TIP3   OH241483   5.781   1.650  11.272  0.3312 -0.8517 -0.5274
 5763TIP3    H141484   5.871   1.674  11.251 -0.3409  0.7682 -1.7551
 5763TIP3    H241485   5.756   1.588  11.204  0.0670 -0.1971 -1.0308
 5764TIP3   OH241486   3.715   4.320   9.331  0.2571 -0.4056  0.0375
 5764TIP3    H141487   3.792   4.263   9.326  0.1294 -0.5358 -0.4308
 5764TIP3    H241488   3.720   4.376   9.254 -1.0045 -1.5552 -0.9360
 5765TIP3   OH241489   0.522   4.238  10.431  0.2426  0.3503 -0.2653
 5765TIP3    H141490   0.483   4.196  10.508 -0.5193 -0.1906 -0.9267
 5765TIP3    H241491   0.616   4.229  10.444  0.1356  0.7999  0.8892
 5766TIP3   OH241492   6.378   3.987   8.445 -0.3167  0.2600 -0.3439
 5766TIP3    H141493   6.283   3.984   8.434 -0.2318  0.8148 -1.3563
 5766TIP3    H241494   6.402   4.073   8.411  0.5730  0.0471 -0.2559
 5767TIP3   OH241495   5.375   3.238   9.425 -0.1812 -0.2988  0.0015
 5767TIP3    H141496   5.407   3.273   9.508 -1.6188  0.1069  0.4136
 5767TIP3    H241497   5.402   3.146   9.425  0.3484 -0.1451  0.6422
 5768TIP3   OH241498   5.861   2.027   8.345  0.0513 -0.5147  0.2829
 5768TIP3    H141499   5.942   2.049   8.299 -0.8610  0.5400 -0.8984
 5768TIP3    H241500   5.876   2.055   8.435  1.2204 -0.9454  0.2443
 5769TIP3   OH241501   0.629   4.649   8.939 -0.4058  0.2628  0.6455
 5769TIP3    H141502   0.635   4.561   8.976  0.0801  0.3983  0.9004
 5769TIP3    H241503   0.544   4.651   8.895  0.3448 -0.9353 -0.9479
 5770TIP3   OH241504   3.009   1.266   7.931  0.3503  0.3379  0.0395
 5770TIP3    H141505   2.927   1.315   7.933  1.2188  1.9045 -0.7045
 5770TIP3    H241506   3.001   1.209   7.855 -0.4192 -0.2177  0.5303
 5771TIP3   OH241507   4.763   5.971   9.354  0.0664 -0.5010  0.3568
 5771TIP3    H141508   4.799   6.022   9.427  0.9914 -1.2381  0.4273
 5771TIP3    H241509   4.826   5.984   9.282  0.2462 -1.4303  0.3372
 5772TIP3   OH241510   2.011   1.405   8.173  0.1740 -0.0037 -0.0144
 5772TIP3    H141511   2.002   1.421   8.079 -1.3624  1.1082  0.2856
 5772TIP3    H241512   1.959   1.326   8.189 -0.3838  0.3670  0.0392
 5773TIP3   OH241513   3.105   4.789   9.511 -0.1482 -0.3843  0.6365
 5773TIP3    H141514   3.055   4.721   9.466 -0.1189  0.4008 -0.6479
 5773TIP3    H241515   3.197   4.769   9.491 -0.1542  0.1822 -0.0204
 5774TIP3   OH241516   6.644   5.411   8.635 -1.0005 -0.0358 -0.1502
 5774TIP3    H141517   6.710   5.384   8.570 -2.3460 -1.6197 -0.9321
 5774TIP3    H241518   6.565   5.362   8.610 -1.9173  0.3036  1.9372
 5775TIP3   OH241519   5.370   4.773  10.427 -0.0686  0.0775 -0.6102
 5775TIP3    H141520   5.311   4.843  10.399 -1.5742 -0.9489 -0.1214
 5775TIP3    H241521   5.374   4.713  10.353  1.0228  0.5453 -0.9384
 5776TIP3   OH241522   0.042   3.552   9.058 -0.4864  0.5420  0.0262
 5776TIP3    H141523  -0.004   3.506   9.128 -0.5542 -0.6524 -0.7702
 5776TIP3    H241524  -0.009   3.631   9.042 -0.3059  0.9834  1.5104
 5777TIP3   OH241525   6.158   1.747   8.637 -0.0854  0.5359  0.0730
 5777TIP3    H141526   6.203   1.791   8.565  0.4942  0.3552  0.3196
 5777TIP3    H241527   6.154   1.655   8.611 -2.2139  0.8442 -0.9170
 5778TIP3   OH241528   2.023   6.737  10.003  0.1320 -0.1244  0.9579
 5778TIP3    H141529   2.079   6.814  10.012  0.6926 -0.5442  1.1093
 5778TIP3    H241530   1.934   6.770  10.018  0.3974  0.4287  1.3593
 5779TIP3   OH241531   3.188   1.709  11.277 -0.1584 -0.4088 -0.6020
 5779TIP3    H141532   3.176   1.803  11.270 -0.5873 -0.4463 -0.3649
 5779TIP3    H241533   3.152   1.686  11.363  1.2379 -0.5814 -0.0330
 5780TIP3   OH241534   6.720   4.056  11.733 -0.4590  0.1336 -0.3822
 5780TIP3    H141535   6.809   4.042  11.766 -0.4495 -1.2020 -0.8839
 5780TIP3    H241536   6.663   4.034  11.807 -0.4427 -3.0115 -1.1530
 5781TIP3   OH241537   6.360   4.235   8.065 -0.0589  0.5303 -0.1843
 5781TIP3    H141538   6.432   4.297   8.062  0.3092  0.1920  1.0275
 5781TIP3    H241539   6.402   4.149   8.069 -0.5512  0.2459 -0.8302
 5782TIP3   OH241540   5.778   0.637   9.334  0.5015  0.2370  1.0177
 5782TIP3    H141541   5.870   0.614   9.328  0.3330 -0.8416  2.2860
 5782TIP3    H241542   5.756   0.628   9.426 -1.1721 -0.7666  0.5721
 5783TIP3   OH241543   2.427   1.068  10.536  0.5448 -0.0945 -0.5491
 5783TIP3    H141544   2.342   1.111  10.547  1.8433  3.0481 -1.7188
 5783TIP3    H241545   2.490   1.130  10.572  2.3890 -2.8170  1.3767
 5784TIP3   OH241546   1.072   5.670  11.057 -0.2723 -0.1615  0.2215
 5784TIP3    H141547   1.063   5.716  11.140 -1.6667 -1.3397  0.7584
 5784TIP3    H241548   1.160   5.694  11.026 -0.0011  0.8581  1.6707
 5785TIP3   OH241549   0.687   3.776   9.287  0.1555  0.3886  0.0192
 5785TIP3    H141550   0.776   3.807   9.299  0.1692  0.9563 -1.4050
 5785TIP3    H241551   0.638   3.852   9.257 -0.8830  0.1380  0.9820
 5786TIP3   OH241552   0.379   3.182  10.996 -0.3349  0.1887  0.1148
 5786TIP3    H141553   0.352   3.227  11.075 -1.0879 -0.6156  0.3271
 5786TIP3    H241554   0.442   3.241  10.955 -0.1965  0.7647  1.1317
 5787TIP3   OH241555   1.222   2.436  10.911 -0.2354  0.3513  0.0047
 5787TIP3    H141556   1.176   2.506  10.958 -1.1059 -0.4569  0.3980
 5787TIP3    H241557   1.191   2.443  10.821  0.4093  1.0610 -0.1697
 5788TIP3   OH241558   1.527   2.776   9.659 -0.7531  0.5798 -0.7730
 5788TIP3    H141559   1.523   2.858   9.611 -1.5876  0.0739 -1.5846
 5788TIP3    H241560   1.610   2.736   9.633 -0.0522  1.4107  0.0794
 5789TIP3   OH241561   0.346   4.372   8.908  0.0007  0.0855 -0.5354
 5789TIP3    H141562   0.333   4.311   8.980  1.2677  0.1637 -0.2209
 5789TIP3    H241563   0.275   4.436   8.917 -1.7400 -1.6547 -1.2522
 5790TIP3   OH241564   6.143   0.282   9.591 -0.1514 -0.4726  0.4053
 5790TIP3    H141565   6.185   0.347   9.534  0.3392 -0.9404  0.2192
 5790TIP3    H241566   6.194   0.202   9.576 -1.5294 -1.2421 -0.3385
 5791TIP3   OH241567   6.021   3.943  10.788  0.3338  0.1532 -0.1444
 5791TIP3    H141568   6.111   3.973  10.805  0.4125  0.3356 -0.8605
 5791TIP3    H241569   6.023   3.912  10.698 -0.2347 -0.2022 -0.0354
 5792TIP3   OH241570   5.733   0.166  10.531  0.4604  0.0164 -0.2878
 5792TIP3    H141571   5.720   0.071  10.528 -3.6501  0.4339 -1.2219
 5792TIP3    H241572   5.708   0.191  10.620  2.3949  0.2251  0.2461
 5793TIP3   OH241573   2.477   5.030  11.216 -0.1131 -0.4012  0.1956
 5793TIP3    H141574   2.511   5.084  11.145  0.9473  0.3520  1.2429
 5793TIP3    H241575   2.387   5.060  11.228  1.0913  3.0014  2.3411
 5794TIP3   OH241576   0.634   5.232   8.999 -0.2809 -0.2029  0.1500
 5794TIP3    H141577   0.670   5.298   9.059  0.0912  0.1301 -0.4359
 5794TIP3    H241578   0.551   5.269   8.969 -0.6413 -0.5277  0.7269
 5795TIP3   OH241579   3.054   0.742   8.989 -0.1252  0.4731  0.1656
 5795TIP3    H141580   3.057   0.710   8.898  3.5113  0.5835  0.1003
 5795TIP3    H241581   3.090   0.831   8.984  0.6423  0.2823  1.7678
 5796TIP3   OH241582   3.412   4.618   8.307  0.1320 -0.5744 -0.1144
 5796TIP3    H141583   3.463   4.538   8.313  0.3578 -0.3520  1.3445
 5796TIP3    H241584   3.321   4.588   8.315  0.2465 -0.6574  1.2253
 5797TIP3   OH241585   6.712   3.481   9.306  0.0288  0.2930 -0.1372
 5797TIP3    H141586   6.691   3.465   9.398 -1.4939 -3.9786 -1.0367
 5797TIP3    H241587   6.804   3.508   9.308 -0.3483  1.7792  2.6689
 5798TIP3   OH241588   4.060   4.570   8.301  0.1035  0.2898 -0.2720
 5798TIP3    H141589   4.076   4.476   8.313 -0.1283  0.4702  1.9067
 5798TIP3    H241590   4.144   4.611   8.318 -0.0948  0.5408  0.1331
 5799TIP3   OH241591   1.082   6.286   9.324  0.6838 -0.5124 -0.0933
 5799TIP3    H141592   1.046   6.210   9.369  1.4450 -0.7914  0.0648
 5799TIP3    H241593   1.065   6.269   9.232  1.7742 -1.4103 -0.1610
 5800TIP3   OH241594   1.383   1.201  11.033 -0.2402  0.1406  0.1289
 5800TIP3    H141595   1.397   1.107  11.041  1.0584  0.3151  0.1705
 5800TIP3    H241596   1.418   1.237  11.115 -3.0626  0.4793  1.2978
 5801TIP3   OH241597   4.332   1.008   8.200  0.5169  0.5781  0.1256
 5801TIP3    H141598   4.270   0.944   8.235  2.2242 -1.8877 -1.1048
 5801TIP3    H241599   4.289   1.044   8.123 -0.5616  1.1828  0.9678
 5802TIP3   OH241600   1.593   3.295  11.146 -0.3455 -0.4623  0.0646
 5802TIP3    H141601   1.522   3.355  11.125 -1.7279 -1.5202  1.5054
 5802TIP3    H241602   1.608   3.306  11.240  1.7084  0.0297 -0.2784
 5803TIP3   OH241603   5.514   4.301   8.090  0.1803 -0.4263 -0.0543
 5803TIP3    H141604   5.458   4.349   8.151 -0.5935 -0.7532 -0.4973
 5803TIP3    H241605   5.529   4.362   8.018  1.3502  0.0733  0.5767
 5804TIP3   OH241606   5.281   2.168   9.707 -0.3390  0.1471 -0.2144
 5804TIP3    H141607   5.236   2.095   9.664 -1.0046  0.0962  0.5499
 5804TIP3    H241608   5.220   2.242   9.698  0.2460  0.5712 -0.8140
 5805TIP3   OH241609   0.029   4.417   8.750 -0.7688 -0.2796  0.0223
 5805TIP3    H141610  -0.032   4.371   8.693 -1.0363 -1.0503  0.9066
 5805TIP3    H241611  -0.027   4.471   8.806 -0.5206  0.3320 -0.3073
 5806TIP3   OH241612   0.783   1.639   8.592 -0.2560  0.1529  0.3305
 5806TIP3    H141613   0.760   1.732   8.588  0.7339  0.4560  1.1374
 5806TIP3    H241614   0.720   1.601   8.654 -1.3074  0.0632 -0.7740
 5807TIP3   OH241615   1.734   2.227  11.109 -0.6153 -0.3752 -0.1828
 5807TIP3    H141616   1.748   2.246  11.202 -0.8334  0.3526 -0.3009
 5807TIP3    H241617   1.674   2.294  11.079 -0.3078 -0.4257 -0.9296
 5808TIP3   OH241618   0.456   4.078   8.794 -0.2493  0.3183  0.5890
 5808TIP3    H141619   0.411   4.158   8.767 -1.1765 -0.3576  0.0783
 5808TIP3    H241620   0.424   4.011   8.733 -0.5177 -0.7274  1.8458
 5809TIP3   OH241621   3.090   5.503   9.544 -0.2906 -0.1754 -0.2031
 5809TIP3    H141622   3.084   5.518   9.450 -2.9261 -0.2847 -0.1064
 5809TIP3    H241623   3.081   5.590   9.583  0.9714 -0.1064 -0.0125
 5810TIP3   OH241624   4.347   0.137   9.221 -0.4341 -0.2525 -0.1548
 5810TIP3    H141625   4.369   0.229   9.235 -0.6217 -0.5613  2.8954
 5810TIP3    H241626   4.431   0.095   9.205 -0.0237  0.1139  0.9255
 5811TIP3   OH241627   5.850   4.814  10.642 -0.3170  0.7153  0.1828
 5811TIP3    H141628   5.903   4.735  10.638 -1.2383 -0.0768  2.1172
 5811TIP3    H241629   5.910   4.883  10.671  0.0677  0.2752  0.4431
 5812TIP3   OH241630   6.635   2.930   9.456  0.1791 -0.0662 -0.2596
 5812TIP3    H141631   6.551   2.965   9.426  0.7522  2.1545  0.5585
 5812TIP3    H241632   6.616   2.888   9.540 -0.1121  0.4507 -0.0662
 5813TIP3   OH241633   6.445   2.815   7.749 -0.3681 -0.2314  0.5724
 5813TIP3    H141634   6.405   2.754   7.686  0.2520 -1.4156  1.2914
 5813TIP3    H241635   6.375   2.833   7.812 -0.5396 -0.2322  0.3838
 5814TIP3   OH241636   1.674   4.911  10.094 -0.0345  0.1908 -0.3437
 5814TIP3    H141637   1.616   4.927  10.019  0.1619  1.2798 -0.2747
 5814TIP3    H241638   1.746   4.859  10.058  0.0079  0.6222 -0.8936
 5815TIP3   OH241639   1.180   0.110   9.870  0.7947  0.1909  0.3311
 5815TIP3    H141640   1.152   0.049   9.939  2.0538  0.4719  1.1318
 5815TIP3    H241641   1.202   0.054   9.796 -2.6481 -0.0089 -0.7123
 5816TIP3   OH241642   4.538   0.475  11.337 -0.3521 -0.2280 -0.1624
 5816TIP3    H141643   4.624   0.447  11.306  0.6987 -0.6151  2.7695
 5816TIP3    H241644   4.537   0.570  11.323 -0.2092 -0.4377 -1.8025
 5817TIP3   OH241645   4.703   4.435   9.136  0.5970  0.8151 -0.6970
 5817TIP3    H141646   4.680   4.347   9.164 -0.6161  1.1382 -0.6130
 5817TIP3    H241647   4.770   4.463   9.198  2.1457 -0.5850 -1.6418
 5818TIP3   OH241648   5.622   3.080  11.378 -0.0122 -0.7459  0.3545
 5818TIP3    H141649   5.667   3.030  11.445 -0.9471  2.7119  3.9387
 5818TIP3    H241650   5.692   3.127  11.332  0.4909 -0.1904  1.6412
 5819TIP3   OH241651   5.481   2.182   9.496 -0.8284 -0.2252 -0.3658
 5819TIP3    H141652   5.535   2.105   9.515 -0.5571  0.2063  0.7179
 5819TIP3    H241653   5.398   2.166   9.540 -0.8553  0.0014 -0.3289
 5820TIP3   OH241654   2.917   0.716  10.667 -0.3037 -0.0909 -0.1908
 5820TIP3    H141655   2.836   0.761  10.688  0.1801  0.9938 -0.5626
 5820TIP3    H241656   2.985   0.765  10.715  0.0206 -1.6869  1.0722
 5821TIP3   OH241657   0.668   2.366   9.098 -0.6030 -0.1101  0.2419
 5821TIP3    H141658   0.670   2.278   9.062 -1.5839 -0.4169  0.9240
 5821TIP3    H241659   0.758   2.382   9.127 -0.2107 -0.5305 -0.7030
 5822TIP3   OH241660   3.803   4.077  10.988  0.1430 -0.2907 -0.4679
 5822TIP3    H141661   3.748   4.153  10.970  0.5727  0.4115  0.9851
 5822TIP3    H241662   3.741   4.006  11.006 -0.2615 -0.1539 -1.3045
 5823TIP3   OH241663   1.930   1.975  10.124  0.1530 -0.3430  0.3126
 5823TIP3    H141664   2.008   2.028  10.108 -1.0799  1.5826  0.2512
 5823TIP3    H241665   1.928   1.963  10.219 -0.8138  1.9539  0.6635
 5824TIP3   OH241666   2.191   3.924   9.176 -0.6790 -0.3725  0.2042
 5824TIP3    H141667   2.170   3.911   9.269  0.4210  0.5090  0.6019
 5824TIP3    H241668   2.271   3.977   9.177 -0.4137 -0.7030 -1.2504
 5825TIP3   OH241669   6.592   0.015  10.045 -0.3323 -0.1893 -0.0768
 5825TIP3    H141670   6.632   0.078   9.986 -1.1906  0.5223  0.0868
 5825TIP3    H241671   6.551   0.068  10.113 -1.6562 -0.8794 -0.3041
 5826TIP3   OH241672   1.699   1.058   8.887 -0.2021 -0.4599 -0.5986
 5826TIP3    H141673   1.614   1.086   8.921  0.5323 -0.4987  1.4269
 5826TIP3    H241674   1.723   1.126   8.824 -0.9569  0.4754  0.0891
 5827TIP3   OH241675   1.666   6.611   9.475 -1.0846  0.4861 -0.0366
 5827TIP3    H141676   1.735   6.574   9.530 -1.2588  2.0858  1.2936
 5827TIP3    H241677   1.694   6.590   9.386 -0.5998 -1.8051  0.5807
 5828TIP3   OH241678   4.766   0.731  10.458  0.1632  0.3952 -0.1801
 5828TIP3    H141679   4.819   0.665  10.412  0.2977  1.5033 -1.6995
 5828TIP3    H241680   4.680   0.726  10.416 -0.0584  0.6271  0.2433
 5829TIP3   OH241681   4.449   4.876   9.011 -0.4495 -0.1333 -0.3926
 5829TIP3    H141682   4.512   4.864   8.940 -0.7061  0.4945 -0.7316
 5829TIP3    H241683   4.370   4.831   8.980  0.4407 -2.8879  0.9578
 5830TIP3   OH241684   2.668   1.450   8.565 -1.1272  0.2194 -0.4684
 5830TIP3    H141685   2.664   1.385   8.636 -2.4734 -1.0338 -1.6088
 5830TIP3    H241686   2.756   1.485   8.569  0.3858 -3.1083 -0.9516
 5831TIP3   OH241687   6.436   0.841   8.527  0.6105  0.5811  0.1758
 5831TIP3    H141688   6.512   0.815   8.476 -0.0957  1.3199 -1.3331
 5831TIP3    H241689   6.414   0.929   8.494 -1.1560  0.2027  0.2326
 5832TIP3   OH241690   5.919   5.984   9.814  0.0525  0.1124 -0.4540
 5832TIP3    H141691   5.922   5.930   9.735 -0.5362 -0.1299 -0.3173
 5832TIP3    H241692   5.920   5.922   9.886 -0.5760  0.2787 -0.2966
 5833TIP3   OH241693   0.016   3.538   8.209  0.5035  0.0932 -0.2043
 5833TIP3    H141694   0.101   3.529   8.253  2.2740 -0.2953 -3.3914
 5833TIP3    H241695   0.005   3.455   8.161 -1.5833  0.2393 -0.0660
 5834TIP3   OH241696   4.732   4.199   8.682 -0.0955 -0.4587 -0.3389
 5834TIP3    H141697   4.686   4.201   8.598 -0.6698  0.2213 -0.0184
 5834TIP3    H241698   4.695   4.272   8.731 -0.2462 -1.2570  0.7648
 5835TIP3   OH241699   0.322   4.420  10.206 -0.5283  0.3981 -0.7811
 5835TIP3    H141700   0.242   4.414  10.258  0.3396  0.5474  0.6141
 5835TIP3    H241701   0.381   4.474  10.258 -0.0950  1.7439 -2.5695
 5836TIP3   OH241702   1.225   5.153  10.016 -0.1321 -0.0429 -0.4675
 5836TIP3    H141703   1.297   5.097   9.987 -0.0521  0.0640 -0.4761
 5836TIP3    H241704   1.268   5.230  10.052 -0.2146 -0.3295  0.2677
 5837TIP3   OH241705   3.991   5.911   9.719 -0.3159  0.2067  0.0113
 5837TIP3    H141706   4.071   5.860   9.707 -0.2487  0.3193 -0.0218
 5837TIP3    H241707   3.956   5.881   9.803  0.5252  1.1763  0.7388
 5838TIP3   OH241708   0.834   6.506  10.408  0.4262 -0.0048 -0.0640
 5838TIP3    H141709   0.894   6.537  10.476  3.0235 -0.3103 -2.0433
 5838TIP3    H241710   0.803   6.586  10.366  0.8101  0.1137 -0.1218
 5839TIP3   OH241711   3.808   0.133   9.967 -0.0137  0.1959 -0.2654
 5839TIP3    H141712   3.832   0.069  10.034 -1.1684  0.3913  0.3513
 5839TIP3    H241713   3.842   0.216   9.999  1.0912 -0.0082 -0.8509
 5840TIP3   OH241714   0.676   1.937   8.105 -0.0093 -0.2641  0.1786
 5840TIP3    H141715   0.633   2.016   8.071  0.8834  0.0451 -0.2642
 5840TIP3    H241716   0.711   1.964   8.189  2.0071  0.4274 -0.8281
 5841TIP3   OH241717   1.751   5.650   9.185 -0.1660  0.3413 -0.1831
 5841TIP3    H141718   1.839   5.649   9.224 -0.1699  2.1181 -0.0587
 5841TIP3    H241719   1.695   5.683   9.254 -0.6984  0.5797 -0.7238
 5842TIP3   OH241720   2.850   1.123   9.040  0.5657  0.2146 -0.2684
 5842TIP3    H141721   2.900   1.116   9.121 -0.9843 -1.6295  0.6216
 5842TIP3    H241722   2.910   1.090   8.973  0.9395 -1.0063  0.6119
 5843TIP3   OH241723   1.354   4.722   9.460 -0.3156  0.1678  0.2286
 5843TIP3    H141724   1.428   4.779   9.478 -0.2563  0.3894 -0.6514
 5843TIP3    H241725   1.393   4.635   9.445 -0.3186  0.0967  0.6225
 5844TIP3   OH241726   2.281   5.500   8.038  0.0456 -0.3922  0.3043
 5844TIP3    H141727   2.271   5.502   7.942  0.8877 -0.6951  0.2048
 5844TIP3    H241728   2.243   5.417   8.064  0.9758 -0.9053  0.0786
 5845TIP3   OH241729   5.912   3.802   8.211 -0.2303 -0.0461  0.2134
 5845TIP3    H141730   5.826   3.835   8.239 -0.6747 -0.3167 -0.7886
 5845TIP3    H241731   5.959   3.880   8.181 -0.2919  0.0400  0.3387
 5846TIP3   OH241732   1.909   0.721   9.586  0.4983  0.0871  0.3309
 5846TIP3    H141733   1.975   0.790   9.594  1.8592 -1.0718 -0.4279
 5846TIP3    H241734   1.930   0.661   9.658  0.8442 -0.7219 -0.4254
 5847TIP3   OH241735   3.864   5.510   8.582  0.1089 -0.1594 -0.0062
 5847TIP3    H141736   3.957   5.526   8.597  0.0953  0.3422 -0.4249
 5847TIP3    H241737   3.821   5.533   8.664  0.1454  1.5248 -0.4130
 5848TIP3   OH241738   6.198   3.975  11.242  0.1248 -0.1560  0.4432
 5848TIP3    H141739   6.224   3.890  11.276  1.5303  0.6242  1.4253
 5848TIP3    H241740   6.182   4.028  11.321  2.6641  1.4685 -0.0351
 5849TIP3   OH241741   6.703   1.114   9.226  0.1912 -0.4337  0.8658
 5849TIP3    H141742   6.662   1.125   9.312  0.5906  0.0542  1.0024
 5849TIP3    H241743   6.705   1.202   9.189  1.1601 -0.4274  0.8967
 5850TIP3   OH241744   5.289   6.477   9.372  0.5776  0.2921  0.0240
 5850TIP3    H141745   5.292   6.497   9.466 -0.9914  0.6124  0.0354
 5850TIP3    H241746   5.232   6.400   9.366  0.0326  0.7394 -0.7203
 5851TIP3   OH241747   0.883   3.562  11.092 -0.6278  0.2561 -0.7300
 5851TIP3    H141748   0.819   3.505  11.135  1.5557 -0.6324  1.6260
 5851TIP3    H241749   0.927   3.506  11.028  2.2638 -1.3339  2.3220
 5852TIP3   OH241750   0.892   2.413  10.091  0.4199  0.0728 -0.8569
 5852TIP3    H141751   0.926   2.372  10.170 -0.0437  0.6034 -0.3721
 5852TIP3    H241752   0.969   2.452  10.049  0.8286 -1.0885 -1.2150
 5853TIP3   OH241753   6.500   6.209   9.828  0.2578 -0.5132 -0.2218
 5853TIP3    H141754   6.425   6.163   9.865  0.6353 -1.0587 -0.1181
 5853TIP3    H241755   6.468   6.297   9.810  0.0930 -0.1740  1.5352
 5854TIP3   OH241756   3.755   2.851   8.441  0.1846 -0.1920  0.2122
 5854TIP3    H141757   3.751   2.809   8.355 -0.7280 -2.1840  1.1639
 5854TIP3    H241758   3.848   2.852   8.463  0.3550 -0.3769 -0.4506
 5855TIP3   OH241759   3.023   3.711  10.259  0.3274  0.9755 -0.3115
 5855TIP3    H141760   2.981   3.670  10.183 -1.3589  0.7794  0.6785
 5855TIP3    H241761   2.986   3.800  10.260 -0.9276  0.4800  1.1596
 5856TIP3   OH241762   4.505   6.023   8.822 -0.1764  0.0189 -0.5450
 5856TIP3    H141763   4.437   6.028   8.754 -0.2861 -0.0722 -0.4433
 5856TIP3    H241764   4.457   6.035   8.904  0.0400  0.7676 -0.5179
 5857TIP3   OH241765   1.598   6.476   8.856 -0.1845  0.7665 -0.3651
 5857TIP3    H141766   1.692   6.487   8.843  0.3536 -1.7365  0.7568
 5857TIP3    H241767   1.589   6.387   8.890 -3.0192  0.7733 -0.8543
 5858TIP3   OH241768   1.797   6.299   8.026 -0.3917 -0.2868  0.3753
 5858TIP3    H141769   1.785   6.283   8.119 -0.6631  0.9012  0.5626
 5858TIP3    H241770   1.715   6.268   7.986 -0.2672 -0.8157  0.5287
 5859TIP3   OH241771   6.686   0.447   8.661 -0.3954 -0.2132 -0.4641
 5859TIP3    H141772   6.715   0.493   8.582  0.6238 -0.1443 -0.0640
 5859TIP3    H241773   6.648   0.515   8.716  0.7939  0.1188 -0.0214
 5860TIP3   OH241774   4.893   2.107   9.597  0.0036 -0.3354  0.3208
 5860TIP3    H141775   4.926   2.169   9.662 -1.1428  0.8335 -0.1612
 5860TIP3    H241776   4.829   2.157   9.547 -1.6922 -2.1754  0.5154
 5861TIP3   OH241777   0.804   4.510  10.920 -0.5478 -0.4734  0.0725
 5861TIP3    H141778   0.721   4.493  10.965 -1.9681  0.4969 -2.0694
 5861TIP3    H241779   0.854   4.564  10.981 -2.4766  0.9537  0.4619
 5862TIP3   OH241780   4.817   3.150  10.041 -0.5238 -0.5480 -0.3256
 5862TIP3    H141781   4.762   3.132  10.117  0.3943  0.6174  0.6561
 5862TIP3    H241782   4.794   3.081   9.978 -0.5907 -2.1583  1.3691
 5863TIP3   OH241783   3.504   0.463  11.165  0.1054  0.1945  0.0799
 5863TIP3    H141784   3.551   0.521  11.225 -0.8319  1.1878 -0.1217
 5863TIP3    H241785   3.550   0.472  11.082 -1.7274  3.0146 -0.7764
 5864TIP3   OH241786   2.823   4.741  10.077  0.2826 -0.7337  0.0472
 5864TIP3    H141787   2.731   4.757  10.097  0.3346  0.1444 -0.3656
 5864TIP3    H241788   2.838   4.650  10.103 -0.5032 -0.6589  0.8156
 5865TIP3   OH241789   0.233   1.280  10.683 -0.2554 -0.2324 -0.0336
 5865TIP3    H141790   0.176   1.357  10.678 -1.0979 -0.8338  0.1812
 5865TIP3    H241791   0.305   1.299  10.622  0.0689  1.1408  0.7373
 5866TIP3   OH241792   3.883   3.136  10.835  0.2512 -0.1275 -0.0243
 5866TIP3    H141793   3.868   3.159  10.927 -0.2788 -1.1863  0.1698
 5866TIP3    H241794   3.918   3.047  10.837 -2.2205 -1.2316 -0.9093
 5867TIP3   OH241795   2.446   1.801  10.604 -0.6440  0.1059 -0.0898
 5867TIP3    H141796   2.364   1.844  10.582 -0.2887  0.9048  0.1093
 5867TIP3    H241797   2.441   1.785  10.698  0.3218  2.1720  0.3607
 5868TIP3   OH241798   0.373   4.847  10.467 -0.4257  0.1988  0.1365
 5868TIP3    H141799   0.463   4.879  10.458  0.1652 -1.5474 -0.7189
 5868TIP3    H241800   0.322   4.901  10.407  0.4576 -0.1454 -0.9688
 5869TIP3   OH241801   1.950   5.227  10.948  0.2326  0.0504  0.0017
 5869TIP3    H141802   1.860   5.225  10.981  0.5501 -0.1629  0.8770
 5869TIP3    H241803   1.987   5.142  10.972  0.4849 -0.1158 -0.9140
 5870TIP3   OH241804   5.886   0.339   9.676 -0.2844  0.2524 -0.1319
 5870TIP3    H141805   5.826   0.341   9.602  0.7253 -1.0304 -1.0462
 5870TIP3    H241806   5.972   0.322   9.637  0.8450  2.7804  1.0521
 5871TIP3   OH241807   3.121   2.398   9.864 -0.0408  0.0312 -0.1957
 5871TIP3    H141808   3.074   2.315   9.869 -2.6647  1.4879  2.0882
 5871TIP3    H241809   3.102   2.442   9.947  2.1080  2.5123 -0.8666
 5872TIP3   OH241810   2.987   4.012  10.211 -0.2694 -0.7352  0.3086
 5872TIP3    H141811   2.945   4.073  10.272 -0.1281 -0.1047 -0.2182
 5872TIP3    H241812   2.915   3.980  10.157 -0.0134  0.8400 -1.0232
 5873TIP3   OH241813   1.745   4.386   8.693 -0.2565 -0.2986  0.1732
 5873TIP3    H141814   1.749   4.465   8.640 -1.0044 -0.9932 -0.9756
 5873TIP3    H241815   1.835   4.372   8.722 -0.2109  1.2417  0.8407
 5874TIP3   OH241816   3.904   0.993   8.105  0.5286  0.1016 -0.2048
 5874TIP3    H141817   3.846   1.058   8.143 -0.0151  0.2200 -1.2235
 5874TIP3    H241818   3.929   0.937   8.179 -0.3734  0.4273  0.3511
 5875TIP3   OH241819   0.513   3.681   8.477 -0.1254  0.3740  0.1222
 5875TIP3    H141820   0.525   3.616   8.546  0.4526  0.6974  0.3334
 5875TIP3    H241821   0.531   3.634   8.396 -2.5250 -0.4924 -0.0080
 5876TIP3   OH241822   5.080   2.594   8.412 -0.0522  0.4160 -0.3553
 5876TIP3    H141823   5.156   2.539   8.395 -0.4100 -0.4889  0.8981
 5876TIP3    H241824   5.114   2.683   8.410  0.9475  0.0446 -0.2311
 5877TIP3   OH241825   0.636   2.793  11.493 -0.1717 -0.2186  0.3316
 5877TIP3    H141826   0.576   2.721  11.471 -0.9729  1.3541 -3.4591
 5877TIP3    H241827   0.581   2.857  11.539 -0.5729 -0.1900 -0.1791
 5878TIP3   OH241828   4.326   2.160   9.910 -0.2400  0.5274 -0.4636
 5878TIP3    H141829   4.343   2.068   9.933 -0.4802  0.5466 -0.2028
 5878TIP3    H241830   4.232   2.163   9.889 -0.6399  1.0604  1.2677
 5879TIP3   OH241831   3.033   4.032   9.632 -0.8889 -0.3729  0.0234
 5879TIP3    H141832   3.115   4.033   9.681 -1.5590 -0.2857  1.1785
 5879TIP3    H241833   2.986   3.955   9.665 -1.1838 -0.5528 -0.7829
 5880TIP3   OH241834   0.585   5.303  10.618  0.1168  0.1987 -0.7201
 5880TIP3    H141835   0.564   5.365  10.547  2.5531  1.0200 -0.7970
 5880TIP3    H241836   0.583   5.357  10.697  1.1310  0.1462 -0.6503
 5881TIP3   OH241837   2.835   1.998   9.659 -0.0803  0.4773 -0.0504
 5881TIP3    H141838   2.911   2.014   9.604 -0.3478  0.6880 -0.3642
 5881TIP3    H241839   2.837   2.067   9.725 -0.6034  1.1490 -0.7189
 5882TIP3   OH241840   1.306   5.412  10.124  0.8488  0.6119 -0.0177
 5882TIP3    H141841   1.400   5.424  10.108  0.9411  0.9667  0.7568
 5882TIP3    H241842   1.265   5.482  10.073  1.1805  2.1006  1.6577
 5883TIP3   OH241843   1.421   0.291   9.817  0.1313  0.3544  0.8869
 5883TIP3    H141844   1.407   0.333   9.732  0.6080  0.9792  1.1064
 5883TIP3    H241845   1.341   0.241   9.832  1.4651 -2.8713 -1.6447
 5884TIP3   OH241846   4.658   5.029  10.534 -0.2560 -0.2660  0.1710
 5884TIP3    H141847   4.605   5.045  10.612  2.3224  1.1862  1.7368
 5884TIP3    H241848   4.640   5.105  10.478  0.3178  0.3381  0.7932
 5885TIP3   OH241849   0.048   4.508  10.608 -0.5064 -0.4961 -0.3449
 5885TIP3    H141850   0.083   4.470  10.527  0.3723 -1.1645  0.3272
 5885TIP3    H241851   0.115   4.570  10.637 -0.6324 -0.5531  0.0753
 5886TIP3   OH241852   6.403   1.917   9.923 -0.5838  0.0696 -0.3358
 5886TIP3    H141853   6.309   1.918   9.904 -0.4585  1.9011 -1.1590
 5886TIP3    H241854   6.444   1.900   9.838 -0.1556  0.3474 -0.1893
 5887TIP3   OH241855   2.391   5.385   8.461 -0.5704  0.0380  0.1555
 5887TIP3    H141856   2.440   5.371   8.542 -0.0901 -0.4362 -0.2033
 5887TIP3    H241857   2.458   5.382   8.393 -0.9163  0.8140 -0.2284
 5888TIP3   OH241858   0.229   0.350  10.131  0.0274 -0.2409  0.3886
 5888TIP3    H141859   0.244   0.402  10.052 -1.3928 -1.0560 -0.4584
 5888TIP3    H241860   0.308   0.362  10.183  0.6637  0.9500 -0.8010
 5889TIP3   OH241861   5.403   3.669  10.387  0.4367 -0.0994  0.3240
 5889TIP3    H141862   5.344   3.707  10.322 -0.9184 -0.7944  1.1132
 5889TIP3    H241863   5.434   3.744  10.438 -0.1766  0.2221  0.2318
 5890TIP3   OH241864   5.856   4.474   9.421 -0.7472  0.1769  0.4850
 5890TIP3    H141865   5.786   4.518   9.469  0.2577 -0.6288  2.8788
 5890TIP3    H241866   5.815   4.394   9.388 -1.3724  0.5315  0.3833
 5891TIP3   OH241867   3.705   2.244   8.711  0.3767 -0.0468  0.2129
 5891TIP3    H141868   3.656   2.162   8.726 -2.4604  1.3995 -0.3532
 5891TIP3    H241869   3.787   2.216   8.671 -0.3968 -2.6404  0.2345
 5892TIP3   OH241870   2.512   4.679   8.352  0.1256 -0.4159  0.3543
 5892TIP3    H141871   2.477   4.589   8.347  0.0663 -0.4952  1.6684
 5892TIP3    H241872   2.578   4.674   8.421 -2.0233  1.1615  2.7269
 5893TIP3   OH241873   1.977   0.559   9.849 -0.0057 -0.6349  0.1477
 5893TIP3    H141874   2.069   0.581   9.833 -0.0252 -1.6792 -1.7848
 5893TIP3    H241875   1.980   0.488   9.913  0.3458  1.0287  2.0625
 5894TIP3   OH241876   2.075   3.571   9.133 -0.2203  0.1353  0.0736
 5894TIP3    H141877   2.099   3.479   9.142 -0.2270 -0.1221 -1.9103
 5894TIP3    H241878   2.006   3.571   9.067 -1.7148  1.4037  1.5726
 5895TIP3   OH241879   0.108   0.865   7.758 -0.5965  0.2224  0.2364
 5895TIP3    H141880   0.080   0.773   7.755  1.5728 -0.4942  0.2080
 5895TIP3    H241881   0.071   0.904   7.679  0.2898 -1.2407 -0.9600
 5896TIP3   OH241882   1.976   6.435   9.935  0.6588  0.0109 -0.2232
 5896TIP3    H141883   1.924   6.371   9.984 -0.7154  0.8324 -0.5677
 5896TIP3    H241884   2.036   6.471  10.000 -0.3547  0.2576  0.6126
 5897TIP3   OH241885   1.710   5.704   8.226 -0.1021  0.1028  0.2066
 5897TIP3    H141886   1.677   5.787   8.192 -0.0149  0.2937  0.5816
 5897TIP3    H241887   1.751   5.727   8.309  1.9409  0.0562 -0.7419
 5898TIP3   OH241888   0.024   5.062  10.888 -0.1411  0.4361  0.4661
 5898TIP3    H141889   0.080   5.080  10.812  0.0004 -0.1006  0.4401
 5898TIP3    H241890   0.078   5.087  10.964 -0.0774  0.4512  0.4161
 5899TIP3   OH241891   6.222   3.605   9.369 -0.6478 -0.1141  0.3122
 5899TIP3    H141892   6.285   3.572   9.306  0.3351 -0.3572  1.3873
 5899TIP3    H241893   6.231   3.547   9.445 -0.0761  1.5795  1.6045
 5900TIP3   OH241894   5.783   2.747   8.160  0.0027 -0.6850 -0.5166
 5900TIP3    H141895   5.819   2.765   8.247  1.2927  1.5780 -1.4258
 5900TIP3    H241896   5.768   2.653   8.159  1.4023 -0.9964  1.6292
 5901TIP3   OH241897   4.690   5.759   9.646 -0.0334  0.1525  0.1729
 5901TIP3    H141898   4.648   5.846   9.649  1.5642  1.0267 -1.1829
 5901TIP3    H241899   4.675   5.729   9.556  1.3588  0.0657 -0.0512
 5902TIP3   OH241900   3.804   2.541  10.366  0.1815  0.2655  0.4195
 5902TIP3    H141901   3.771   2.515  10.280 -0.3121  0.1255  0.6478
 5902TIP3    H241902   3.733   2.592  10.404  0.4227  0.3769  0.7181
 5903TIP3   OH241903   4.865   0.039  10.056  0.3417  0.2422 -0.4296
 5903TIP3    H141904   4.897   0.003   9.973 -2.1930 -4.0415  0.1486
 5903TIP3    H241905   4.901  -0.019  10.123 -1.2106  0.8671  1.0182
 5904TIP3   OH241906   3.675   0.512  10.938 -0.3410  0.5071  0.1991
 5904TIP3    H141907   3.767   0.487  10.940 -0.2786  0.6703 -0.5265
 5904TIP3    H241908   3.676   0.605  10.963 -0.4630  0.1242  1.7145
 5905TIP3   OH241909   4.723   6.139   9.075  0.2130  0.3335  0.5349
 5905TIP3    H141910   4.802   6.117   9.025 -0.1609 -0.4007  0.2489
 5905TIP3    H241911   4.754   6.199   9.143  0.9478  0.3719  0.1844
 5906TIP3   OH241912   2.586   6.049   9.581  0.6563  0.1215  0.2094
 5906TIP3    H141913   2.548   6.009   9.503  0.8193  0.9466 -0.3034
 5906TIP3    H241914   2.511   6.086   9.628  0.4159 -1.4037  1.0652
 5907TIP3   OH241915   0.089   4.248  10.943 -0.6800  0.0906  0.3939
 5907TIP3    H141916   0.166   4.270  10.891 -0.4730  0.2246  0.7523
 5907TIP3    H241917   0.079   4.321  11.004 -0.2950 -0.5360  1.2427
 5908TIP3   OH241918   4.789   3.536   8.636  0.1662 -0.4446 -0.1112
 5908TIP3    H141919   4.837   3.501   8.711 -1.0154 -0.9682  0.4221
 5908TIP3    H241920   4.846   3.605   8.602  1.2407 -0.9680  0.5631
 5909TIP3   OH241921   0.250   0.460   9.628  0.4605 -0.2701 -0.5275
 5909TIP3    H141922   0.313   0.396   9.660  0.7924 -0.0436 -0.7240
 5909TIP3    H241923   0.192   0.476   9.702  1.2183  0.2514 -0.0251
 5910TIP3   OH241924   0.499   3.497   9.693  0.1897 -0.2393 -1.0386
 5910TIP3    H141925   0.507   3.563   9.623  1.0132 -0.5932 -1.2857
 5910TIP3    H241926   0.589   3.479   9.720 -0.1329  0.2714  0.4912
 5911TIP3   OH241927   3.062   6.142  11.121  0.3068 -0.0553  0.4913
 5911TIP3    H141928   3.022   6.090  11.190  1.3838 -0.1532  1.0668
 5911TIP3    H241929   3.099   6.218  11.166  0.7396  0.0457 -0.0163
 5912TIP3   OH241930   4.917   0.096   9.563  0.7788  0.3199  0.2707
 5912TIP3    H141931   4.987   0.161   9.568  1.4735 -0.0136 -2.8161
 5912TIP3    H241932   4.838   0.147   9.550  1.4254  0.7431 -3.0256
 5913TIP3   OH241933   4.152   4.778  10.031 -0.2111 -0.6060 -0.2129
 5913TIP3    H141934   4.185   4.762   9.942 -0.7822  0.6314 -0.6608
 5913TIP3    H241935   4.227   4.816  10.078 -0.3165  0.0781 -0.5846
 5914TIP3   OH241936   2.763   3.301  10.086  0.2008 -0.0958 -0.1218
 5914TIP3    H141937   2.694   3.235  10.089 -0.4609  0.6233  1.2018
 5914TIP3    H241938   2.738   3.358  10.012 -0.7359  0.2536  0.4437
 5915TIP3   OH241939   4.478   4.379  11.927  0.1295 -0.1137  0.5782
 5915TIP3    H141940   4.407   4.394  11.865  0.8169  2.0438  0.2146
 5915TIP3    H241941   4.552   4.352  11.873 -0.0065 -0.9974  0.8098
 5916TIP3   OH241942   0.659   2.277  10.880  0.0548  0.1960  0.0001
 5916TIP3    H141943   0.678   2.360  10.836 -0.3515 -0.6656 -1.9188
 5916TIP3    H241944   0.735   2.222  10.861  0.3620  0.1471  1.3372
 5917TIP3   OH241945   4.604   2.935  10.526  0.1233  0.2699  0.9041
 5917TIP3    H141946   4.548   2.956  10.451  2.2804  0.3407 -0.7735
 5917TIP3    H241947   4.592   2.841  10.539 -0.4233  0.2957  0.6116
 5918TIP3   OH241948   2.046   1.163   9.719 -0.3607 -0.0106 -0.1574
 5918TIP3    H141949   2.034   1.088   9.661  2.5506 -0.5593 -0.1922
 5918TIP3    H241950   2.070   1.235   9.661 -1.0332  0.3931  0.0616
 5919TIP3   OH241951   1.403   3.862  10.027  0.2726  0.3895  0.6822
 5919TIP3    H141952   1.321   3.815  10.038  1.5596 -1.7588  1.6744
 5919TIP3    H241953   1.435   3.834   9.941 -0.0687  1.3853  0.2024
 5920TIP3   OH241954   3.245   4.422  10.814 -0.5344  0.3270 -0.5649
 5920TIP3    H141955   3.331   4.426  10.772  0.3924 -0.9231  1.0425
 5920TIP3    H241956   3.254   4.480  10.890 -0.9045 -0.2460 -0.0780
 5921TIP3   OH241957   0.093   0.150   9.289  0.2858  0.0439  0.8046
 5921TIP3    H141958   0.050   0.137   9.205 -0.7920 -0.2191  1.3822
 5921TIP3    H241959   0.119   0.242   9.289 -0.1860  0.1820  0.4058
 5922TIP3   OH241960   0.784   0.953   7.627  0.1477 -0.0116 -0.4236
 5922TIP3    H141961   0.780   0.973   7.533 -0.4927  1.1390 -0.1669
 5922TIP3    H241962   0.877   0.957   7.649  0.4296 -1.3943 -1.2153
 5923TIP3   OH241963   4.793   1.515  10.205  0.1255  0.5003 -0.0509
 5923TIP3    H141964   4.884   1.510  10.234 -0.3390 -0.1011  1.3677
 5923TIP3    H241965   4.744   1.463  10.269 -1.0488 -0.3180 -1.5315
 5924TIP3   OH241966   2.902   3.781   9.277 -0.4872  0.4240  0.2552
 5924TIP3    H141967   2.946   3.783   9.192 -0.5648  1.2447  0.2348
 5924TIP3    H241968   2.962   3.825   9.336 -0.6029  0.1811  0.5548
 5925TIP3   OH241969   0.147   4.455   9.395  0.7133  0.1433 -0.4334
 5925TIP3    H141970   0.133   4.380   9.454  1.3717 -0.8701 -1.5038
 5925TIP3    H241971   0.242   4.467   9.396  1.0863 -1.5483 -3.1328
 5926TIP3   OH241972   3.468   0.036   8.668  0.2002 -0.1724  0.2053
 5926TIP3    H141973   3.399   0.020   8.603  0.1512  0.5505  0.0720
 5926TIP3    H241974   3.491  -0.051   8.700  0.5731 -0.6044 -1.1506
 5927TIP3   OH241975   2.205   2.620   7.685  0.2502  0.1901  0.0250
 5927TIP3    H141976   2.267   2.661   7.624  1.3604  1.6109  1.9702
 5927TIP3    H241977   2.170   2.693   7.735 -2.6597 -0.6573 -0.6183
 5928TIP3   OH241978   0.546   6.138  10.813 -0.0653 -0.0535 -0.6066
 5928TIP3    H141979   0.537   6.188  10.894 -2.2203 -1.0206 -0.1879
 5928TIP3    H241980   0.485   6.179  10.752  1.2421  0.4093 -1.6666
 5929TIP3   OH241981   1.504   1.338  10.380  0.0638 -0.4402 -0.2722
 5929TIP3    H141982   1.482   1.409  10.319 -0.3610 -1.0328 -0.8208
 5929TIP3    H241983   1.508   1.260  10.325 -0.9262 -1.0940  0.5555
 5930TIP3   OH241984   2.298   2.865  10.906  0.2862 -0.3286  0.2582
 5930TIP3    H141985   2.345   2.790  10.943  0.4241 -0.8476 -0.9166
 5930TIP3    H241986   2.213   2.864  10.950 -0.0169 -1.6640 -0.2816
 5931TIP3   OH241987   1.702   2.530  10.362  0.0105 -0.4076  0.0106
 5931TIP3    H141988   1.784   2.534  10.411 -0.5679 -0.5200  1.0213
 5931TIP3    H241989   1.689   2.437  10.344  0.0156 -0.4065  0.0011
 5932TIP3   OH241990   0.229   5.867   8.158 -0.4374  0.2782  0.3575
 5932TIP3    H141991   0.155   5.855   8.218  0.0807  0.0851  0.9702
 5932TIP3    H241992   0.305   5.877   8.215  0.3728 -1.8619 -0.2746
 5933TIP3   OH241993   2.212   6.316   9.859 -0.3988 -0.3229  0.0303
 5933TIP3    H141994   2.280   6.384   9.855 -0.3449 -0.4158 -0.6375
 5933TIP3    H241995   2.131   6.365   9.874 -0.5954  0.0502 -2.0110
 5934TIP3   OH241996   0.750   0.154   8.802  0.0962  0.4577 -0.5110
 5934TIP3    H141997   0.671   0.190   8.763  1.1148  4.4067  0.6238
 5934TIP3    H241998   0.730   0.146   8.895 -0.4221 -3.2779 -0.8062
 5935TIP3   OH241999   2.963   3.142   9.865 -0.3264 -0.5217  0.3394
 5935TIP3    H142000   2.918   3.120   9.946  0.4313 -1.7671  0.4474
 5935TIP3    H242001   2.960   3.238   9.861 -0.3996 -0.4373  1.8207
 5936TIP3   OH242002   1.476   6.555   8.420  0.1333 -0.5277 -0.2587
 5936TIP3    H142003   1.473   6.603   8.502 -0.1645 -0.5615 -0.2471
 5936TIP3    H242004   1.436   6.614   8.356 -2.3542 -1.5758  0.1840
 5937TIP3   OH242005   0.654   5.943   8.206 -0.0062 -0.1651  0.3184
 5937TIP3    H142006   0.731   5.945   8.263  1.1254 -1.2433 -1.1046
 5937TIP3    H242007   0.640   5.850   8.188 -0.2433  0.1558 -1.2499
 5938TIP3   OH242008   4.481   6.494  10.316 -0.3582 -0.1684  0.2454
 5938TIP3    H142009   4.505   6.587  10.319 -0.3642 -0.1574 -0.0369
 5938TIP3    H242010   4.387   6.495  10.303 -0.1849 -0.2025 -1.2659
 5939TIP3   OH242011   4.496   1.821  10.687 -0.8744  0.0034  0.2511
 5939TIP3    H142012   4.445   1.741  10.701 -0.5261 -0.4218 -0.8317
 5939TIP3    H242013   4.465   1.855  10.603 -0.5825  0.6825  0.4087
 5940TIP3   OH242014   5.636   1.278   9.746  0.2673 -0.0563 -0.5357
 5940TIP3    H142015   5.552   1.325   9.751  0.8378  0.9024  0.7124
 5940TIP3    H242016   5.672   1.303   9.661  0.4634  1.6616  0.0158
 5941TIP3   OH242017   3.574   3.321  10.669  0.2358  0.0992 -0.3261
 5941TIP3    H142018   3.611   3.359  10.748  2.0169 -1.0893 -0.5463
 5941TIP3    H242019   3.533   3.396  10.623 -0.4569  0.8708  1.4549
 5942TIP3   OH242020   3.843   2.131   9.659 -0.7200  0.5639  0.7470
 5942TIP3    H142021   3.790   2.052   9.668  0.0122  0.0190  0.4228
 5942TIP3    H242022   3.860   2.139   9.565  2.1882 -0.9740  1.0180
 5943TIP3   OH242023   2.520   1.040   8.844 -0.3736  0.1744 -0.2133
 5943TIP3    H142024   2.532   0.947   8.827 -1.2448  0.0753 -0.3217
 5943TIP3    H242025   2.429   1.048   8.872 -0.7573  1.2057 -1.6600
 5944TIP3   OH242026   5.869   3.299  10.728  0.5256 -0.8117  0.4100
 5944TIP3    H142027   5.797   3.241  10.752 -0.1618 -0.0310  0.2773
 5944TIP3    H242028   5.929   3.296  10.802  0.6608 -1.9341  0.2689
 5945TIP3   OH242029   2.405   2.006   9.690 -0.1730 -0.1296  0.5231
 5945TIP3    H142030   2.473   1.947   9.722 -0.6142 -0.3607  1.0458
 5945TIP3    H242031   2.446   2.052   9.616  1.5858  1.8408  2.5466
 5946TIP3   OH242032   4.818   1.501   9.583  0.4865 -0.0978  0.1475
 5946TIP3    H142033   4.882   1.549   9.636  0.5828 -0.8793  0.7522
 5946TIP3    H242034   4.771   1.570   9.535 -0.1612  0.7133  1.8670
 5947TIP3   OH242035   1.667   4.079   8.468  0.6767  0.3168  0.3370
 5947TIP3    H142036   1.605   4.150   8.450 -1.6585 -1.8747 -0.8436
 5947TIP3    H242037   1.698   4.096   8.557  0.3395  2.8572  0.0313
 5948TIP3   OH242038   6.474   4.828   8.662  0.5301 -0.2230  0.2424
 5948TIP3    H142039   6.510   4.747   8.699 -0.7097 -0.6815  0.5068
 5948TIP3    H242040   6.481   4.816   8.567 -0.5003 -1.0643  0.2564
 5949TIP3   OH242041   5.628   0.508   8.544  0.1067 -0.2275  0.0498
 5949TIP3    H142042   5.679   0.503   8.463  0.8315 -0.6756  0.5233
 5949TIP3    H242043   5.644   0.596   8.577 -0.3932  0.0474 -0.4080
 5950TIP3   OH242044   6.098   1.958   8.194  0.0867 -0.4160  0.1626
 5950TIP3    H142045   6.049   1.898   8.138 -0.8364  0.2275  0.2603
 5950TIP3    H242046   6.132   2.024   8.133 -1.5159  0.6858  0.4052
 5951TIP3   OH242047   4.205   4.319   9.825  0.0573  0.2913  0.6472
 5951TIP3    H142048   4.227   4.300   9.734  2.1915  0.5494  1.0557
 5951TIP3    H242049   4.134   4.257   9.846  1.3918 -1.7070 -0.3832
 5952TIP3   OH242050   5.253   5.286  10.624  0.1048 -0.7588 -0.8166
 5952TIP3    H142051   5.252   5.207  10.678 -1.2534 -0.1117  0.1351
 5952TIP3    H242052   5.171   5.282  10.575 -0.8999  0.9781  0.6314
 5953TIP3   OH242053   1.121   5.245   8.343  0.3382  0.0774  0.0260
 5953TIP3    H142054   1.095   5.159   8.311  0.2633  0.3517 -0.6591
 5953TIP3    H242055   1.091   5.306   8.276 -1.5044  0.8599  1.4816
 5954TIP3   OH242056   2.118   0.808  10.073  0.4565 -0.4533 -0.3652
 5954TIP3    H142057   2.077   0.792  10.158  0.9080  1.0399  0.1752
 5954TIP3    H242058   2.195   0.751  10.072  0.9496  0.1562  0.6392
 5955TIP3   OH242059   6.181   3.006  11.060  0.4035  0.5228  0.6560
 5955TIP3    H142060   6.100   2.956  11.074  1.5988 -1.2157  1.7519
 5955TIP3    H242061   6.163   3.091  11.100 -0.7927  0.0749  1.1466
 5956TIP3   OH242062   3.806   0.718  19.175 -0.5292 -0.3895 -0.0754
 5956TIP3    H142063   3.854   0.763  19.105  1.8271 -0.1807  1.5727
 5956TIP3    H242064   3.835   0.627  19.170 -1.5488 -0.7170 -0.3068
 5957TIP3   OH242065   5.831   3.209  10.144 -0.1842 -0.1016 -0.5125
 5957TIP3    H142066   5.844   3.301  10.122 -1.5272  0.2884  0.2116
 5957TIP3    H242067   5.765   3.210  10.213 -0.3379 -1.6211 -0.6020
 5958TIP3   OH242068   2.732   0.403   9.561 -0.2556  0.2083  0.6773
 5958TIP3    H142069   2.722   0.472   9.495  0.6220 -1.1524 -0.9585
 5958TIP3    H242070   2.662   0.421   9.624 -0.8510  1.8424 -0.3591
 5959TIP3   OH242071   5.182   4.982  10.559 -0.3172 -0.1798  0.0274
 5959TIP3    H142072   5.231   4.928  10.620 -0.0394 -0.4389 -0.4173
 5959TIP3    H242073   5.090   4.971  10.584 -0.0761  2.0816  2.3367
 5960TIP3   OH242074   4.559   3.851  11.478  0.0920  0.0680 -0.3462
 5960TIP3    H142075   4.524   3.827  11.564  1.0079  0.7601  0.2391
 5960TIP3    H242076   4.644   3.808  11.473  0.9354  1.6044 -0.0511
 5961TIP3   OH242077   2.053   5.351  10.015 -0.4288 -0.0861  0.3285
 5961TIP3    H142078   2.025   5.441   9.998  0.9399  0.5188  1.0643
 5961TIP3    H242079   2.145   5.359  10.040 -0.0403 -1.7944 -0.4139
 5962TIP3   OH242080   6.400   2.206   9.069  0.1375  0.4090  0.1447
 5962TIP3    H142081   6.402   2.110   9.065  2.7341  0.3375  1.1171
 5962TIP3    H242082   6.423   2.234   8.981  1.5576  0.0560  0.3811
 5963TIP3   OH242083   2.126   6.283  10.526 -0.2373  0.1679  0.2510
 5963TIP3    H142084   2.145   6.192  10.549 -1.2395 -0.7540 -2.1812
 5963TIP3    H242085   2.170   6.296  10.442 -3.3082  0.5524 -1.4626
 5964TIP3   OH242086   3.277   2.290   8.812 -0.0278  0.1429 -0.4567
 5964TIP3    H142087   3.338   2.217   8.800  0.8017  0.4907  1.3869
 5964TIP3    H242088   3.216   2.260   8.878  1.1345  1.5324  1.3531
 5965TIP3   OH242089   3.324   2.234   9.989 -0.1927  0.4867 -0.2691
 5965TIP3    H142090   3.255   2.269   9.933 -0.4553 -0.1872 -0.3751
 5965TIP3    H242091   3.317   2.285  10.070  0.0947  1.3603 -0.7843
 5966TIP3   OH242092   5.928   3.015   9.906 -0.2315 -0.7665 -0.4670
 5966TIP3    H142093   5.877   2.934   9.911 -1.2060 -0.1822 -0.5151
 5966TIP3    H242094   5.922   3.052   9.994 -0.8036 -0.1735 -0.7408
 5967TIP3   OH242095   4.918   5.063  10.830 -0.5796 -0.0833  0.1133
 5967TIP3    H142096   4.832   5.082  10.868 -1.5392  0.9418 -2.3660
 5967TIP3    H242097   4.899   5.005  10.757  0.5437  1.6256 -1.6330
 5968TIP3   OH242098   5.370   2.678   9.109 -0.2753  0.0714  0.3937
 5968TIP3    H142099   5.309   2.737   9.065 -0.5105  0.9689  1.8440
 5968TIP3    H242100   5.451   2.728   9.116  0.3753 -0.7929 -0.7495
 5969TIP3   OH242101   5.529   3.238  10.052  0.5581  0.0227  0.7005
 5969TIP3    H142102   5.469   3.248  10.126  0.0831 -0.8788  0.4589
 5969TIP3    H242103   5.473   3.248   9.974  0.5522 -1.5648  0.4701
 5970TIP3   OH242104   2.155   1.554  10.329 -0.0381  0.0063 -0.0065
 5970TIP3    H142105   2.211   1.560  10.252 -1.0965 -1.3413 -0.9179
 5970TIP3    H242106   2.093   1.626  10.320 -0.4764 -0.4484 -0.6974
 5971TIP3   OH242107   0.359   4.621   9.256  0.0822 -0.1946 -0.1545
 5971TIP3    H142108   0.367   4.677   9.333  0.2419  1.4717 -1.3196
 5971TIP3    H242109   0.449   4.602   9.231  0.0333 -0.5981 -0.0225
 5972TIP3   OH242110   4.192   2.992  10.510  0.2219  0.1933  0.2011
 5972TIP3    H142111   4.103   2.995  10.473 -0.4182 -1.9056  1.4339
 5972TIP3    H242112   4.191   3.060  10.578 -0.1772  0.7153 -0.3142
 5973TIP3   OH242113   1.181   2.255  11.109 -0.1912 -0.2142  0.5389
 5973TIP3    H142114   1.199   2.312  11.035 -0.1848 -2.0947 -0.9870
 5973TIP3    H242115   1.086   2.245  11.110 -0.1149 -1.2081 -0.0776
 5974TIP3   OH242116   1.174   3.711  10.050 -0.0070 -0.1502 -0.0451
 5974TIP3    H142117   1.099   3.762  10.021 -0.1999  0.6452  1.7238
 5974TIP3    H242118   1.161   3.624  10.011 -1.1978  0.3106 -0.7296
 5975TIP3   OH242119   3.557   4.960   8.089 -0.4565 -0.0191 -0.8506
 5975TIP3    H142120   3.585   4.916   8.009  2.5998  0.3493 -0.1118
 5975TIP3    H242121   3.637   4.998   8.125 -2.0446  1.4800  1.3991
 5976TIP3   OH242122   5.557   6.456  10.092 -0.1494  0.5522 -0.2571
 5976TIP3    H142123   5.508   6.538  10.082 -2.3057 -0.6804 -0.3439
 5976TIP3    H242124   5.540   6.408  10.011  0.6504 -0.2407  0.0227
 5977TIP3   OH242125   3.012   5.741   8.541 -0.0027 -0.4895 -0.1883
 5977TIP3    H142126   2.990   5.679   8.471  0.4547  1.1120 -1.8257
 5977TIP3    H242127   2.952   5.718   8.612 -0.3074 -2.3535 -0.9835
 5978TIP3   OH242128   5.361   6.258   8.238  0.0415  0.1034 -0.2707
 5978TIP3    H142129   5.390   6.290   8.152  1.7168 -0.1594  0.1524
 5978TIP3    H242130   5.369   6.333   8.296 -1.6663  0.4433 -0.4372
 5979TIP3   OH242131   2.531   0.752   8.384  0.2045  0.5890 -0.3396
 5979TIP3    H142132   2.560   0.794   8.465  0.3897 -2.2115  1.1844
 5979TIP3    H242133   2.601   0.770   8.321  1.3130  0.7094  0.8814
 5980TIP3   OH242134   6.299   0.388   7.554  0.3684  0.2100 -0.0359
 5980TIP3    H142135   6.300   0.366   7.647 -0.7219  0.3935  0.0340
 5980TIP3    H242136   6.342   0.313   7.512  0.5779 -0.0269  0.5777
 5981TIP3   OH242137   1.742   3.765   9.062 -0.1190 -0.0103 -0.4195
 5981TIP3    H142138   1.766   3.690   9.008  1.3124  0.4331 -0.4326
 5981TIP3    H242139   1.816   3.824   9.056 -1.2792  1.5061 -0.5366
 5982TIP3   OH242140   2.356   3.757   8.281  0.0185 -0.4333 -0.1366
 5982TIP3    H142141   2.385   3.789   8.366  0.9279 -1.1396 -0.1615
 5982TIP3    H242142   2.300   3.683   8.300 -0.3940 -0.1227 -0.1353
 5983TIP3   OH242143   2.702   4.303   8.717  0.3557  0.0536  0.3194
 5983TIP3    H142144   2.674   4.262   8.635 -1.2041 -1.0965  1.3651
 5983TIP3    H242145   2.788   4.265   8.735  0.4077 -0.1993 -0.4314
 5984TIP3   OH242146   4.194   4.223   9.308 -0.0097  0.7646 -0.2689
 5984TIP3    H142147   4.274   4.188   9.268 -1.3544 -0.1723 -2.2696
 5984TIP3    H242148   4.170   4.298   9.254 -0.3931  1.1682  0.4410
 5985TIP3   OH242149   0.202   4.722  10.652 -0.0700  0.3660  0.0876
 5985TIP3    H142150   0.179   4.811  10.678 -0.3381  0.3879 -0.2137
 5985TIP3    H242151   0.264   4.733  10.580 -1.4741  0.3441 -1.1894
 5986TIP3   OH242152   1.533   4.267  10.678  0.1533 -0.4582 -0.2100
 5986TIP3    H142153   1.565   4.357  10.694 -0.3140 -0.7515  3.1234
 5986TIP3    H242154   1.438   4.274  10.686 -0.0457 -0.9784 -1.8653
 5987TIP3   OH242155   0.947   4.693   8.850 -0.2735  0.1712  0.2442
 5987TIP3    H142156   0.993   4.773   8.874 -1.7079  0.7469  1.2999
 5987TIP3    H242157   0.855   4.712   8.871 -1.0202 -0.8778 -1.8151
 5988TIP3   OH242158   4.604   6.691   8.510 -0.3514  0.1241 -0.1073
 5988TIP3    H142159   4.621   6.607   8.553  1.7500 -0.3580 -1.7108
 5988TIP3    H242160   4.663   6.753   8.553 -0.3647  0.2941 -0.3285
 5989TIP3   OH242161   0.256   6.173  10.953 -0.4170 -0.0121 -0.7862
 5989TIP3    H142162   0.189   6.233  10.922 -1.3913  1.0403  2.8149
 5989TIP3    H242163   0.333   6.228  10.967  0.3779 -0.6827 -2.2958
 5990TIP3   OH242164   1.869   5.335   9.762 -0.2411  0.6184  0.0921
 5990TIP3    H142165   1.915   5.374   9.836 -0.8291  1.0100  0.2528
 5990TIP3    H242166   1.817   5.265   9.801  2.3730 -1.8062 -0.4237
 5991TIP3   OH242167   6.110   4.045  10.441 -0.1415 -0.1381 -0.1331
 5991TIP3    H142168   6.077   4.019  10.355  0.4623  0.0712 -0.4380
 5991TIP3    H242169   6.105   3.965  10.493 -2.3902  0.1975  0.2656
 5992TIP3   OH242170   0.123   6.319   8.364  0.6315  0.1122 -0.1551
 5992TIP3    H142171   0.116   6.405   8.322 -3.7780  0.4868  0.8325
 5992TIP3    H242172   0.153   6.339   8.453 -1.3536  0.8583  0.3922
 5993TIP3   OH242173   3.158   2.671  10.548 -0.7960 -0.0413 -0.4160
 5993TIP3    H142174   3.124   2.709  10.629 -2.2137 -0.1345 -0.9370
 5993TIP3    H242175   3.235   2.724  10.527 -0.2609 -0.1632  1.1006
 5994TIP3   OH242176   3.389   5.250  10.884 -0.7719  0.3229  0.3323
 5994TIP3    H142177   3.343   5.231  10.803 -0.1110  0.7843 -0.1601
 5994TIP3    H242178   3.322   5.244  10.952 -1.1169 -1.1617 -0.1031
 5995TIP3   OH242179   4.591   2.413   8.861  0.5145 -0.3482  0.0899
 5995TIP3    H142180   4.505   2.449   8.885  1.6628  1.8360  1.2163
 5995TIP3    H242181   4.599   2.433   8.767  0.0461  0.0018  0.1179
 5996TIP3   OH242182   3.624   0.617   9.537 -0.0957  0.4591  0.1357
 5996TIP3    H142183   3.571   0.675   9.591  1.7706  0.2925  2.3145
 5996TIP3    H242184   3.664   0.676   9.472 -1.8769  0.7688 -0.7390
 5997TIP3   OH242185   6.408   5.332   8.300  0.0689 -0.6684 -0.1379
 5997TIP3    H142186   6.424   5.318   8.393  0.4554  1.6705  0.2238
 5997TIP3    H242187   6.482   5.385   8.271 -1.9760  2.0676 -0.7591
 5998TIP3   OH242188   2.977   5.465   8.039 -0.6813  0.2636 -0.2936
 5998TIP3    H142189   2.888   5.497   8.027 -1.3794 -0.9624  1.1728
 5998TIP3    H242190   2.982   5.387   7.983 -0.5318  0.3361 -0.3808
 5999TIP3   OH242191   0.686   1.336   7.337  0.2748  0.0734  0.1344
 5999TIP3    H142192   0.640   1.287   7.405  2.4763 -1.3042  0.7614
 5999TIP3    H242193   0.621   1.397   7.302 -1.9445 -1.6977  0.9412
 6000TIP3   OH242194   4.704   6.441  10.474  0.2042 -0.0086  0.0304
 6000TIP3    H142195   4.750   6.454  10.391 -0.0549 -0.9830 -0.2772
 6000TIP3    H242196   4.611   6.436  10.449  0.1087 -0.1156  0.4002
 6001TIP3   OH242197   6.740   2.764  11.406 -0.3656 -0.8499  0.2055
 6001TIP3    H142198   6.693   2.784  11.486 -2.5289 -3.1206 -0.3479
 6001TIP3    H242199   6.684   2.799  11.336  1.4834  1.1039 -0.3704
 6002TIP3   OH242200   1.008   2.001   7.793  0.0655  0.0668  0.4956
 6002TIP3    H142201   0.988   2.094   7.787 -0.6172 -0.0122  1.4036
 6002TIP3    H242202   0.926   1.957   7.770  0.8636 -0.3777 -1.8158
 6003TIP3   OH242203   3.581   2.013   8.490 -0.0406  0.0482  0.5739
 6003TIP3    H142204   3.618   2.096   8.460  1.6855 -0.8851 -0.0217
 6003TIP3    H242205   3.493   2.010   8.452  0.6392  0.6837 -1.1402
 6004TIP3   OH242206   2.005   2.467   9.570  0.1041 -0.0644  0.3576
 6004TIP3    H142207   1.914   2.479   9.545  0.7239 -0.9822 -2.7090
 6004TIP3    H242208   2.043   2.555   9.567 -0.0944 -0.0047 -1.1362
 6005TIP3   OH242209   2.033   0.513  11.102 -0.2148 -0.8260  0.4900
 6005TIP3    H142210   2.067   0.540  11.187  0.4957 -1.7098  0.5131
 6005TIP3    H242211   2.057   0.420  11.096  1.5341 -0.3099 -1.5030
 6006TIP3   OH242212   2.618   1.795   8.587  0.2944 -0.1732 -0.3595
 6006TIP3    H142213   2.540   1.845   8.563  0.2068  0.8990  1.9335
 6006TIP3    H242214   2.584   1.707   8.605 -0.4817  0.3418  0.8654
 6007TIP3   OH242215   3.086   6.018   8.891  0.2446  0.4038  0.7376
 6007TIP3    H142216   3.159   5.957   8.895  1.3530  1.7266  1.5914
 6007TIP3    H242217   3.083   6.058   8.978 -1.9234 -0.0723  0.9480
 6008TIP3   OH242218   6.008   0.338  11.103 -0.1932 -0.2081  0.3338
 6008TIP3    H142219   6.040   0.422  11.069 -0.6641 -0.2745 -0.3006
 6008TIP3    H242220   5.927   0.322  11.053 -1.3426  0.0565  2.0249
 6009TIP3   OH242221   3.145   5.840   8.171  0.1391  0.0606 -0.2727
 6009TIP3    H142222   3.133   5.898   8.247 -0.4519 -0.2052 -0.1609
 6009TIP3    H242223   3.125   5.895   8.095 -2.2159 -0.4487 -0.0838
 6010TIP3   OH242224   5.520   2.609  10.473  0.6004  0.3469  0.0067
 6010TIP3    H142225   5.581   2.577  10.539 -0.0203  1.0187  0.9556
 6010TIP3    H242226   5.559   2.691  10.442  0.6509  0.2917 -0.0726
 6011TIP3   OH242227   3.694   0.243   8.899 -0.5340  0.2553  0.4034
 6011TIP3    H142228   3.676   0.187   8.975  1.0020 -0.8801 -0.0265
 6011TIP3    H242229   3.764   0.198   8.852 -0.5276  1.6278 -0.9729
 6012TIP3   OH242230   3.887   3.990   8.534  0.6605  0.5988 -0.9226
 6012TIP3    H142231   3.807   3.946   8.507  0.5101 -0.2040  0.7126
 6012TIP3    H242232   3.954   3.959   8.473  0.0133  0.1383 -1.4010
 6013TIP3   OH242233   0.101   0.874   9.183  0.1265  0.6154  0.5962
 6013TIP3    H142234   0.055   0.814   9.242  1.1020  1.4897  2.3289
 6013TIP3    H242235   0.043   0.950   9.176 -1.3327 -0.5876 -1.9783
 6014TIP3   OH242236   5.409   1.915   9.971 -0.1155 -0.4126  0.3275
 6014TIP3    H142237   5.348   1.924   9.898  0.5727 -0.6549 -0.2896
 6014TIP3    H242238   5.492   1.948   9.937  0.2995 -0.8504  0.8921
 6015TIP3   OH242239   3.772   3.656   8.439  0.1924  0.0154  0.5280
 6015TIP3    H142240   3.843   3.664   8.375  0.2171  2.2836  0.7594
 6015TIP3    H242241   3.761   3.562   8.450  3.2585 -0.4524  0.5871
 6016TIP3   OH242242   3.088   1.614   9.691  0.0357 -0.2965 -0.3519
 6016TIP3    H142243   3.115   1.559   9.619  2.5237 -0.9959  1.0004
 6016TIP3    H242244   3.099   1.560   9.769 -0.8843  0.9822  0.7267
 6017TIP3   OH242245   4.730   4.441   9.957 -0.2961 -0.1003 -0.0360
 6017TIP3    H142246   4.751   4.500   9.885 -0.9002 -1.7582 -1.6466
 6017TIP3    H242247   4.634   4.445   9.964 -0.1517  1.7059  2.2207
 6018TIP3   OH242248   1.299   5.055   7.799 -0.4142  0.3696  0.0057
 6018TIP3    H142249   1.390   5.068   7.825 -0.1031  0.8320 -1.2488
 6018TIP3    H242250   1.303   4.989   7.729 -1.1465 -0.2830  0.5606
 6019TIP3   OH242251   6.717   5.360  10.709  1.0649  0.1965 -0.2579
 6019TIP3    H142252   6.740   5.418  10.783 -0.7640  1.9358 -0.9569
 6019TIP3    H242253   6.799   5.352  10.660  2.0929 -0.2324  1.4214
 6020TIP3   OH242254   0.514   6.097  10.154 -0.1431 -0.3146 -0.0999
 6020TIP3    H142255   0.495   6.024  10.214 -1.6224  0.0947 -0.0418
 6020TIP3    H242256   0.585   6.064  10.099 -0.9992 -1.9429 -0.2961
 6021TIP3   OH242257   6.196   5.268   8.655  0.5002  0.4268 -0.2144
 6021TIP3    H142258   6.172   5.355   8.684 -1.4181 -0.2815  0.4596
 6021TIP3    H242259   6.230   5.224   8.733  0.1484  0.1329 -0.2230
 6022TIP3   OH242260   4.179   6.722  11.217  0.2559 -0.8025 -0.1227
 6022TIP3    H142261   4.236   6.645  11.223  0.9305 -0.3497 -0.5264
 6022TIP3    H242262   4.238   6.796  11.234  0.2002 -0.1794 -2.3984
 6023TIP3   OH242263   4.985   0.149  11.026 -0.5213 -0.1866  0.0348
 6023TIP3    H142264   5.005   0.056  11.017  0.6789 -0.0594  1.1596
 6023TIP3    H242265   4.949   0.157  11.114 -3.1722  0.0387 -0.9626
 6024TIP3   OH242266   2.505   0.197  10.367 -0.0627 -0.1186 -0.4916
 6024TIP3    H142267   2.562   0.272  10.381 -1.0476  0.4547  0.6758
 6024TIP3    H242268   2.476   0.172  10.455 -1.6253 -0.3534 -1.0282
 6025TIP3   OH242269   3.454   0.231  10.584  0.1705 -0.2002  0.0318
 6025TIP3    H142270   3.367   0.232  10.543  0.0413  2.4066  0.2011
 6025TIP3    H242271   3.443   0.281  10.664  1.7653 -0.1079  0.2237
 6026TIP3   OH242272   4.412   5.434   9.069 -0.6784 -0.1272 -0.0544
 6026TIP3    H142273   4.405   5.339   9.062 -0.0921 -0.1873  0.1514
 6026TIP3    H242274   4.475   5.449   9.139 -1.7446  0.4282  0.8177
 6027TIP3   OH242275   0.555   0.981   7.793  0.2496 -0.0503  0.3086
 6027TIP3    H142276   0.522   0.899   7.832  1.1403 -0.7653 -0.3850
 6027TIP3    H242277   0.635   0.954   7.747 -0.4904  0.8735 -1.5641
 6028TIP3   OH242278   6.018   3.800  10.565  0.1118 -0.1083  0.1638
 6028TIP3    H142279   5.965   3.751  10.503 -1.1624  1.7938 -0.3476
 6028TIP3    H242280   6.057   3.733  10.622 -1.7667 -1.6690 -0.2717
 6029TIP3   OH242281   1.766   2.144   7.822 -0.1387 -0.0540  0.0821
 6029TIP3    H142282   1.671   2.150   7.825 -0.3306 -0.7668 -2.3893
 6029TIP3    H242283   1.787   2.143   7.728  2.2359 -0.7596  0.5534
 6030TIP3   OH242284   5.681   3.123  11.038 -0.0981 -0.1618  0.2297
 6030TIP3    H142285   5.721   3.182  11.102 -2.0255  2.1067 -0.5152
 6030TIP3    H242286   5.587   3.134  11.050 -0.5099 -1.1737 -1.6592
 6031TIP3   OH242287   1.984   6.128   9.899  0.1496 -0.1424 -0.2851
 6031TIP3    H142288   2.032   6.205   9.869  0.8619 -0.8656 -1.0540
 6031TIP3    H242289   1.954   6.151   9.987 -0.9409  1.5596 -1.0557
 6032TIP3   OH242290   2.300   1.435   9.670 -0.3553  0.2043 -0.2361
 6032TIP3    H142291   2.257   1.383   9.602  2.1188 -0.7946 -1.1681
 6032TIP3    H242292   2.331   1.370   9.734  0.5134  0.7695 -0.0610
 6033TIP3   OH242293   4.033   0.416  10.421 -0.0479  0.3096 -0.2969
 6033TIP3    H142294   4.046   0.432  10.515  2.4287 -0.5241 -0.4466
 6033TIP3    H242295   4.020   0.321  10.415 -2.6721  0.6059 -0.6266
 6034TIP3   OH242296   5.487   0.388   8.779  0.1867  0.3502  0.1684
 6034TIP3    H142297   5.512   0.446   8.707 -0.5735 -1.0212 -1.2683
 6034TIP3    H242298   5.567   0.377   8.830  1.4605 -0.5555 -1.8843
 6035TIP3   OH242299   2.455   1.108   8.515 -0.3240 -0.4921 -0.1972
 6035TIP3    H142300   2.423   1.168   8.582 -0.6348 -1.3662  0.4542
 6035TIP3    H242301   2.388   1.040   8.510  0.2891 -1.0776 -0.5286
 6036TIP3   OH242302   6.387   4.565   8.136  0.0151 -0.4918 -0.0742
 6036TIP3    H142303   6.405   4.592   8.226 -0.0414 -2.0700  0.4423
 6036TIP3    H242304   6.397   4.645   8.084  1.0553  0.2354  1.1894
 6037TIP3   OH242305   2.437   0.987   9.734  0.2754  0.3669 -0.6801
 6037TIP3    H142306   2.413   1.065   9.784  2.1552 -0.4234  1.5838
 6037TIP3    H242307   2.360   0.930   9.741 -0.0504  0.8739  0.0387
 6038TIP3   OH242308   5.729   6.616  10.877 -0.1844  0.5877  0.0493
 6038TIP3    H142309   5.810   6.663  10.857  0.7296 -0.1676  1.7502
 6038TIP3    H242310   5.757   6.526  10.893 -0.9415  0.7681  2.9720
 6039TIP3   OH242311   2.009   6.499   7.999  0.7434  0.7178  0.4002
 6039TIP3    H142312   1.976   6.589   7.991  0.6265  0.5885 -0.6794
 6039TIP3    H242313   1.930   6.445   8.001  0.7772  0.6790  1.9508
 6040TIP3   OH242314   3.312   3.133   9.582  0.0920  0.8592  0.1778
 6040TIP3    H142315   3.344   3.082   9.657  0.0407  1.3943  0.5640
 6040TIP3    H242316   3.245   3.077   9.543  0.0083  0.6427  0.6227
 6041TIP3   OH242317   6.528   2.297   8.024  0.3078 -0.3420 -0.0800
 6041TIP3    H142318   6.522   2.384   7.985  1.7605  0.4202  1.2564
 6041TIP3    H242319   6.620   2.272   8.012 -0.0774 -1.6776 -0.3984
 6042TIP3   OH242320   6.689   2.676   8.838 -0.0352 -0.5358 -0.0242
 6042TIP3    H142321   6.750   2.608   8.863  0.9488  0.3311 -0.0212
 6042TIP3    H242322   6.669   2.657   8.746  0.7340 -0.4624 -0.2118
 6043TIP3   OH242323   0.165   3.657   8.516  0.2276 -0.0463 -0.2154
 6043TIP3    H142324   0.110   3.609   8.579 -1.2579 -0.9812 -2.1315
 6043TIP3    H242325   0.123   3.742   8.507 -1.2160 -0.8927 -1.9608
 6044TIP3   OH242326   5.865   3.484   8.611 -0.3174  0.2514 -0.0010
 6044TIP3    H142327   5.915   3.538   8.550 -0.0370  0.4865  0.4367
 6044TIP3    H242328   5.875   3.395   8.577 -0.1856  0.3820 -0.3106
 6045TIP3   OH242329   3.710   2.210   8.351 -0.1507  0.1557 -0.0776
 6045TIP3    H142330   3.752   2.233   8.268  0.2389  0.9844  0.3368
 6045TIP3    H242331   3.683   2.294   8.389 -1.6616 -0.3241 -0.0499
 6046TIP3   OH242332   0.777   5.777   8.398  0.3275 -0.6626  0.1401
 6046TIP3    H142333   0.848   5.841   8.399 -0.3026  0.0475  1.0977
 6046TIP3    H242334   0.801   5.713   8.465  0.6949 -1.1526 -0.4483
 6047TIP3   OH242335   0.978   3.230  10.341 -0.1823 -0.8315  0.3676
 6047TIP3    H142336   1.025   3.314  10.345  0.5178 -1.0721 -1.5948
 6047TIP3    H242337   0.886   3.254  10.346  0.0459 -0.2572  3.2625
 6048TIP3   OH242338   5.933   2.203  10.602 -0.2703 -0.5505 -0.5258
 6048TIP3    H142339   5.940   2.288  10.559 -0.4249 -0.5277 -0.5066
 6048TIP3    H242340   6.012   2.156  10.576  0.4466  0.0570  0.4658
 6049TIP3   OH242341   6.537   1.892   9.073 -0.5704 -0.5207 -0.4093
 6049TIP3    H142342   6.449   1.930   9.066 -0.3616 -0.2983 -2.7976
 6049TIP3    H242343   6.541   1.827   9.003  1.0530 -0.8093 -0.0955
 6050TIP3   OH242344   1.050   2.699  10.177 -0.1976 -0.4092 -0.6160
 6050TIP3    H142345   0.972   2.714  10.229 -0.1005 -1.0171 -0.2931
 6050TIP3    H242346   1.105   2.643  10.231  0.3557 -0.1921 -0.9416
 6051TIP3   OH242347   0.301   1.406   9.971  0.0654 -0.2100 -0.3825
 6051TIP3    H142348   0.331   1.492  10.000 -0.4158 -0.4481  0.9276
 6051TIP3    H242349   0.222   1.423   9.920 -0.9233  0.0671  1.1672
 6052TIP3   OH242350   5.156   4.998   8.894  0.0313  0.6544  0.7478
 6052TIP3    H142351   5.140   4.915   8.940  1.6886 -0.5509 -0.7137
 6052TIP3    H242352   5.073   5.020   8.853  0.4195 -2.4316 -2.0757
 6053TIP3   OH242353   5.537   1.625   9.191 -0.0824  0.1715  0.3480
 6053TIP3    H142354   5.531   1.659   9.281  0.5227  1.3591 -0.0362
 6053TIP3    H242355   5.597   1.551   9.197  1.6518  1.5402  0.6082
 6054TIP3   OH242356   1.150   5.077   8.734  0.4277 -1.0252  0.3005
 6054TIP3    H142357   1.200   5.150   8.698 -0.4605 -0.2091  0.7049
 6054TIP3    H242358   1.206   5.001   8.719  0.7103 -0.5082 -1.5080
 6055TIP3   OH242359   1.560   3.066  10.573  0.5502  0.3785  0.1822
 6055TIP3    H142360   1.551   2.972  10.562 -0.7755  0.7131 -2.0585
 6055TIP3    H242361   1.654   3.080  10.583  0.7225 -1.1912  1.0086
 6056TIP3   OH242362   5.363   3.940  11.231 -0.3573  0.2420 -0.1129
 6056TIP3    H142363   5.456   3.925  11.218 -0.1656  2.0747 -1.0780
 6056TIP3    H242364   5.328   3.959  11.144 -0.9739  2.7500  0.5840
 6057TIP3   OH242365   6.456   0.807   9.175  0.1376  0.7370  0.0561
 6057TIP3    H142366   6.376   0.804   9.123 -1.0894 -0.8018  1.9474
 6057TIP3    H242367   6.429   0.841   9.260  1.1882 -1.1105  1.1824
 6058TIP3   OH242368   2.976   5.672  10.493  0.2267  0.3359  0.2223
 6058TIP3    H142369   2.979   5.583  10.529  0.9915  0.4146  0.3767
 6058TIP3    H242370   2.883   5.692  10.486  0.0365  0.1639  1.7939
 6059TIP3   OH242371   5.215   2.685  10.314 -0.3880  0.1455 -0.0427
 6059TIP3    H142372   5.267   2.616  10.355 -0.0308 -0.8865 -2.0861
 6059TIP3    H242373   5.276   2.757  10.300  0.5576 -1.0001 -2.2848
 6060TIP3   OH242374   4.845   5.908   9.961  0.1070 -0.1199  0.3264
 6060TIP3    H142375   4.936   5.914   9.990  0.1948 -0.2572  0.0787
 6060TIP3    H242376   4.830   5.814   9.949 -0.2256 -0.1415  0.8696
 6061TIP3   OH242377   0.027   0.309   9.050  0.3701 -0.2407 -0.1299
 6061TIP3    H142378   0.002   0.394   9.085 -1.3244 -0.5318 -0.5049
 6061TIP3    H242379  -0.049   0.253   9.068  0.3729 -0.9858 -2.1746
 6062TIP3   OH242380   6.184   1.536   7.816 -0.0727 -0.3383 -0.1393
 6062TIP3    H142381   6.186   1.472   7.888 -1.7687 -0.1116  0.1571
 6062TIP3    H242382   6.239   1.608   7.847  2.4311 -1.8456 -0.7497
 6063TIP3   OH242383   4.743   1.892  10.080 -0.4213 -0.2251  0.2491
 6063TIP3    H142384   4.722   1.946  10.004  2.2917  1.0718  0.3126
 6063TIP3    H242385   4.713   1.944  10.155  0.9708  0.6461  0.2386
 6064TIP3   OH242386   6.342   6.163   9.285 -0.7401  0.6834 -0.4002
 6064TIP3    H142387   6.338   6.136   9.377 -0.3117 -0.1457 -0.6163
 6064TIP3    H242388   6.255   6.198   9.267 -1.3390 -0.6247 -0.1161
 6065TIP3   OH242389   1.249   4.449  11.317  0.5592 -0.0261 -0.4085
 6065TIP3    H142390   1.218   4.436  11.407  0.0241 -0.8606 -0.7015
 6065TIP3    H242391   1.322   4.388  11.308  0.8260  0.2956 -0.4400
 6066TIP3   OH242392   0.356   6.310  10.707  0.6319  0.3174 -0.6306
 6066TIP3    H142393   0.287   6.287  10.645 -1.3805  1.4094  1.0690
 6066TIP3    H242394   0.336   6.399  10.733  2.5372  0.5585  0.1791
 6067TIP3   OH242395   3.252   0.237  10.393 -0.2659  0.9678  0.2146
 6067TIP3    H142396   3.217   0.149  10.384  2.1909  0.1124 -2.5315
 6067TIP3    H242397   3.175   0.294  10.385 -1.6443 -0.8634 -0.1446
 6068TIP3   OH242398   3.151   6.124   8.162  0.0258 -0.4433  0.6229
 6068TIP3    H142399   3.075   6.180   8.146  0.1872 -0.0587  1.1730
 6068TIP3    H242400   3.148   6.106   8.255 -0.0257 -1.3709  0.4469
 6069TIP3   OH242401   3.593   2.261  10.377 -0.0479 -0.0041 -0.4290
 6069TIP3    H142402   3.592   2.320  10.301  0.4428  3.2678  1.8830
 6069TIP3    H242403   3.686   2.254  10.400 -0.2373 -0.4586  0.2251
 6070TIP3   OH242404   2.575   1.085  10.828  0.5154 -0.4724  0.0800
 6070TIP3    H142405   2.570   1.178  10.805 -2.9680 -1.1173 -2.5576
 6070TIP3    H242406   2.523   1.077  10.908  1.0136 -0.1453  0.4420
 6071TIP3   OH242407   5.887   5.288  10.200 -0.5546  0.7047 -0.4890
 6071TIP3    H142408   5.865   5.230  10.273  1.7640 -2.0696 -1.7495
 6071TIP3    H242409   5.930   5.363  10.240 -0.0811 -0.3648  1.0748
 6072TIP3   OH242410   1.640   5.522  10.851  0.3104 -0.3456  0.8230
 6072TIP3    H142411   1.619   5.466  10.777 -0.2392  0.5689  0.2752
 6072TIP3    H242412   1.579   5.595  10.845  0.8107  0.1667  1.6957
 6073TIP3   OH242413   1.517   0.932   9.055 -0.1423 -0.1167  0.0442
 6073TIP3    H142414   1.602   0.919   9.014 -0.2402  1.1854 -0.6033
 6073TIP3    H242415   1.529   1.007   9.113 -0.9367  0.3237 -0.3442
 6074TIP3   OH242416   6.495   5.066  10.935 -0.1245  0.1767 -0.5867
 6074TIP3    H142417   6.534   5.097  11.018  0.3811  1.2650 -1.2068
 6074TIP3    H242418   6.570   5.050  10.878 -0.5222  1.7206 -1.6031
 6075TIP3   OH242419   6.089   2.903   8.694  0.5617  0.2114  0.1219
 6075TIP3    H142420   6.042   2.892   8.612 -0.3780  0.5363  0.6034
 6075TIP3    H242421   6.096   2.814   8.730 -1.4484  0.3516  0.9801
 6076TIP3   OH242422   2.156   2.544   8.713  0.2905 -0.1676  0.3845
 6076TIP3    H142423   2.194   2.496   8.640 -1.4222 -1.0516  0.0255
 6076TIP3    H242424   2.208   2.624   8.719  1.9587 -1.1576 -0.2651
 6077TIP3   OH242425   2.020   6.339   9.449 -0.0875 -0.3489 -0.2507
 6077TIP3    H142426   2.027   6.324   9.355  1.9253 -0.3759 -0.1295
 6077TIP3    H242427   2.014   6.434   9.459  1.0329 -0.2559 -0.3629
 6078TIP3   OH242428   6.083   0.504   8.481 -0.2774 -0.0241 -1.2599
 6078TIP3    H142429   6.033   0.552   8.415 -0.5529 -0.3131 -1.2613
 6078TIP3    H242430   6.041   0.418   8.486 -0.4580  0.0987 -0.4887
 6079TIP3   OH242431   6.178   5.333   8.131 -0.0908 -0.4050 -0.0197
 6079TIP3    H142432   6.145   5.421   8.150  0.3000 -0.2478 -0.0625
 6079TIP3    H242433   6.243   5.317   8.199  0.2367 -0.4373 -0.3382
 6080TIP3   OH242434   2.199   0.882   9.819  0.2828 -0.0330  0.0679
 6080TIP3    H142435   2.174   0.865   9.910 -0.3111 -0.7419 -0.2194
 6080TIP3    H242436   2.124   0.928   9.781  0.0850 -0.6858 -0.3463
 6081TIP3   OH242437   6.484   3.732  10.752 -0.0208  0.0547  0.1091
 6081TIP3    H142438   6.579   3.739  10.767  0.0139 -0.2529  0.0270
 6081TIP3    H242439   6.447   3.718  10.839 -0.1519  1.8136  0.3872
 6082TIP3   OH242440   5.250   5.323   9.917  0.1722 -0.0010 -0.3006
 6082TIP3    H142441   5.331   5.341   9.870  0.4611 -0.3525  0.0563
 6082TIP3    H242442   5.189   5.391   9.887  0.5765  0.2240 -0.6180
 6083TIP3   OH242443   1.437   2.024  11.034 -0.2764 -0.0488  0.4163
 6083TIP3    H142444   1.368   1.986  11.088 -0.0359 -1.2670 -0.0907
 6083TIP3    H242445   1.512   1.964  11.046  0.8045  1.3960  1.1902
 6084TIP3   OH242446   2.964   5.765  10.237  0.5425  0.1902 -0.0082
 6084TIP3    H142447   2.986   5.730  10.324  0.1060  1.3093  0.5791
 6084TIP3    H242448   3.040   5.818  10.213 -0.2367  1.7033  0.7236
 6085TIP3   OH242449   1.024   6.430   7.990  0.4169  0.1033  0.3836
 6085TIP3    H142450   0.952   6.373   7.963 -0.9631  0.6977  2.5315
 6085TIP3    H242451   1.006   6.513   7.947  0.4911 -0.0747  0.0017
 6086TIP3   OH242452   1.309   5.321   9.373 -0.5093 -0.3351  0.4405
 6086TIP3    H142453   1.315   5.361   9.286  0.7509 -0.0518  0.6332
 6086TIP3    H242454   1.258   5.241   9.360  1.3416 -1.3454 -0.9547
 6087TIP3   OH242455   1.383   2.379  10.189  0.0270 -0.9779  0.8672
 6087TIP3    H142456   1.457   2.358  10.246 -0.3356 -0.8599  1.3836
 6087TIP3    H242457   1.363   2.296  10.144  1.2087 -0.7448 -0.1609
 6088TIP3   OH242458   3.896   2.365  10.080  0.0629  0.0471 -0.2513
 6088TIP3    H142459   3.851   2.294  10.034  0.2135  0.0310 -0.3747
 6088TIP3    H242460   3.836   2.440  10.071 -1.1707 -0.6235  1.8420
 6089TIP3   OH242461   6.325   3.602  10.389 -0.1135 -0.0424 -0.2820
 6089TIP3    H142462   6.263   3.572  10.323 -1.6107  0.1058  0.9777
 6089TIP3    H242463   6.338   3.695  10.369 -1.4549  0.2884  0.2556
 6090TIP3   OH242464   3.601   5.168   9.069 -0.3362  0.2036  0.2294
 6090TIP3    H142465   3.641   5.214   8.995  2.1716 -1.5963  0.3459
 6090TIP3    H242466   3.564   5.238   9.124  0.5160  1.7973 -1.1550
 6091TIP3   OH242467   2.781   6.503   9.678  0.8074  0.6143  0.6032
 6091TIP3    H142468   2.804   6.412   9.658 -1.3770 -0.1432  1.1880
 6091TIP3    H242469   2.689   6.510   9.650  1.2976  3.0561 -0.6464
 6092TIP3   OH242470   2.780   5.624   9.533  0.7742 -0.0178 -0.3356
 6092TIP3    H142471   2.718   5.631   9.605 -0.2744  1.7901 -1.3242
 6092TIP3    H242472   2.854   5.679   9.559  0.5123  0.4201 -0.4946
 6093TIP3   OH242473   1.071   4.357  10.357 -0.3033  0.0624 -0.2063
 6093TIP3    H142474   1.130   4.318  10.292 -1.2136 -0.6191 -0.6486
 6093TIP3    H242475   1.061   4.448  10.329  0.1608  0.0580 -0.3931
 6094TIP3   OH242476   6.159   2.353   9.739 -1.0014  0.0055 -0.3599
 6094TIP3    H142477   6.167   2.414   9.812 -1.4241  1.1410 -1.2413
 6094TIP3    H242478   6.248   2.343   9.706 -0.7202 -0.9507  0.6366
 6095TIP3   OH242479   0.806   6.488   9.945  0.7534  0.4104  0.3558
 6095TIP3    H142480   0.779   6.399   9.926 -0.0706  0.2028  2.2737
 6095TIP3    H242481   0.822   6.489  10.039 -1.3017  2.7699  0.7916
 6096TIP3   OH242482   6.462   1.206   8.646  0.2329 -0.3813 -0.1489
 6096TIP3    H142483   6.516   1.128   8.637 -2.2543 -2.2511 -0.1076
 6096TIP3    H242484   6.432   1.203   8.737  0.8360  1.1946  0.1290
 6097TIP3   OH242485   2.467   0.797  10.249  0.0643  0.7645  0.3070
 6097TIP3    H142486   2.391   0.781  10.304  0.0854  2.5529  0.9329
 6097TIP3    H242487   2.538   0.813  10.311  0.6000  0.6295 -0.2614
 6098TIP3   OH242488   3.585   3.423   9.366 -0.1789 -0.0296 -0.2083
 6098TIP3    H142489   3.651   3.486   9.337 -0.4855  0.7914  0.8014
 6098TIP3    H242490   3.633   3.341   9.375  1.1738  0.9094  2.1545
 6099TIP3   OH242491   3.941   1.486  10.962  0.2090 -0.4055 -0.2357
 6099TIP3    H142492   3.993   1.505  11.041  0.4049 -1.5995 -0.0612
 6099TIP3    H242493   3.868   1.547  10.966  1.0312  0.5935  0.0685
 6100TIP3   OH242494   4.274   5.997   8.625 -0.1468  0.5780 -0.5496
 6100TIP3    H142495   4.260   6.051   8.548 -1.6099 -1.1482 -1.5489
 6100TIP3    H242496   4.188   5.990   8.666 -0.0181 -1.0536 -0.4999
 6101TIP3   OH242497   1.668   4.736   7.936 -0.2696  0.1207 -0.0065
 6101TIP3    H142498   1.584   4.695   7.954 -0.9437  1.2724 -0.4245
 6101TIP3    H242499   1.722   4.666   7.901 -0.4249 -1.0825  1.9948
 6102TIP3   OH242500   5.636   1.436   8.126  0.7237 -0.2104  0.0119
 6102TIP3    H142501   5.660   1.356   8.174  1.3637 -1.2579 -1.9719
 6102TIP3    H242502   5.541   1.432   8.119  0.6612 -0.2741  0.7592
 6103TIP3   OH242503   0.155   3.350  10.131  0.8067 -0.2186  0.7030
 6103TIP3    H142504   0.156   3.270  10.183  0.9338 -0.5942  0.1432
 6103TIP3    H242505   0.247   3.363  10.105  1.0143  0.8338  1.8474
 6104TIP3   OH242506   5.140   1.718   7.878 -0.1030 -0.1359  0.1437
 6104TIP3    H142507   5.160   1.802   7.918 -2.2052 -0.0929  1.2427
 6104TIP3    H242508   5.164   1.728   7.786 -1.4651  2.0945 -0.0222
 6105TIP3   OH242509   5.014   0.895  10.684  0.7118 -0.2787  0.4933
 6105TIP3    H142510   4.928   0.866  10.715  0.9718 -0.8182  0.7334
 6105TIP3    H242511   5.059   0.925  10.764  0.9612 -0.5672  0.4633
 6106TIP3   OH242512   1.535   2.786  10.868  0.1204 -0.1813 -0.3998
 6106TIP3    H142513   1.511   2.707  10.820 -0.6496  0.5828 -1.3045
 6106TIP3    H242514   1.452   2.820  10.900  0.3000  0.9520 -1.1083
 6107TIP3   OH242515   6.700   2.526  11.273  0.0346 -0.5707 -0.1029
 6107TIP3    H142516   6.743   2.578  11.341 -0.6040  1.3289 -1.0578
 6107TIP3    H242517   6.613   2.566  11.264 -0.6744 -2.1470 -0.5493
 6108TIP3   OH242518   0.194   2.486   9.409  0.3942 -0.2467  0.7069
 6108TIP3    H142519   0.150   2.496   9.324  0.6936 -1.7312  0.3527
 6108TIP3    H242520   0.135   2.528   9.471 -0.1839  0.2268 -0.1357
 6109TIP3   OH242521   1.505   3.240   8.950  0.3975  0.4601  0.5444
 6109TIP3    H142522   1.480   3.314   9.006 -0.7011  0.3040  0.2754
 6109TIP3    H242523   1.480   3.267   8.862  0.9718  0.1897  0.2947
 6110TIP3   OH242524   3.999   4.467   9.447 -0.3355 -0.1826  0.0920
 6110TIP3    H142525   3.915   4.511   9.461 -0.6959 -1.0420  0.7764
 6110TIP3    H242526   4.017   4.477   9.354 -0.7861  0.7250  0.0945
 6111TIP3   OH242527   3.271   3.639   9.350  0.6986  0.0205 -1.1165
 6111TIP3    H142528   3.300   3.548   9.353 -1.2971 -0.6444 -0.7775
 6111TIP3    H242529   3.271   3.661   9.257  1.6581 -0.1327 -1.1669
 6112TIP3   OH242530   2.645   3.348  11.217  0.1076 -0.0768  0.0274
 6112TIP3    H142531   2.652   3.394  11.133 -0.5848 -1.3948 -0.7831
 6112TIP3    H242532   2.562   3.379  11.255  0.2015  0.1903  0.0129
 6113TIP3   OH242533   2.864   4.922   9.535 -0.3261 -0.2380  0.2168
 6113TIP3    H142534   2.950   4.882   9.544 -0.2686 -0.1437  0.0878
 6113TIP3    H242535   2.807   4.850   9.510 -0.0336 -0.0633 -1.0147
 6114TIP3   OH242536   5.492   5.747   8.772  0.4009  0.1581 -0.5754
 6114TIP3    H142537   5.449   5.817   8.723  1.0336  1.1853  0.2837
 6114TIP3    H242538   5.495   5.779   8.862  0.8850 -0.8907 -0.2007
 6115TIP3   OH242539   5.014   2.547   9.246 -0.4844 -0.2358  0.0146
 6115TIP3    H142540   4.980   2.631   9.213  1.1058 -0.5767 -2.8508
 6115TIP3    H242541   4.999   2.486   9.174  0.1817 -1.9747  1.2892
 6116TIP3   OH242542   3.190   3.935   9.132 -0.6620  0.0140 -0.6617
 6116TIP3    H142543   3.207   3.854   9.085 -0.1897 -0.6055  0.5307
 6116TIP3    H242544   3.125   3.981   9.079  1.2870  0.3027 -2.9637
 6117TIP3   OH242545   1.868   4.890   9.722  0.9673  0.4041 -0.2332
 6117TIP3    H142546   1.827   4.814   9.680 -0.6563  1.4983 -0.7063
 6117TIP3    H242547   1.955   4.895   9.681  1.0068 -1.0060 -0.3939
 6118TIP3   OH242548   2.084   2.771   9.556  0.5828  0.2509  0.0672
 6118TIP3    H142549   2.170   2.755   9.516  1.3374  2.1299  0.7985
 6118TIP3    H242550   2.041   2.832   9.495 -1.3551 -2.5811 -1.6140
 6119TIP3   OH242551   5.002   6.163  10.011 -0.1107  0.1418  0.1702
 6119TIP3    H142552   5.020   6.233  10.073  0.2755 -2.0017  2.6649
 6119TIP3    H242553   5.087   6.144   9.971  0.2074 -0.2465  1.0156
 6120TIP3   OH242554   2.791   6.412   8.027 -0.3403  0.1968 -0.3908
 6120TIP3    H142555   2.852   6.368   7.968  0.1598 -3.1229  2.2774
 6120TIP3    H242556   2.707   6.409   7.983  0.3527 -0.4409 -1.7211
 6121TIP3   OH242557   0.816   2.614  10.298  0.0141  0.0459 -0.1202
 6121TIP3    H142558   0.832   2.543  10.236 -1.3544 -1.7403  1.4483
 6121TIP3    H242559   0.742   2.662  10.260 -2.9049 -2.8777  1.4017
 6122TIP3   OH242560   0.979   1.503  10.524 -0.7996 -0.0812 -0.6316
 6122TIP3    H142561   1.070   1.531  10.532  0.5315 -4.0428 -0.0030
 6122TIP3    H242562   0.953   1.531  10.436  0.9550  1.1662 -0.8144
 6123TIP3   OH242563   5.090   4.855   9.261 -0.0997 -0.2669  0.0214
 6123TIP3    H142564   5.000   4.876   9.284  0.2747  1.4040  0.0937
 6123TIP3    H242565   5.087   4.765   9.230 -2.3366  0.5997 -2.7127
 6124TIP3   OH242566   4.538   3.643   8.942 -0.2288 -0.7134  0.5842
 6124TIP3    H142567   4.472   3.699   8.982  1.2611  1.9311 -0.4204
 6124TIP3    H242568   4.621   3.670   8.982  1.2770  1.6567 -3.5078
 6125TIP3   OH242569   4.113   2.727  10.607 -0.6721  0.5376  0.7838
 6125TIP3    H142570   4.155   2.808  10.576  0.5759  0.1626  1.4120
 6125TIP3    H242571   4.171   2.696  10.676 -1.1740 -0.8708  0.5907
 6126TIP3   OH242572   5.798   4.715   9.255  0.0235 -0.2475 -0.3827
 6126TIP3    H142573   5.877   4.748   9.212  0.4393 -0.6260  0.0838
 6126TIP3    H242574   5.818   4.624   9.276 -0.8063 -0.5586 -0.8940
 6127TIP3   OH242575   2.517   1.460   9.998  0.2780  0.0889  0.3941
 6127TIP3    H142576   2.471   1.479  10.080  0.5500  0.2573  0.5088
 6127TIP3    H242577   2.521   1.365   9.993 -1.6527 -0.0049 -0.4889
 6128TIP3   OH242578   1.771   2.278   8.908 -0.1173  0.0218  0.2108
 6128TIP3    H142579   1.804   2.259   8.820 -0.2021  1.2301 -0.0919
 6128TIP3    H242580   1.676   2.282   8.898 -0.2534 -1.4887  0.6982
 6129TIP3   OH242581   4.992   4.778   8.978  0.0831  0.3865  0.2461
 6129TIP3    H142582   4.953   4.691   8.965 -0.3055  0.9006 -2.6778
 6129TIP3    H242583   4.929   4.823   9.034 -2.2531  0.2741 -2.0997
 6130TIP3   OH242584   6.689   6.310   8.661  0.4342 -0.3198  0.1494
 6130TIP3    H142585   6.739   6.389   8.644  0.3627 -0.4116 -0.5226
 6130TIP3    H242586   6.600   6.341   8.678  0.3295 -0.2724 -0.4581
 6131TIP3   OH242587   0.437   1.642   9.190  0.0908  0.0169 -0.5307
 6131TIP3    H142588   0.473   1.678   9.109 -1.7044  2.2289 -0.4217
 6131TIP3    H242589   0.352   1.606   9.165 -0.4307  0.6254  0.3306
 6132TIP3   OH242590   2.309   1.512  10.774  0.2483  0.4034 -0.1290
 6132TIP3    H142591   2.318   1.490  10.867 -0.8278  0.2968 -0.0409
 6132TIP3    H242592   2.379   1.463  10.731 -0.3522 -0.9793  0.4128
 6133TIP3   OH242593   1.889   3.572   9.711  0.5942 -0.4136 -0.4840
 6133TIP3    H142594   1.827   3.601   9.778  1.4013 -1.0255  0.5659
 6133TIP3    H242595   1.837   3.564   9.631 -0.5605 -0.3861  0.2489
 6134TIP3   OH242596   4.612   6.004  10.055  0.3238 -0.0793 -0.0807
 6134TIP3    H142597   4.697   5.965  10.033  0.1226 -0.4397 -0.2291
 6134TIP3    H242598   4.618   6.094  10.023  0.8480  0.0601  0.4002
 6135TIP3   OH242599   1.956   4.852   8.093  0.2161 -0.3763 -0.0429
 6135TIP3    H142600   2.032   4.901   8.126  0.3191  1.3077 -2.4911
 6135TIP3    H242601   1.881   4.902   8.124  0.2403 -0.0007 -0.5843
 6136TIP3   OH242602   2.400   5.341   9.476 -0.1728  0.0967 -0.3627
 6136TIP3    H142603   2.350   5.328   9.395 -0.3106 -1.7486 -0.0359
 6136TIP3    H242604   2.475   5.283   9.467  0.2462  0.4958  0.4886
 6137TIP3   OH242605   5.882   6.075  10.798  0.0274 -0.1495  0.0419
 6137TIP3    H142606   5.920   6.154  10.837 -0.4705  0.3464 -0.4485
 6137TIP3    H242607   5.797   6.104  10.764 -0.0859 -0.8591 -0.2955
 6138TIP3   OH242608   4.418   1.970   9.693  0.9192 -0.3581  0.0389
 6138TIP3    H142609   4.409   1.935   9.781  0.6977  1.8066  0.9436
 6138TIP3    H242610   4.328   1.980   9.662  0.9213  0.6695  0.3417
 6139TIP3   OH242611   2.175   2.432  10.401  0.1811  0.5034  1.0775
 6139TIP3    H142612   2.151   2.365  10.465 -0.5591 -0.8755 -0.5736
 6139TIP3    H242613   2.263   2.460  10.428 -0.6338  0.9654  3.4650
 6140TIP3   OH242614   3.402   6.686  10.681  0.3215  0.0120 -0.2451
 6140TIP3    H142615   3.427   6.683  10.773  0.8398  0.7879 -0.3487
 6140TIP3    H242616   3.418   6.776  10.655 -1.3822  0.2086 -0.6859
 6141TIP3   OH242617   6.030   3.228   8.983  0.0925 -0.2858 -0.4232
 6141TIP3    H142618   6.054   3.232   8.891 -4.1007  0.1441 -1.6731
 6141TIP3    H242619   5.981   3.308   8.999 -0.6723 -1.1157  1.7593
 6142TIP3   OH242620   3.269   4.214   8.407  0.0115  0.2704 -0.7165
 6142TIP3    H142621   3.210   4.281   8.372  1.1053  1.4051 -0.4609
 6142TIP3    H242622   3.311   4.176   8.330 -1.9379 -1.4576 -1.0016
 6143TIP3   OH242623   6.573   0.224   9.439  0.1745  0.0040  0.2561
 6143TIP3    H142624   6.578   0.164   9.513  0.6857 -0.1618  0.0936
 6143TIP3    H242625   6.664   0.237   9.412  0.0267  0.4072 -0.0671
 6144TIP3   OH242626   0.741   1.638   8.155 -0.1992  0.3847  0.6929
 6144TIP3    H142627   0.769   1.726   8.129  3.9071 -0.9832 -0.3433
 6144TIP3    H242628   0.656   1.626   8.112  0.1087  3.0794 -0.9170
 6145TIP3   OH242629   0.114   1.149   7.624 -0.1665  0.0982 -0.7103
 6145TIP3    H142630   0.076   1.159   7.711 -0.4758  1.9804 -1.0156
 6145TIP3    H242631   0.053   1.092   7.578 -1.5744  1.4164 -0.5558
 6146TIP3   OH242632   0.747   2.710  10.551 -0.3221  0.9487  0.1049
 6146TIP3    H142633   0.827   2.746  10.589  0.3942 -2.7124  2.6333
 6146TIP3    H242634   0.776   2.667  10.471 -0.0295  0.7974  0.2927
 6147TIP3   OH242635   5.251   3.787  10.192  0.5595 -0.1455 -0.2928
 6147TIP3    H142636   5.218   3.803  10.103  0.3296 -0.2713 -0.2328
 6147TIP3    H242637   5.217   3.861  10.243  0.6710 -0.0864 -0.3042
 6148TIP3   OH242638   3.281   5.172  10.622  0.3963  0.0553  0.2550
 6148TIP3    H142639   3.286   5.239  10.553  2.2214  1.2005  1.3831
 6148TIP3    H242640   3.190   5.142  10.621 -0.3477  2.1453 -0.7182
 6149TIP3   OH242641   5.067   3.198   8.589 -0.0678  0.2049  0.0378
 6149TIP3    H142642   5.124   3.267   8.556  1.6507 -0.5631  1.2516
 6149TIP3    H242643   4.979   3.225   8.563  0.6826  2.1992 -0.6097
 6150TIP3   OH242644   3.273   2.783   8.893  0.7546  0.1559 -0.1995
 6150TIP3    H142645   3.215   2.718   8.931  0.0283  1.4799  1.0536
 6150TIP3    H242646   3.281   2.851   8.960  0.0392  2.2322 -2.0941
 6151TIP3   OH242647   0.285   3.320  11.204  0.3516  0.0032  0.0133
 6151TIP3    H142648   0.260   3.345  11.293  1.2060 -0.3342  0.3586
 6151TIP3    H242649   0.207   3.278  11.168 -0.4183  1.2742  0.1510
 6152TIP3   OH242650   2.802   2.942  10.175  0.2448 -0.6678 -0.0881
 6152TIP3    H142651   2.821   2.856  10.139 -1.3103 -0.7276 -0.8411
 6152TIP3    H242652   2.714   2.962  10.145  1.0846  1.8222 -1.1684
 6153TIP3   OH242653   0.742   1.139   7.940  0.2447  0.6255  0.5502
 6153TIP3    H142654   0.702   1.215   7.983  1.7166  2.4397 -1.0915
 6153TIP3    H242655   0.671   1.102   7.887 -0.3920  1.0935  1.0594
 6154TIP3   OH242656   1.309   0.612  10.290 -0.1676  0.1747 -0.1797
 6154TIP3    H142657   1.281   0.546  10.226  0.8014 -2.8029  2.2275
 6154TIP3    H242658   1.234   0.671  10.298 -2.3933 -2.4540 -0.2417
 6155TIP3   OH242659   3.786   1.986  10.002  0.4827  0.0420 -0.1791
 6155TIP3    H142660   3.707   1.934   9.990 -1.0540  2.1902  0.1353
 6155TIP3    H242661   3.764   2.072   9.968  2.7448  0.6959 -0.1631
 6156TIP3   OH242662   5.154   3.048  10.497 -0.4428 -0.2563 -0.2514
 6156TIP3    H142663   5.130   3.109  10.427 -0.5109 -0.5916 -0.5210
 6156TIP3    H242664   5.143   3.099  10.577  2.2669  1.0359 -0.5831
 6157TIP3   OH242665   1.534   6.682   9.767 -0.1344  0.4655  0.1212
 6157TIP3    H142666   1.496   6.677   9.679  0.0703  0.9659  0.0022
 6157TIP3    H242667   1.587   6.603   9.774 -0.0052  0.5118 -0.2770
 6158TIP3   OH242668   5.708   4.001   9.141 -0.2786  0.0711  0.0720
 6158TIP3    H142669   5.801   3.976   9.148 -0.1462  0.7533  0.7218
 6158TIP3    H242670   5.704   4.053   9.061 -0.0928  0.0825  0.0693
 6159TIP3   OH242671   6.103   0.979  10.571  0.2583 -0.0137 -0.1079
 6159TIP3    H142672   6.172   1.022  10.620  0.2027  0.6808 -0.6264
 6159TIP3    H242673   6.133   0.889  10.561  0.8975  0.1790  0.0267
 6160TIP3   OH242674   4.922   5.399   9.269 -0.3945 -0.4208 -0.2478
 6160TIP3    H142675   4.951   5.487   9.247  0.6844 -0.8063 -0.3978
 6160TIP3    H242676   4.937   5.348   9.190  0.1687 -1.0186  0.2326
 6161TIP3   OH242677   2.865   5.409   9.968  0.6344 -0.2141  0.1022
 6161TIP3    H142678   2.900   5.412   9.879 -0.6555 -0.3546 -0.4371
 6161TIP3    H242679   2.771   5.397   9.956  0.7596 -3.7153  1.4845
 6162TIP3   OH242680   4.625   4.222  10.095 -0.1208 -0.0403 -0.3146
 6162TIP3    H142681   4.566   4.164  10.048 -1.2111  0.1488  0.7693
 6162TIP3    H242682   4.683   4.258  10.028 -1.4469  0.0073 -1.4664
 6163TIP3   OH242683   4.688   3.501  10.108 -0.1387  0.0903 -0.3478
 6163TIP3    H142684   4.778   3.467  10.108 -0.5595 -1.0743 -0.9674
 6163TIP3    H242685   4.672   3.525  10.016 -1.0804 -1.4487 -0.6079
 6164TIP3   OH242686   5.113   0.614   8.266  0.0406  0.7172  0.7030
 6164TIP3    H142687   5.194   0.614   8.317  0.5871 -1.7546 -0.0279
 6164TIP3    H242688   5.044   0.624   8.332  0.7638 -1.6630  1.9421
 6165TIP3   OH242689   2.179   6.542  10.123  0.1649  0.4058  0.3632
 6165TIP3    H142690   2.141   6.625  10.095  1.1345  0.9354  0.5919
 6165TIP3    H242691   2.265   6.565  10.159  0.7188 -0.7492 -0.1403
 6166TIP3   OH242692   0.524   0.119   8.047 -0.3676 -0.5261 -0.2064
 6166TIP3    H142693   0.463   0.086   7.981 -1.6372  1.7133 -0.2433
 6166TIP3    H242694   0.484   0.094   8.130 -0.0466 -1.1754 -0.2376
 6167TIP3   OH242695   5.168   6.451   8.888 -0.2632  0.0069  0.5344
 6167TIP3    H142696   5.164   6.390   8.814 -0.5574 -1.5282  1.7527
 6167TIP3    H242697   5.259   6.448   8.917  0.0500  1.2636 -0.2604
 6168TIP3   OH242698   1.389   1.746   8.891 -0.4166 -0.1633  0.0164
 6168TIP3    H142699   1.442   1.694   8.951  1.3163  0.3175 -1.0304
 6168TIP3    H242700   1.398   1.836   8.922 -2.8790 -0.3163  1.4290
 6169TIP3   OH242701   6.659   1.830  17.672 -0.1194 -0.3033 -0.5914
 6169TIP3    H142702   6.720   1.875  17.614 -0.7081  0.5149 -0.6042
 6169TIP3    H242703   6.663   1.738  17.646  0.9094 -0.2268 -0.7547
 6170TIP3   OH242704   6.632   2.054  10.421  0.7334  0.0754 -0.0392
 6170TIP3    H142705   6.665   2.144  10.409 -2.0806  0.9948 -1.8741
 6170TIP3    H242706   6.679   2.003  10.355  2.8292 -0.0366  1.4421
 6171TIP3   OH242707   6.226   2.701  10.526 -0.0279  0.5835 -0.3629
 6171TIP3    H142708   6.217   2.772  10.463 -0.5481  0.2820 -0.6340
 6171TIP3    H242709   6.136   2.677  10.548  0.1397 -0.1950 -0.5024
 6172TIP3   OH242710   0.026   2.455   8.417  0.5808 -0.1776 -0.3481
 6172TIP3    H142711  -0.026   2.488   8.490  0.3758  1.1373 -1.0530
 6172TIP3    H242712  -0.036   2.406   8.363  0.7347 -1.1579  0.3510
 6173TIP3   OH242713   1.004   5.049  11.514  0.2677  0.1519  0.4512
 6173TIP3    H142714   1.039   5.044  11.425 -1.1396  1.5432 -0.2286
 6173TIP3    H242715   1.032   5.136  11.545 -0.8529  0.4574  0.6357
 6174TIP3   OH242716   4.117   0.570   8.717 -0.2493 -0.2472 -0.2434
 6174TIP3    H142717   4.178   0.632   8.755 -0.5698 -0.1797  0.1746
 6174TIP3    H242718   4.168   0.490   8.703  0.4372  0.4425 -1.7976
 6175TIP3   OH242719   3.337   2.152   8.509 -0.1420  0.1978 -0.2752
 6175TIP3    H142720   3.279   2.211   8.558  0.3247  1.4747 -1.2346
 6175TIP3    H242721   3.277   2.089   8.468 -0.7810  1.0056 -0.5897
 6176TIP3   OH242722   5.182   1.263   9.352  0.2939  0.3207  0.4042
 6176TIP3    H142723   5.126   1.340   9.344  0.9089  0.9069  1.6319
 6176TIP3    H242724   5.271   1.298   9.357  0.5792 -0.4593  1.0063
 6177TIP3   OH242725   3.981   5.591  10.522  0.1290 -0.1665 -0.2048
 6177TIP3    H142726   3.894   5.565  10.551 -0.4585  2.0250  0.1758
 6177TIP3    H242727   3.967   5.636  10.439  0.7744  0.9438  0.2684
 6178TIP3   OH242728   1.382   0.926  10.691  0.1119  0.1367 -0.4973
 6178TIP3    H142729   1.345   0.978  10.619  0.2466  0.9193 -0.0219
 6178TIP3    H242730   1.323   0.943  10.765  0.0574 -0.5443 -0.3836
 6179TIP3   OH242731   4.881   2.646  11.524 -0.1287 -0.6048  0.3915
 6179TIP3    H142732   4.870   2.729  11.571 -0.5864 -1.1376  1.2486
 6179TIP3    H242733   4.967   2.615  11.550 -1.1061 -1.8339  2.4726
 6180TIP3   OH242734   3.262   1.523   9.390  0.1640 -0.0353 -0.1573
 6180TIP3    H142735   3.187   1.490   9.341  2.0329 -0.6569 -2.8133
 6180TIP3    H242736   3.304   1.445   9.428  1.8753 -0.3069 -2.4177
 6181TIP3   OH242737   5.316   4.155   8.933 -0.2993 -0.1732 -0.1424
 6181TIP3    H142738   5.338   4.169   8.841 -0.0481 -0.3579 -0.1105
 6181TIP3    H242739   5.247   4.088   8.930 -1.3546  0.8843 -0.2814
 6182TIP3   OH242740   6.196   3.470   8.393  0.1743  0.2830  0.0727
 6182TIP3    H142741   6.201   3.502   8.483 -0.1272  0.0121  0.1888
 6182TIP3    H242742   6.154   3.384   8.401 -0.1177  0.3847 -0.3527
 6183TIP3   OH242743   4.272   6.201  10.606 -0.0571  0.5589  0.0026
 6183TIP3    H142744   4.269   6.125  10.664 -2.4243  0.6602  0.1192
 6183TIP3    H242745   4.273   6.163  10.518 -0.9083  0.3528  0.0663
 6184TIP3   OH242746   2.923   5.361   9.690 -0.0759  0.0907  0.7746
 6184TIP3    H142747   2.983   5.419   9.642 -0.4868 -0.7738 -0.8722
 6184TIP3    H242748   2.844   5.359   9.636  0.3332 -2.8725  0.1250
 6185TIP3   OH242749   2.658   2.653   9.682 -1.0063 -0.0277 -0.1196
 6185TIP3    H142750   2.744   2.617   9.704 -0.6310  0.8472 -0.1275
 6185TIP3    H242751   2.612   2.579   9.641  0.2062 -0.1615 -1.3363
 6186TIP3   OH242752   1.497   1.812   9.596  0.1224  0.6554 -0.7628
 6186TIP3    H142753   1.574   1.780   9.548 -0.1900 -0.8847 -0.2968
 6186TIP3    H242754   1.521   1.900   9.623  1.4678  0.4557 -1.2030
 6187TIP3   OH242755   4.364   4.302  10.721  0.3501 -0.4936  0.3256
 6187TIP3    H142756   4.289   4.360  10.734  0.1813  0.3843 -3.3298
 6187TIP3    H242757   4.438   4.349  10.761 -0.3071  0.8499  0.0309
 6188TIP3   OH242758   5.738   4.324   8.717  0.0632 -0.0085 -0.0541
 6188TIP3    H142759   5.773   4.403   8.674  0.1808 -0.7008 -1.2901
 6188TIP3    H242760   5.643   4.338   8.718 -0.0994 -0.6226 -1.9847
 6189TIP3   OH242761   2.317   2.800  10.648 -0.5171 -0.4690  0.4835
 6189TIP3    H142762   2.261   2.850  10.589  0.3599 -1.0381 -0.8858
 6189TIP3    H242763   2.313   2.848  10.731 -2.3508 -0.0433  0.2023
 6190TIP3   OH242764   6.551   1.695   9.460 -0.2814  0.2405  0.2688
 6190TIP3    H142765   6.580   1.677   9.370  0.3713 -2.8787  0.9749
 6190TIP3    H242766   6.463   1.731   9.450  0.5128  1.8488 -1.6407
 6191TIP3   OH242767   3.591   5.388   9.220  0.8387  0.2981  1.0070
 6191TIP3    H142768   3.529   5.427   9.281  0.8376  0.0576  1.1622
 6191TIP3    H242769   3.677   5.422   9.248  0.7938  0.5085  0.8881
 6192TIP3   OH242770   6.317   2.210   8.323  0.0504 -0.1646 -0.0766
 6192TIP3    H142771   6.325   2.157   8.402 -0.3154  0.6594  0.5297
 6192TIP3    H242772   6.291   2.148   8.255  1.2811 -1.0538  0.2236
 6193TIP3   OH242773   0.432   3.675  11.256 -0.0719 -0.0271 -0.5158
 6193TIP3    H142774   0.430   3.655  11.163 -0.7276 -1.6658 -0.1863
 6193TIP3    H242775   0.436   3.590  11.299 -0.7615  0.6479  0.9765
 6194TIP3   OH242776   4.586   2.330   8.327 -0.6017  0.1601 -0.1855
 6194TIP3    H142777   4.633   2.286   8.398  1.1879  1.0393 -0.7702
 6194TIP3    H242778   4.508   2.366   8.369 -0.3837 -0.6585  0.9936
 6195TIP3   OH242779   0.961   5.746   8.055  0.4131 -0.5672 -0.4861
 6195TIP3    H142780   1.020   5.676   8.081 -0.7262 -0.6195  2.3326
 6195TIP3    H242781   1.018   5.813   8.017  2.4236 -0.4710  2.4057
 6196TIP3   OH242782   0.852   3.380   7.979 -0.3311  0.2745 -0.0074
 6196TIP3    H142783   0.830   3.291   7.952 -1.4112  1.0700 -1.9436
 6196TIP3    H242784   0.947   3.382   7.983 -0.3152 -1.2244  1.1184
 6197TIP3   OH242785   5.718   4.973   9.067  0.1444  0.1886 -0.2232
 6197TIP3    H142786   5.748   4.882   9.063  1.1661  0.5434 -1.7066
 6197TIP3    H242787   5.799   5.025   9.064 -0.4601  1.1416 -0.5693
 6198TIP3   OH242788   4.190   1.579   9.996 -0.0367  0.1444 -0.0260
 6198TIP3    H142789   4.108   1.535   9.973 -0.3416 -0.0216  1.2451
 6198TIP3    H242790   4.251   1.508  10.015  0.4218  0.2684 -1.0120
 6199TIP3   OH242791   1.746   4.667  11.156 -0.0893  0.0721  0.0296
 6199TIP3    H142792   1.666   4.636  11.198 -0.3964  1.4838  0.5456
 6199TIP3    H242793   1.808   4.595  11.165 -0.6951 -0.3109  1.3616
 6200TIP3   OH242794   5.693   4.267   9.365  0.4212  0.3219 -0.3291
 6200TIP3    H142795   5.655   4.252   9.278 -1.4704 -1.0519  0.6512
 6200TIP3    H242796   5.728   4.182   9.390  2.2373  1.0423 -0.2673
 6201TIP3   OH242797   1.785   1.218   8.217 -0.4744 -0.2320 -0.3137
 6201TIP3    H142798   1.855   1.176   8.267  0.4664 -1.6911 -2.6517
 6201TIP3    H242799   1.720   1.149   8.205 -1.2389  0.4414 -0.1391
 6202TIP3   OH242800   2.870   2.956  10.588 -0.0610 -0.5087  0.5079
 6202TIP3    H142801   2.917   2.901  10.651  0.0420 -0.7278  0.2441
 6202TIP3    H242802   2.804   3.002  10.640  0.1153 -0.5834  0.7968
 6203TIP3   OH242803   4.031   2.153   9.093  0.9322 -0.4363 -0.1717
 6203TIP3    H142804   4.045   2.191   9.179  0.9970  1.5677 -1.0103
 6203TIP3    H242805   3.948   2.105   9.100 -0.3253  1.7005  0.3985
 6204TIP3   OH242806   0.215   0.495  10.432  0.6351 -0.2455 -0.1922
 6204TIP3    H142807   0.185   0.445  10.356 -1.2229  1.1410 -0.4470
 6204TIP3    H242808   0.256   0.430  10.489 -0.2542 -1.7660 -1.2086
 6205TIP3   OH242809   1.871   0.735  11.130  0.7675 -0.2557  0.1642
 6205TIP3    H142810   1.910   0.798  11.070 -2.2488  1.4611 -0.1946
 6205TIP3    H242811   1.915   0.652  11.110  1.9981  0.8776 -2.2400
 6206TIP3   OH242812   0.979   1.472   9.851 -0.6418 -0.2812  0.2984
 6206TIP3    H142813   1.037   1.405   9.815 -0.5536 -0.4653  0.7791
 6206TIP3    H242814   0.891   1.443   9.827 -0.6342 -0.8101  0.9023
 6207TIP3   OH242815   2.285   3.141  10.857  0.2630 -0.6913 -0.5518
 6207TIP3    H142816   2.308   3.051  10.881  1.0210  0.0459  1.7872
 6207TIP3    H242817   2.333   3.195  10.921 -0.5998  1.3482 -1.5549
 6208TIP3   OH242818   4.444   2.456   9.129  0.2435  0.5891 -0.3773
 6208TIP3    H142819   4.536   2.467   9.103  0.0171 -0.0183 -1.4900
 6208TIP3    H242820   4.417   2.374   9.087 -1.2012  1.4577 -1.2185
 6209TIP3   OH242821   1.370   2.047   9.033 -0.2862 -0.3660 -0.3107
 6209TIP3    H142822   1.337   2.136   9.044 -1.0884 -0.1365 -3.5508
 6209TIP3    H242823   1.293   1.991   9.041 -0.0255 -0.6489  0.2800
 6210TIP3   OH242824   2.895   2.290   9.240  0.0183  0.6245  0.2615
 6210TIP3    H142825   2.822   2.351   9.230  0.3681  1.4103  2.0815
 6210TIP3    H242826   2.944   2.324   9.314  1.4260 -0.7134 -0.0130
 6211TIP3   OH242827   4.514   6.181   8.488 -0.0653  0.1798 -0.1364
 6211TIP3    H142828   4.420   6.166   8.480 -0.3751  1.6937  0.3251
 6211TIP3    H242829   4.550   6.159   8.402 -1.0307  0.7875 -0.7098
 6212TIP3   OH242830   1.430   2.750   8.810  0.1138  0.6275  0.0535
 6212TIP3    H142831   1.511   2.760   8.859  0.2221  0.2439 -0.0439
 6212TIP3    H242832   1.372   2.702   8.869  0.1039  0.5266 -0.0386
 6213TIP3   OH242833   6.604   0.980   9.035 -0.4417 -0.3677  0.7070
 6213TIP3    H142834   6.616   1.042   9.107  1.1645 -0.8493  0.8935
 6213TIP3    H242835   6.531   0.924   9.063 -0.8083  0.3856  1.2766
 6214TIP3   OH242836   2.419   3.744  10.602 -0.4167  0.4238  0.2736
 6214TIP3    H142837   2.353   3.802  10.566  0.9314  2.1541  0.4691
 6214TIP3    H242838   2.382   3.656  10.591 -2.0995  1.2252 -0.9113
 6215TIP3   OH242839   3.624   0.473   8.488 -0.1523 -0.3351 -0.1057
 6215TIP3    H142840   3.688   0.514   8.546 -1.2507 -0.2349  1.0912
 6215TIP3    H242841   3.673   0.453   8.409  1.1693  0.4181  0.4809
 6216TIP3   OH242842   6.399   3.935  10.541  0.0623 -0.8154  0.0817
 6216TIP3    H142843   6.402   3.861  10.601  0.5642  0.6866  1.9986
 6216TIP3    H242844   6.447   4.004  10.586 -0.2802  0.6485 -1.7049
 6217TIP3   OH242845   5.953   6.321   8.725 -0.2525  0.4178  0.4448
 6217TIP3    H142846   5.938   6.344   8.634  1.7752 -1.0835 -0.3294
 6217TIP3    H242847   5.887   6.254   8.744  1.0162 -1.2975 -0.8461
 6218TIP3   OH242848   4.948   4.697   9.509 -0.5932  0.6665  0.0105
 6218TIP3    H142849   4.903   4.780   9.503  0.6297  1.2728 -1.5712
 6218TIP3    H242850   5.040   4.720   9.522 -0.2169 -0.4086 -0.5745
 6219TIP3   OH242851   2.206   0.339   9.292  0.5199  0.4434 -0.1474
 6219TIP3    H142852   2.169   0.339   9.380 -1.0759  1.1086 -0.7853
 6219TIP3    H242853   2.295   0.372   9.304  0.4177  0.2803  1.2399
 6220TIP3   OH242854   5.106   3.209   9.930  0.4149  0.2245 -0.4618
 6220TIP3    H142855   5.014   3.187   9.944  0.1850  1.7287  0.6234
 6220TIP3    H242856   5.129   3.163   9.849 -1.5773  0.6319 -1.3336
 6221TIP3   OH242857   5.848   2.429  10.008 -0.0014 -0.5646 -0.0973
 6221TIP3    H142858   5.849   2.426   9.913 -1.7826  0.5108 -0.2024
 6221TIP3    H242859   5.795   2.353  10.033  0.0702 -0.5806  0.0041
 6222TIP3   OH242860   1.372   3.305   9.395 -0.9453  0.0808  0.1234
 6222TIP3    H142861   1.306   3.284   9.329  0.7811 -0.1251 -1.6297
 6222TIP3    H242862   1.403   3.393   9.371  0.9054 -0.6732 -0.4753
 6223TIP3   OH242863   1.823   6.663   8.744  0.1093 -0.5274 -0.3468
 6223TIP3    H142864   1.874   6.610   8.683  0.1116 -1.6944  0.6342
 6223TIP3    H242865   1.886   6.692   8.810 -0.2085 -0.6808  0.0259
 6224TIP3   OH242866   4.977   3.983   9.683 -0.2018 -0.3077  0.1827
 6224TIP3    H142867   5.004   3.978   9.591 -2.5538  0.6042 -0.6344
 6224TIP3    H242868   4.883   3.999   9.680 -0.2688  0.2953  2.7745
 6225TIP3   OH242869   2.324   4.527   8.038  0.3212 -0.1822  0.2080
 6225TIP3    H142870   2.412   4.528   8.000  0.6042 -0.1085  0.8524
 6225TIP3    H242871   2.285   4.610   8.012  0.7350  0.1363  0.5718
 6226TIP3   OH242872   0.940   3.658   9.559 -0.6036 -0.2168  0.6283
 6226TIP3    H142873   0.928   3.671   9.653  0.4609  0.8291  0.6471
 6226TIP3    H242874   1.033   3.676   9.544 -0.9791  0.7322 -0.7657
 6227TIP3   OH242875   3.463   2.682   9.452 -0.5504  0.3675  0.0961
 6227TIP3    H142876   3.448   2.605   9.399 -4.3358 -0.7650  2.4176
 6227TIP3    H242877   3.420   2.754   9.405  0.4125  0.4721 -0.6493
 6228TIP3   OH242878   1.465   0.819  11.341 -0.1941  0.8308 -0.0513
 6228TIP3    H142879   1.530   0.762  11.383 -0.0169  1.0376 -0.0407
 6228TIP3    H242880   1.381   0.781  11.365 -0.0681 -0.1396 -1.0298
 6229TIP3   OH242881   4.370   3.003  11.757 -0.1925 -0.0313 -0.1068
 6229TIP3    H142882   4.320   3.084  11.769  0.0206 -0.0770  1.2760
 6229TIP3    H242883   4.311   2.933  11.784  0.2144 -0.1772  0.4343
 6230TIP3   OH242884   1.705   0.508  10.282  0.2309  0.4071  0.5070
 6230TIP3    H142885   1.700   0.598  10.250 -1.4483  0.1614 -0.0103
 6230TIP3    H242886   1.657   0.457  10.217  0.8127 -0.8099  1.0030
 6231TIP3   OH242887   5.904   2.665  10.866  0.0650 -0.1157  0.1154
 6231TIP3    H142888   5.876   2.755  10.883 -0.3214 -0.0505 -0.8261
 6231TIP3    H242889   5.829   2.611  10.891  0.3787 -0.1975  0.8939
 6232TIP3   OH242890   4.481   2.324   9.388  0.0917 -0.0528 -0.5517
 6232TIP3    H142891   4.485   2.351   9.297  1.2874  0.4117 -0.3807
 6232TIP3    H242892   4.572   2.318   9.415 -0.2529  0.5751  0.8359
 6233TIP3   OH242893   0.261   3.264   9.521  0.0875  0.4421  0.4377
 6233TIP3    H142894   0.178   3.216   9.532  0.7476 -0.9825 -0.5655
 6233TIP3    H242895   0.260   3.329   9.591 -1.7530  0.2683  0.6214
 6234TIP3   OH242896   1.021   1.760   8.194  0.0059 -0.0425  0.7548
 6234TIP3    H142897   0.947   1.728   8.245  0.3042 -0.6938  0.7936
 6234TIP3    H242898   1.074   1.682   8.178  0.0836  0.2112 -0.2690
 6235TIP3   OH242899   1.478   1.956  10.340 -0.6217 -0.3959  0.3401
 6235TIP3    H142900   1.406   1.909  10.297 -1.1059  1.5725 -1.1915
 6235TIP3    H242901   1.532   1.987  10.267  0.5845 -0.0046  1.3735
 6236TIP3   OH242902   4.502   3.972  11.237 -0.1155  0.3201 -0.6557
 6236TIP3    H142903   4.550   3.923  11.304  0.0827 -0.3237 -1.2510
 6236TIP3    H242904   4.461   4.044  11.284  0.5236  0.2320  0.0499
 6237TIP3   OH242905   0.577   2.938   8.739  0.2820  0.2130  0.3449
 6237TIP3    H142906   0.595   2.980   8.823  0.4758  2.1448 -0.6103
 6237TIP3    H242907   0.658   2.949   8.689  0.8499 -2.5982  0.5025
 6238TIP3   OH242908   2.867   2.052   8.219 -0.2817  0.5063 -0.7383
 6238TIP3    H142909   2.778   2.087   8.216 -0.4925 -0.0581 -1.2147
 6238TIP3    H242910   2.918   2.120   8.263 -1.1692  0.3450  0.5817
 6239TIP3   OH242911   4.581   2.185   9.677  0.3417 -0.5053  0.0769
 6239TIP3    H142912   4.613   2.171   9.766  0.9465 -2.5841 -0.3996
 6239TIP3    H242913   4.524   2.110   9.660  2.7807 -1.9946 -2.3268
 6240TIP3   OH242914   0.568   4.566   8.555 -0.0754 -0.9474  0.6364
 6240TIP3    H142915   0.527   4.607   8.631  1.6066  0.3022  0.9313
 6240TIP3    H242916   0.521   4.601   8.480 -1.5925 -2.0036  1.0528
 6241TIP3   OH242917   4.143   0.093   9.571 -0.1250 -0.0425 -0.1027
 6241TIP3    H142918   4.086   0.155   9.526  0.2839 -0.0512 -0.6527
 6241TIP3    H242919   4.091   0.013   9.580 -0.8886  0.5676  1.1987
 6242TIP3   OH242920   2.454   2.914   9.394 -0.1046  0.4546  0.5581
 6242TIP3    H142921   2.535   2.870   9.421  0.1204  0.2640 -0.3602
 6242TIP3    H242922   2.386   2.878   9.450  0.7846  2.4245  3.0798
 6243TIP3   OH242923   1.131   5.861  10.044  0.0385 -0.1694  0.4126
 6243TIP3    H142924   1.200   5.882   9.981 -0.0873  0.9891  0.6326
 6243TIP3    H242925   1.054   5.908  10.012 -0.0345  0.4226  1.3852
 6244TIP3   OH242926   1.679   1.001   9.434  0.2885 -0.1405  0.2719
 6244TIP3    H142927   1.729   0.953   9.368 -1.0621 -1.1724 -0.0268
 6244TIP3    H242928   1.640   1.074   9.386 -0.2623 -0.5875  0.0350
 6245TIP3   OH242929   2.467   3.392  10.116  0.0382  0.1492  0.0381
 6245TIP3    H142930   2.464   3.476  10.163  0.9028  0.3459 -0.2429
 6245TIP3    H242931   2.413   3.333  10.169 -0.3111  0.7958  0.4156
 6246TIP3   OH242932   5.404   4.030  10.760  0.1757 -0.6485 -0.0305
 6246TIP3    H142933   5.347   3.979  10.816  1.1547 -1.5233  0.2051
 6246TIP3    H242934   5.404   3.984  10.676 -0.4950  0.0907 -0.4469
 6247TIP3   OH242935   0.665   4.145   8.960  0.3380  0.4266 -0.3704
 6247TIP3    H142936   0.739   4.107   8.913 -0.1361 -3.7564  1.8595
 6247TIP3    H242937   0.589   4.123   8.906 -0.1108 -3.6404  1.5757
 6248TIP3   OH242938   5.195   4.484   9.666 -0.1040  0.4608  0.2743
 6248TIP3    H142939   5.291   4.481   9.666 -0.0395  1.3664 -1.3072
 6248TIP3    H242940   5.174   4.572   9.634 -1.4120 -0.5789 -1.9788
 6249TIP3   OH242941   1.215   6.132   9.945  0.2739 -0.3646 -0.4746
 6249TIP3    H142942   1.125   6.133   9.915  0.3272 -1.1466 -0.6953
 6249TIP3    H242943   1.258   6.203   9.897 -0.6082  1.1722  0.9426
 6250TIP3   OH242944   2.498   6.158  10.161  0.3175 -0.4267 -0.3373
 6250TIP3    H142945   2.428   6.215  10.193  2.0071  2.0946 -0.8625
 6250TIP3    H242946   2.522   6.105  10.237  0.0312  1.0015  0.7928
 6251TIP3   OH242947   0.811   3.683  10.315  0.2649  0.2474  0.7929
 6251TIP3    H142948   0.881   3.749  10.319  1.4305 -0.9197  0.5583
 6251TIP3    H242949   0.738   3.722  10.363  1.1160  1.4699  1.1455
 6252TIP3   OH242950   2.655   0.889  11.286 -0.3995 -0.0050 -0.7728
 6252TIP3    H142951   2.687   0.972  11.250  0.8630  0.3235  0.9642
 6252TIP3    H242952   2.728   0.856  11.338 -1.7737 -0.9239  0.6518
 6253TIP3   OH242953   4.055   5.755  10.823  0.2436  0.1975 -0.2928
 6253TIP3    H142954   4.039   5.661  10.816  0.1418  0.1940 -0.0280
 6253TIP3    H242955   3.968   5.794  10.814  0.0697  0.1815  1.1617
 6254TIP3   OH242956   5.060   3.628  10.653  0.3409  0.0381  0.3889
 6254TIP3    H142957   5.006   3.633  10.574 -0.9818 -0.1432  1.2547
 6254TIP3    H242958   5.115   3.707  10.650 -1.2573  1.1909  0.3786
 6255TIP3   OH242959   5.767   0.906   8.919 -0.0073 -0.4357 -0.2482
 6255TIP3    H142960   5.838   0.842   8.920  0.5909  0.2185 -0.0099
 6255TIP3    H242961   5.688   0.854   8.904  0.7256 -0.9930 -2.5886
 6256TIP3   OH242962   1.859   1.215   8.732  0.0219  0.2704  0.1163
 6256TIP3    H142963   1.934   1.274   8.741  0.0219  0.2073  0.5630
 6256TIP3    H242964   1.805   1.255   8.664  0.4597  0.3167 -0.2082
 6257TIP3   OH242965   0.072   2.183   9.700  0.0272  0.0736 -0.1995
 6257TIP3    H142966   0.023   2.206   9.621 -0.5379  0.4832  0.2615
 6257TIP3    H242967   0.149   2.240   9.698 -0.8880  1.3796  0.4491
 6258TIP3   OH242968   3.063   6.745  11.079 -0.8502 -0.2822 -0.1685
 6258TIP3    H142969   2.979   6.719  11.117 -0.6604  0.6024  0.9061
 6258TIP3    H242970   3.044   6.827  11.032 -0.5851 -0.0409  0.1397
 6259TIP3   OH242971   2.249   3.297   7.988  0.5378  0.1814  0.2049
 6259TIP3    H142972   2.270   3.249   8.068  0.8006 -0.4906 -0.2600
 6259TIP3    H242973   2.282   3.385   8.004  2.0806 -0.3626  0.2060
 6260TIP3   OH242974   3.356   5.310   9.985 -0.6416  0.2155  0.1618
 6260TIP3    H142975   3.450   5.288   9.983 -0.8773 -0.8271 -0.7297
 6260TIP3    H242976   3.353   5.401  10.014  0.6881  0.4289 -0.2967
 6261TIP3   OH242977   5.018   1.558  10.385  0.7023  0.3252  0.3131
 6261TIP3    H142978   5.085   1.601  10.439  0.1576  0.8424  0.5968
 6261TIP3    H242979   5.060   1.480  10.351  0.9799 -0.1556  1.7097
 6262TIP3   OH242980   0.830   2.616   8.885  0.1248  0.4985 -0.1097
 6262TIP3    H142981   0.897   2.557   8.918  0.2213  0.8131  0.2600
 6262TIP3    H242982   0.874   2.699   8.873 -0.4861  1.1145  1.5036
 6263TIP3   OH242983   3.974   6.106  11.531  0.3910  0.1438 -0.2919
 6263TIP3    H142984   4.035   6.165  11.575  1.2123 -0.5046 -0.5416
 6263TIP3    H242985   3.921   6.163  11.476 -0.6459  0.9848  1.4640
 6264TIP3   OH242986   3.645   3.350  10.939  0.3164  0.2902  0.0741
 6264TIP3    H142987   3.710   3.299  10.988 -0.3162 -0.3496  0.2656
 6264TIP3    H242988   3.601   3.403  11.005  1.3740  1.5629 -0.2026
 6265TIP3   OH242989   0.189   4.814   9.658 -0.0368 -0.1920  0.2993
 6265TIP3    H142990   0.189   4.894   9.711  1.2203  0.7920 -1.1148
 6265TIP3    H242991   0.156   4.841   9.573 -0.5897 -1.4168  0.1062
 6266TIP3   OH242992   1.408   3.594   9.393  0.6987  0.1849 -0.1298
 6266TIP3    H142993   1.462   3.659   9.346  0.9328  0.4603  0.5055
 6266TIP3    H242994   1.321   3.602   9.354  0.9833  0.1421 -0.7754
 6267TIP3   OH242995   6.619   1.656   9.178 -0.7790  0.3021 -0.0959
 6267TIP3    H142996   6.573   1.734   9.146 -0.8746  0.5805  0.6941
 6267TIP3    H242997   6.711   1.680   9.175 -0.8766  1.0264  1.5628
 6268TIP3   OH242998   6.649   3.145   9.822 -0.4644 -0.5814  0.0433
 6268TIP3    H142999   6.741   3.121   9.814 -0.2604  0.3940 -0.7196
 6268TIP3    H243000   6.616   3.146   9.732 -0.6386  1.2404  0.0889
 6269TIP3   OH243001   5.370   4.847   8.815  0.2246  1.0157 -0.1563
 6269TIP3    H143002   5.311   4.916   8.846 -2.9274 -1.3339 -0.3746
 6269TIP3    H243003   5.393   4.797   8.893  1.2435  1.4014 -0.1993
 6270TIP3   OH243004   6.024   5.462   9.824  0.4298  0.4787 -0.2984
 6270TIP3    H143005   6.073   5.515   9.888  1.0311 -0.8912  0.4051
 6270TIP3    H243006   5.938   5.451   9.865  0.4934  0.4231 -0.1774
 6271TIP3   OH243007   5.048   3.796  11.101 -0.5746 -0.2432  1.0835
 6271TIP3    H143008   4.985   3.820  11.169 -2.8651 -2.1422 -0.2367
 6271TIP3    H243009   4.997   3.796  11.020  1.4762 -0.5657 -0.2809
 6272TIP3   OH243010   0.444   3.084   9.584 -0.5291  0.1376  0.4209
 6272TIP3    H143011   0.408   3.018   9.524  0.1016  0.0926  0.0859
 6272TIP3    H243012   0.408   3.167   9.553 -1.3236 -0.0322  0.8411
 6273TIP3   OH243013   6.635   4.297   8.128 -0.8349  0.0633 -0.1632
 6273TIP3    H143014   6.707   4.260   8.076 -0.1629  1.6017 -0.3725
 6273TIP3    H243015   6.618   4.231   8.195  1.1973 -0.1021  0.2717
 6274TIP3   OH243016   5.639   3.919   8.685 -0.3132  0.6315 -0.1273
 6274TIP3    H143017   5.668   3.828   8.694 -0.4579  0.6938  1.2526
 6274TIP3    H243018   5.544   3.914   8.683 -0.3543  0.7831  0.7582
 6275TIP3   OH243019   1.006   6.333  10.570 -0.3286 -0.1339  0.4289
 6275TIP3    H143020   0.913   6.336  10.548 -1.1618 -1.6106  3.2843
 6275TIP3    H243021   1.030   6.424  10.586 -1.4831  0.1967  0.3976
 6276TIP3   OH243022   3.040   2.410   9.447 -0.0325 -0.1262 -1.0260
 6276TIP3    H143023   3.053   2.493   9.493 -0.8126  0.2831 -1.5040
 6276TIP3    H243024   3.120   2.360   9.463 -0.3505 -0.0893  0.9339
 6277TIP3   OH243025   1.812   3.435  11.341  0.0238  0.2330  0.2216
 6277TIP3    H143026   1.834   3.520  11.380  0.1261 -0.3635  1.5293
 6277TIP3    H243027   1.738   3.403  11.394  0.6457 -0.9360  0.4240
 6278TIP3   OH243028   2.527   6.588   9.559 -0.0203 -0.2529 -0.3392
 6278TIP3    H143029   2.469   6.610   9.633 -0.0993 -2.9672  0.5201
 6278TIP3    H243030   2.593   6.657   9.560  1.0926 -1.0902  3.5496
 6279TIP3   OH243031   1.791   4.176   7.966 -0.2993  0.1661 -0.0606
 6279TIP3    H143032   1.796   4.083   7.985 -0.3415  0.1735 -0.0104
 6279TIP3    H243033   1.881   4.204   7.954 -0.3828 -0.4584 -2.9680
 6280TIP3   OH243034   4.873   0.610   8.393 -0.0136  0.3230  0.5456
 6280TIP3    H143035   4.909   0.559   8.466 -0.6674 -2.7302 -1.0847
 6280TIP3    H243036   4.780   0.616   8.411  0.1707  1.8643  1.1675
 6281TIP3   OH243037   2.183   2.275  11.458  0.4857 -0.2228 -0.1816
 6281TIP3    H143038   2.266   2.320  11.441  0.1124  0.1902 -0.9497
 6281TIP3    H243039   2.143   2.266  11.371 -0.9094  0.8069  0.3292
 6282TIP3   OH243040   5.851   5.926   8.688  0.0943 -0.4452  0.0674
 6282TIP3    H143041   5.942   5.930   8.660  0.0141  0.9427 -0.1035
 6282TIP3    H243042   5.810   5.861   8.632  1.0038 -1.1694  0.2303
 6283TIP3   OH243043   2.102   4.387   9.310 -0.3731  0.3802  0.4317
 6283TIP3    H143044   2.120   4.320   9.243 -1.6784 -1.1511  1.5174
 6283TIP3    H243045   2.188   4.422   9.332  0.0377  1.6173 -2.6413
 6284TIP3   OH243046   4.901   3.699   9.457  0.1591 -0.5607 -0.0357
 6284TIP3    H143047   4.918   3.771   9.518  1.9299 -0.2978 -0.7762
 6284TIP3    H243048   4.806   3.686   9.460  0.0160  0.6427  1.4047
 6285TIP3   OH243049   4.590   1.491  10.473 -0.0966  0.1468  0.1319
 6285TIP3    H143050   4.593   1.575  10.427 -1.2502 -1.0117 -2.2512
 6285TIP3    H243051   4.554   1.512  10.559  2.1805  2.4339  0.6262
 6286TIP3   OH243052   5.208   1.577   8.132 -0.1945 -0.1174 -0.2245
 6286TIP3    H143053   5.168   1.634   8.066  0.5499 -0.9118 -1.4008
 6286TIP3    H243054   5.221   1.493   8.087  0.5953 -0.5954  0.8394
 6287TIP3   OH243055   3.485   3.408   8.110 -0.7662  0.7762  0.1073
 6287TIP3    H143056   3.451   3.378   8.194  0.4373  1.1736  0.7487
 6287TIP3    H243057   3.463   3.501   8.106  0.1162  1.0117  0.4801
 6288TIP3   OH243058   2.112   0.205  10.321 -0.3828 -0.2024 -0.1111
 6288TIP3    H143059   2.190   0.154  10.298 -0.1060 -1.0057  2.3123
 6288TIP3    H243060   2.045   0.139  10.340 -0.9605  0.4316  0.0978
 6289TIP3   OH243061   4.397   2.925  10.358  0.3354  0.0194  0.1204
 6289TIP3    H143062   4.389   2.831  10.377  0.7756  0.2710  1.7048
 6289TIP3    H243063   4.328   2.965  10.411  1.9798  0.8156  1.7639
 6290TIP3   OH243064   3.208   5.565   8.181 -0.1284 -0.3692  0.0787
 6290TIP3    H143065   3.183   5.657   8.176  1.7624  0.1896  0.0894
 6290TIP3    H243066   3.142   5.519   8.130 -1.5462  0.8800  0.7118
 6291TIP3   OH243067   2.306   0.850   9.438 -0.3598 -0.0886 -0.3681
 6291TIP3    H143068   2.400   0.861   9.428 -0.1766  1.6333  2.1820
 6291TIP3    H243069   2.295   0.758   9.461  1.0337  0.1204  1.4206
 6292TIP3   OH243070   4.240   1.375   9.509 -0.4479 -0.2436  0.2894
 6292TIP3    H143071   4.243   1.440   9.579  0.8389 -2.0342  2.0179
 6292TIP3    H243072   4.189   1.303   9.546 -1.6010 -0.3752 -1.4702
 6293TIP3   OH243073   4.598   2.551   8.600 -0.0436 -0.2225 -0.3105
 6293TIP3    H143074   4.594   2.566   8.505 -1.1154 -0.1315 -0.2625
 6293TIP3    H243075   4.506   2.552   8.628  0.1700 -1.6524  0.5133
 6294TIP3   OH243076   3.522   1.619   9.051 -1.1974 -0.9268 -0.2049
 6294TIP3    H143077   3.517   1.524   9.056 -0.8967 -0.9126  0.4331
 6294TIP3    H243078   3.499   1.649   9.139 -0.9805 -0.4251 -0.3159
 6295TIP3   OH243079   2.440   3.605  10.266 -0.4933 -0.2794  0.0289
 6295TIP3    H143080   2.384   3.678  10.237 -0.3829 -0.4934 -0.7504
 6295TIP3    H243081   2.407   3.583  10.353 -1.9709 -0.7213 -0.6044
 6296TIP3   OH243082   2.089   3.302   9.513 -0.0199 -0.1194  0.6522
 6296TIP3    H143083   1.995   3.286   9.521 -0.1188  0.6417  1.1014
 6296TIP3    H243084   2.119   3.315   9.602  0.8911 -2.2250  0.7156
 6297TIP3   OH243085   2.331   3.554   8.078  0.0600 -0.6058 -0.0950
 6297TIP3    H143086   2.243   3.589   8.091 -0.3283 -0.9523 -1.6178
 6297TIP3    H243087   2.378   3.578   8.158 -0.6134  1.9883 -0.3885
 6298TIP3   OH243088   6.436   0.748   8.235 -0.5566 -0.8123 -0.0081
 6298TIP3    H143089   6.347   0.713   8.239 -1.6827  1.4649 -2.0583
 6298TIP3    H243090   6.465   0.727   8.146 -0.6451  1.7530 -0.7288
 6299TIP3   OH243091   6.571   2.584   8.223 -0.5510 -0.7088  0.2394
 6299TIP3    H143092   6.569   2.578   8.127 -2.3319  1.2716  0.0641
 6299TIP3    H243093   6.479   2.585   8.249 -0.3599  3.1929  1.5001
 6300TIP3   OH243094   6.725   4.933   8.424 -0.0509 -0.6162  0.4051
 6300TIP3    H143095   6.776   4.851   8.420 -0.0207 -0.6015  0.4846
 6300TIP3    H243096   6.644   4.913   8.377 -0.0709 -0.7116  0.4787
 6301TIP3   OH243097   1.659   5.554   7.968  0.3687 -0.3524 -0.1683
 6301TIP3    H143098   1.666   5.587   8.057 -3.0977  0.4796 -0.0663
 6301TIP3    H243099   1.680   5.628   7.912 -0.8259  0.1577  0.0290
 6302TIP3   OH243100   6.277   2.316  10.552 -0.4701 -0.1987 -0.2257
 6302TIP3    H143101   6.318   2.237  10.517  0.6474  1.3666 -2.7054
 6302TIP3    H243102   6.270   2.375  10.477 -0.5119  2.3884  1.6802
 6303TIP3   OH243103   2.474   0.258   9.559  0.0726  0.4843 -0.6835
 6303TIP3    H143104   2.497   0.313   9.484  1.3665 -0.9186 -1.3699
 6303TIP3    H243105   2.393   0.214   9.533 -1.0171  2.0774 -0.0942
 6304TIP3   OH243106   1.498   4.278   9.052 -0.1117  0.8016  0.7771
 6304TIP3    H143107   1.578   4.227   9.047 -0.8640 -0.3447 -0.1408
 6304TIP3    H243108   1.443   4.231   9.115 -1.6918 -0.9472 -1.6852
 6305TIP3   OH243109   1.545   3.592   7.792  0.1640  0.2592 -0.0429
 6305TIP3    H143110   1.585   3.679   7.780  0.3516  0.2864  0.7059
 6305TIP3    H243111   1.531   3.585   7.886 -2.6784  0.6971 -0.3641
 6306TIP3   OH243112   5.546   0.547   9.831 -0.1042  0.3386  0.1619
 6306TIP3    H143113   5.601   0.586   9.763 -0.0201  2.4191  1.3397
 6306TIP3    H243114   5.457   0.557   9.798  0.0298 -0.5186 -0.5097
 6307TIP3   OH243115   0.762   3.423   9.727 -0.2901  0.0278  0.1628
 6307TIP3    H143116   0.847   3.444   9.688 -1.1196  2.1736 -0.6606
 6307TIP3    H243117   0.781   3.355   9.792  1.9618  0.1005 -0.3452
 6308TIP3   OH243118   1.531   4.542  10.741 -0.4689 -0.0423 -0.6114
 6308TIP3    H143119   1.446   4.568  10.775  0.1071  0.1287  0.7538
 6308TIP3    H243120   1.594   4.599  10.785  0.3633 -0.0550 -1.7097
 6309TIP3   OH243121   2.256   4.830  10.543  0.1824 -0.1376  0.0060
 6309TIP3    H143122   2.289   4.787  10.622  0.2027  0.5562  0.3891
 6309TIP3    H243123   2.317   4.903  10.528  0.3920 -0.4729 -0.8676
 6310TIP3   OH243124   0.828   2.674  11.349 -0.0225  0.2399  0.0674
 6310TIP3    H143125   0.766   2.626  11.295 -0.0373  0.8025 -0.4236
 6310TIP3    H243126   0.774   2.725  11.409 -0.0129 -1.4894  1.6589
 6311TIP3   OH243127   6.457   3.005  11.056  0.3204 -0.3187  0.2390
 6311TIP3    H143128   6.365   2.982  11.044  0.5372 -0.1660 -2.1826
 6311TIP3    H243129   6.486   2.950  11.129 -1.4986 -0.9059  0.5617
 6312TIP3   OH243130   2.707   6.675  11.837  0.2444  0.5299  0.1021
 6312TIP3    H143131   2.669   6.715  11.758 -0.5318 -1.7402 -0.7567
 6312TIP3    H243132   2.800   6.664  11.816  0.3689  1.4039  0.1647
 6313TIP3   OH243133   5.995   6.530  10.747 -0.4263 -0.2471 -0.4321
 6313TIP3    H143134   5.984   6.439  10.776  1.0331 -0.3446 -0.1247
 6313TIP3    H243135   6.089   6.547  10.755 -0.2981  0.5119 -2.8063
 6314TIP3   OH243136   0.349   0.045  10.664  0.1924 -0.3911  0.1948
 6314TIP3    H143137   0.442   0.065  10.671 -0.1568  1.2182  0.5126
 6314TIP3    H243138   0.310   0.122  10.623 -1.0635 -0.8641  0.4394
 6315TIP3   OH243139   2.581   0.887   9.423  0.4557 -0.5445 -0.4814
 6315TIP3    H143140   2.643   0.959   9.420  0.6917 -0.7080  0.2603
 6315TIP3    H243141   2.588   0.853   9.512  0.3255 -1.4646 -0.8085
 6316TIP3   OH243142   6.656   6.460   9.541  0.1439 -0.4010  0.5109
 6316TIP3    H143143   6.696   6.462   9.628  1.9296 -1.2249 -0.2388
 6316TIP3    H243144   6.697   6.533   9.494 -0.2301 -0.4373  0.1243
 6317TIP3   OH243145   3.228   0.034   9.555 -0.2901  0.0648  0.4149
 6317TIP3    H143146   3.162  -0.032   9.532  1.0755 -1.7942  1.5388
 6317TIP3    H243147   3.209   0.107   9.496 -1.2126 -1.7403 -1.7181
 6318TIP3   OH243148   3.783   5.546   8.840  0.6974  0.4573  0.6792
 6318TIP3    H143149   3.726   5.621   8.856 -0.7736 -0.9025  2.2561
 6318TIP3    H243150   3.847   5.549   8.911 -0.5031 -0.7552  1.8631
 6319TIP3   OH243151   1.184   4.450   8.580 -0.4917  0.0006 -0.1338
 6319TIP3    H143152   1.136   4.367   8.583 -1.1934  0.4031  2.8852
 6319TIP3    H243153   1.274   4.427   8.602 -0.6081 -0.0345  0.3202
 6320TIP3   OH243154   0.045   5.957  10.389  0.0456 -0.2381 -0.2093
 6320TIP3    H143155   0.051   5.864  10.413  0.4311  0.0879  0.9763
 6320TIP3    H243156  -0.002   5.998  10.461 -2.1144  0.1459 -1.7406
 6321TIP3   OH243157   4.600   6.467   9.791 -0.4815  0.4259  0.2210
 6321TIP3    H143158   4.682   6.517   9.790 -0.8568  1.0786  1.2001
 6321TIP3    H243159   4.622   6.386   9.837  0.6126 -1.2466 -2.9516
 6322TIP3   OH243160   1.043   0.168   8.719  0.1771 -0.2578 -0.5899
 6322TIP3    H143161   1.085   0.146   8.803 -0.1519 -0.1013 -0.3810
 6322TIP3    H243162   0.955   0.132   8.727  0.1981 -0.3948 -0.9429
 6323TIP3   OH243163   1.682   6.662  10.039 -0.3364  0.4647 -0.1384
 6323TIP3    H143164   1.637   6.737  10.000  1.4270  1.1903 -0.9260
 6323TIP3    H243165   1.710   6.610   9.963 -1.0445 -0.6989  0.3825
 6324TIP3   OH243166   3.398   6.397   9.439 -0.3393  0.3995 -0.0185
 6324TIP3    H143167   3.439   6.324   9.393  0.5125  0.8318  0.0398
 6324TIP3    H243168   3.401   6.470   9.376 -1.0671  0.4234 -0.0304
 6325TIP3   OH243169   3.081   3.889   8.526 -0.2655  0.0528  0.3408
 6325TIP3    H143170   3.108   3.929   8.608  1.4014  0.6589 -0.4579
 6325TIP3    H243171   3.031   3.957   8.480  0.7024  0.4900 -0.0825
 6326TIP3   OH243172   0.302   5.114   8.461  0.6628 -0.4209 -0.3705
 6326TIP3    H143173   0.354   5.126   8.540  1.5119  0.1617 -0.9952
 6326TIP3    H243174   0.318   5.023   8.435  0.5819 -0.5365 -0.0149
 6327TIP3   OH243175   4.879   2.519   8.888  0.2143  0.1661 -0.1842
 6327TIP3    H143176   4.845   2.603   8.857  2.2238  0.4981 -1.6979
 6327TIP3    H243177   4.830   2.453   8.838  0.0523  0.5224 -0.5004
 6328TIP3   OH243178   4.702   6.246   9.942 -0.5331 -0.0429 -0.0601
 6328TIP3    H143179   4.784   6.201   9.957 -1.0066 -0.9991 -0.2715
 6328TIP3    H243180   4.676   6.279  10.028 -1.4409 -2.3817  0.6317
 6329TIP3   OH243181   2.992   5.929  10.729 -0.2913  0.3293 -0.3724
 6329TIP3    H143182   2.911   5.893  10.765 -1.0219  1.6671 -0.6190
 6329TIP3    H243183   3.014   5.870  10.656  0.3153 -1.4481  1.1496
 6330TIP3   OH243184   0.445   1.647  10.091  0.5169  0.2174  0.2139
 6330TIP3    H143185   0.470   1.670  10.180 -2.7026  0.8410  1.0752
 6330TIP3    H243186   0.493   1.709  10.036  1.9726  0.3139  1.5251
 6331TIP3   OH243187   0.060   0.701  10.502 -0.4246 -0.0684 -0.2205
 6331TIP3    H143188   0.037   0.677  10.592 -0.0124  0.0368 -0.0858
 6331TIP3    H243189   0.119   0.631  10.474 -1.0929 -0.4721 -0.6509
 6332TIP3   OH243190   0.294   0.102   9.573 -0.1397  0.3066 -0.0966
 6332TIP3    H143191   0.373   0.156   9.571 -1.0162  1.8567  2.1347
 6332TIP3    H243192   0.271   0.088   9.481  2.2191  0.5273 -0.7804
 6333TIP3   OH243193   2.143   2.277   9.282  0.1652  0.1837  0.1297
 6333TIP3    H143194   2.117   2.236   9.199 -0.4180  0.9212 -0.0571
 6333TIP3    H243195   2.149   2.203   9.343 -3.1000 -0.0555  0.3847
 6334TIP3   OH243196   5.967   6.098   8.466  0.6334 -0.2671  0.0179
 6334TIP3    H143197   6.025   6.050   8.525 -0.7636  0.9154  2.4958
 6334TIP3    H243198   6.013   6.181   8.449  0.5778 -0.1800  0.2943
 6335TIP3   OH243199   1.196   0.959  10.883 -0.0128  0.1854  0.4778
 6335TIP3    H143200   1.111   0.923  10.909  0.1304  0.6411  1.6165
 6335TIP3    H243201   1.177   1.050  10.860  0.0818  0.1288  0.1620
 6336TIP3   OH243202   5.113   5.845  10.072  0.1108 -0.1171 -0.2800
 6336TIP3    H143203   5.195   5.796  10.073  0.0688 -0.2531 -1.6116
 6336TIP3    H243204   5.126   5.915  10.136  1.0061 -0.5375  0.0148
 6337TIP3   OH243205   4.745   0.085   8.681  0.1518  0.5563  0.5817
 6337TIP3    H143206   4.754   0.152   8.613  1.1971 -0.3565 -0.2211
 6337TIP3    H243207   4.790   0.122   8.757  2.0593  0.1925 -0.3162
 6338TIP3   OH243208   2.062   1.355   9.527  0.1034 -0.3164  0.0997
 6338TIP3    H143209   2.116   1.327   9.452  1.5662  0.7271  0.7175
 6338TIP3    H243210   2.004   1.422   9.490  0.2451 -0.3931 -0.2707
 6339TIP3   OH243211   0.754   2.143   8.729  0.2433 -0.2447 -0.1739
 6339TIP3    H143212   0.796   2.224   8.700 -0.3564  0.5637  1.1143
 6339TIP3    H243213   0.661   2.164   8.733  0.1107 -0.9064  0.4726
 6340TIP3   OH243214   0.948   6.220   8.780 -0.3510 -0.4421  0.2202
 6340TIP3    H143215   0.908   6.279   8.716 -0.5312 -1.4875 -0.6559
 6340TIP3    H243216   0.949   6.271   8.861  1.3457  1.5044 -0.9312
 6341TIP3   OH243217   4.193   4.805   8.886  0.2762  0.3613 -0.3109
 6341TIP3    H143218   4.137   4.770   8.954 -1.1801  0.4348 -1.4163
 6341TIP3    H243219   4.167   4.897   8.877  1.8204  0.9051  0.3521
 6342TIP3   OH243220   5.327   1.062  10.744 -0.1321 -0.3997  0.4091
 6342TIP3    H143221   5.251   1.071  10.802 -0.9463 -1.6520 -0.4050
 6342TIP3    H243222   5.370   0.982  10.773  1.6532  0.9241  1.6575
 6343TIP3   OH243223   0.087   5.912   8.734  0.1110  0.8145 -0.4995
 6343TIP3    H143224   0.022   5.909   8.663 -0.4288 -1.0310  0.0119
 6343TIP3    H243225   0.118   6.003   8.734 -0.5545  1.1003 -2.4668
 6344TIP3   OH243226   4.275   0.733   8.319  0.0036  0.4673  0.7227
 6344TIP3    H143227   4.333   0.764   8.389  0.7202 -0.3186  0.4949
 6344TIP3    H243228   4.334   0.696   8.254 -0.6992  0.6316 -0.0176
 6345TIP3   OH243229   3.166   5.501   8.460  0.2792 -0.2021  0.5273
 6345TIP3    H143230   3.149   5.492   8.366  2.0245 -3.0232  0.3665
 6345TIP3    H243231   3.261   5.498   8.468  0.1729 -0.0315  2.4080
 6346TIP3   OH243232   5.523   0.334   7.877  0.1963  0.0929  0.0520
 6346TIP3    H143233   5.591   0.343   7.810 -0.0040  1.1270 -0.0357
 6346TIP3    H243234   5.548   0.396   7.945  0.3242 -0.8502  0.8958
 6347TIP3   OH243235   1.418   4.965   9.956 -0.0831  0.1386  0.0808
 6347TIP3    H143236   1.466   5.012   9.888 -0.0025 -0.0931 -0.0199
 6347TIP3    H243237   1.380   4.890   9.912  0.2761 -0.2140  0.3697
 6348TIP3   OH243238   0.403   3.420  10.351 -0.3996 -0.2040  0.5432
 6348TIP3    H143239   0.455   3.443  10.428 -0.0483  1.9966 -0.2582
 6348TIP3    H243240   0.323   3.472  10.361 -0.1402  0.4810 -0.7822
 6349TIP3   OH243241   1.786   2.689   8.901 -0.4933  0.3038 -0.0544
 6349TIP3    H143242   1.810   2.633   8.827 -0.1077 -0.1312  0.3928
 6349TIP3    H243243   1.829   2.772   8.884 -1.0717  0.4750 -0.7282
 6350TIP3   OH243244   3.810   5.142   8.223 -0.1790  0.6237 -0.3549
 6350TIP3    H143245   3.774   5.212   8.169 -0.8165  1.4160  1.0380
 6350TIP3    H243246   3.864   5.187   8.288  0.2224 -0.2646 -0.0531
 6351TIP3   OH243247   4.270   2.620   8.688  0.0810 -0.1162  0.2716
 6351TIP3    H143248   4.241   2.690   8.746  1.0090  0.7113 -0.2373
 6351TIP3    H243249   4.252   2.653   8.600 -1.3221 -1.3578  0.0400
 6352TIP3   OH243250   1.699   0.494   9.083 -0.1925 -0.2134 -0.0393
 6352TIP3    H143251   1.684   0.479   8.990  0.8304  0.2286 -0.2903
 6352TIP3    H243252   1.612   0.497   9.121 -0.6049 -1.0167 -0.8824
 6353TIP3   OH243253   1.947   4.502  10.031  0.4286 -0.0966 -0.1945
 6353TIP3    H143254   1.924   4.417  10.067  1.3910 -1.3446 -2.3123
 6353TIP3    H243255   1.941   4.490   9.936 -0.5386  2.5492 -0.5520
 6354TIP3   OH243256   0.562   6.271   8.462 -0.5254 -0.0576  0.1695
 6354TIP3    H143257   0.648   6.296   8.427 -0.7240 -0.3824 -0.5774
 6354TIP3    H243258   0.582   6.211   8.533 -0.1264  0.0024  0.1130
 6355TIP3   OH243259   3.245   2.342   8.294 -0.0936  0.2477  0.5359
 6355TIP3    H143260   3.273   2.422   8.339 -0.5230 -0.4685  2.1173
 6355TIP3    H243261   3.309   2.276   8.319  1.1071  0.3663 -1.9120
 6356TIP3   OH243262   5.568   4.548  10.506  0.1338 -0.0809 -0.4313
 6356TIP3    H143263   5.569   4.498  10.425 -1.6814  0.9295 -1.1348
 6356TIP3    H243264   5.512   4.498  10.565 -0.3891  0.3118 -0.5893
 6357TIP3   OH243265   6.055   3.000   9.443 -0.0838  0.1835 -0.6690
 6357TIP3    H143266   6.091   2.914   9.422  0.7930 -0.0006  1.4233
 6357TIP3    H243267   5.989   2.982   9.511  1.6122  1.3190  1.3735
 6358TIP3   OH243268   4.851   4.436  10.203 -0.2730 -0.3752  0.1243
 6358TIP3    H143269   4.844   4.433  10.108 -0.5808 -0.4781  0.1490
 6358TIP3    H243270   4.808   4.518  10.228  0.7782  0.2071  0.0951
 6359TIP3   OH243271   3.477   0.898  10.053  0.6907  0.1292 -0.1609
 6359TIP3    H143272   3.522   0.820  10.087  0.6869 -0.3153 -1.1597
 6359TIP3    H243273   3.529   0.925   9.977  0.1943  0.5851 -0.3443
 6360TIP3   OH243274   1.441   2.650  10.194  0.0201  0.5485 -0.2810
 6360TIP3    H143275   1.536   2.648  10.193  0.0209  0.1531 -1.6480
 6360TIP3    H243276   1.414   2.559  10.188 -0.4783  0.5471  1.4650
 6361TIP3   OH243277   6.374   5.671   9.061  0.2334 -0.0346  0.1526
 6361TIP3    H143278   6.374   5.594   9.005  2.7061 -0.8012  1.1009
 6361TIP3    H243279   6.466   5.693   9.073 -0.2513  1.0920  2.5468
 6362TIP3   OH243280   1.035   2.344  10.335 -0.1865 -0.5440 -0.2622
 6362TIP3    H143281   1.063   2.433  10.357 -1.9859 -0.3895  1.8174
 6362TIP3    H243282   1.116   2.293  10.334  0.6554  0.6790  1.0313
 6363TIP3   OH243283   3.851   5.465   9.936 -0.2450 -0.5966  0.3104
 6363TIP3    H143284   3.869   5.499  10.023 -1.3475  1.1582 -0.0852
 6363TIP3    H243285   3.931   5.419   9.911  0.8331  0.5627  1.4718
 6364TIP3   OH243286   1.642   0.446   8.230 -0.2277 -0.2227  0.6577
 6364TIP3    H143287   1.723   0.402   8.202  0.5237  1.3958  0.1742
 6364TIP3    H243288   1.613   0.395   8.306  1.2667 -0.8340  0.8678
 6365TIP3   OH243289   6.483   6.171   8.976 -0.4546 -0.3329 -0.3835
 6365TIP3    H143290   6.438   6.163   8.892 -1.4571 -1.0067  0.1879
 6365TIP3    H243291   6.426   6.227   9.028 -0.4357 -0.8707  0.2233
 6366TIP3   OH243292   4.788   4.581   9.731 -0.6598  0.0972 -0.4833
 6366TIP3    H143293   4.839   4.637   9.673  0.9922  0.0405  0.8578
 6366TIP3    H243294   4.774   4.501   9.681 -0.2287  0.4632 -1.2103
 6367TIP3   OH243295   4.634   0.498   8.738 -0.1964 -0.3951 -0.3496
 6367TIP3    H143296   4.685   0.559   8.792 -0.0723  0.1926 -1.1070
 6367TIP3    H243297   4.648   0.412   8.778 -1.2885  0.1995  1.4403
 6368TIP3   OH243298   2.875   2.097   8.583 -0.0225 -0.5091  0.0237
 6368TIP3    H143299   2.899   2.173   8.636  2.6454  0.9647 -2.9474
 6368TIP3    H243300   2.789   2.118   8.548 -0.4227 -0.0561  1.2606
 6369TIP3   OH243301   0.753   4.709  10.727  0.2925  0.7058  0.0139
 6369TIP3    H143302   0.746   4.634  10.786 -1.6371  0.4771 -0.4287
 6369TIP3    H243303   0.785   4.672  10.644  2.0400  0.8673  0.5823
 6370TIP3   OH243304   0.503   6.351   7.749 -0.3052  0.1511  0.5081
 6370TIP3    H143305   0.558   6.303   7.688 -1.2220  0.0956 -0.2890
 6370TIP3    H243306   0.446   6.285   7.788 -0.1076  0.2731  1.0205
 6371TIP3   OH243307   1.757   2.649   9.578  0.2070 -0.2482 -0.0092
 6371TIP3    H143308   1.738   2.561   9.546 -0.0880 -0.5508  0.9704
 6371TIP3    H243309   1.778   2.699   9.499 -1.9852 -0.5737 -0.8574
 6372TIP3   OH243310   4.725   4.204  10.587  0.2434 -0.2688 -0.1468
 6372TIP3    H143311   4.684   4.201  10.501  0.5746 -0.6197 -0.2952
 6372TIP3    H243312   4.656   4.234  10.646 -0.2510 -0.9251 -0.3772
 6373TIP3   OH243313   1.264   4.280  10.732 -0.0167 -0.6944 -0.1357
 6373TIP3    H143314   1.201   4.346  10.761  0.4668  0.5426 -1.7494
 6373TIP3    H243315   1.217   4.231  10.664 -0.0830 -1.4833  0.4628
 6374TIP3   OH243316   5.078   1.748   8.873  0.6061 -0.0656 -0.1517
 6374TIP3    H143317   5.038   1.832   8.848  3.5398  1.0624 -1.4799
 6374TIP3    H243318   5.058   1.740   8.966 -4.8359 -0.9985 -1.0808
 6375TIP3   OH243319   2.541   0.556   9.750 -0.1380 -0.3550 -0.1005
 6375TIP3    H143320   2.598   0.528   9.822 -0.6815 -1.0187  0.0852
 6375TIP3    H243321   2.583   0.635   9.715  1.2096 -1.1642 -0.3617
 6376TIP3   OH243322   0.616   6.535   8.160  0.2698 -0.0806  0.5504
 6376TIP3    H143323   0.662   6.497   8.086  0.8927 -1.3888  1.5767
 6376TIP3    H243324   0.685   6.561   8.221 -0.2630  0.1311  1.0777
 6377TIP3   OH243325   3.826   2.920  10.360 -0.4208  0.0267  0.1301
 6377TIP3    H143326   3.782   2.944  10.441 -0.0479  0.2121  0.2788
 6377TIP3    H243327   3.838   3.002  10.313  0.2736  0.0572  0.3478
 6378TIP3   OH243328   1.649   2.426   9.986 -0.4836 -0.2946 -0.0893
 6378TIP3    H143329   1.672   2.519   9.978 -0.4047 -0.3899 -1.0965
 6378TIP3    H243330   1.565   2.426  10.031  1.0793  0.0889  3.1099
 6379TIP3   OH243331   5.206   6.516  10.762 -0.0613  0.4792  0.2857
 6379TIP3    H143332   5.229   6.490  10.672 -0.7945  0.5179  0.0772
 6379TIP3    H243333   5.173   6.435  10.802 -2.1935  1.0070 -0.3106
 6380TIP3   OH243334   2.187   3.028   8.863 -0.2541 -0.1880  0.2340
 6380TIP3    H143335   2.239   2.997   8.937 -1.8718  0.4030  1.6970
 6380TIP3    H243336   2.196   3.123   8.865  1.6671 -0.2589 -1.9128
 6381TIP3   OH243337   6.230   1.534   9.940 -0.0426 -0.5382  0.0791
 6381TIP3    H143338   6.155   1.590   9.955  0.5441  0.1467  0.5256
 6381TIP3    H243339   6.269   1.522  10.026 -0.0067 -1.4181 -0.0543
 6382TIP3   OH243340   6.139   6.009  10.156  0.0270 -0.3497  0.3940
 6382TIP3    H143341   6.118   6.086  10.209  1.4248  1.2802 -1.2459
 6382TIP3    H243342   6.055   5.980  10.121 -0.3694  1.6124 -0.4259
 6383TIP3   OH243343   2.336   1.300   8.693  0.4113 -0.3516 -0.1961
 6383TIP3    H143344   2.390   1.357   8.747  0.2908 -0.3632 -0.0631
 6383TIP3    H243345   2.280   1.359   8.644  0.0118 -0.3751  0.2341
 6384TIP3   OH243346   2.921   1.070   9.940  0.3817  0.0290  0.3947
 6384TIP3    H143347   2.956   0.990   9.979 -1.5426 -0.6505  0.8267
 6384TIP3    H243348   2.898   1.125  10.015 -2.0464 -0.7148  0.2784
 6385TIP3   OH243349   1.379   6.676   8.205 -0.0233  0.3255  0.0358
 6385TIP3    H143350   1.364   6.760   8.161 -0.6983  0.1500 -0.0820
 6385TIP3    H243351   1.314   6.617   8.167  1.1658 -0.5645 -0.6997
 6386TIP3   OH243352   5.229   6.672   9.193 -0.5621 -0.0822  0.0756
 6386TIP3    H143353   5.267   6.741   9.248 -0.0918 -0.6507  0.4813
 6386TIP3    H243354   5.233   6.593   9.248 -0.7801 -0.4998 -0.5033
 6387TIP3   OH243355   5.314   2.392   8.826  0.1255 -0.0425  0.4857
 6387TIP3    H143356   5.369   2.359   8.897  1.0321 -0.7575 -0.5161
 6387TIP3    H243357   5.362   2.467   8.791 -0.5543  0.6112  0.9180
 6388TIP3   OH243358   4.340   5.968   9.473  0.2048 -0.4882  0.6094
 6388TIP3    H143359   4.315   5.917   9.550  1.3767 -0.5271  0.9793
 6388TIP3    H243360   4.336   6.059   9.501 -1.2674 -0.3675  0.1300
 6389TIP3   OH243361   3.686   5.189   8.563 -0.0394 -0.7491  0.3834
 6389TIP3    H143362   3.730   5.117   8.610  1.7056 -2.9151 -4.0226
 6389TIP3    H243363   3.757   5.246   8.535 -0.0008 -2.5512 -4.0516
 6390TIP3   OH243364   4.331   4.401   8.127  0.3070 -0.2483 -0.2063
 6390TIP3    H143365   4.280   4.398   8.209 -0.6093 -0.2930 -0.7640
 6390TIP3    H243366   4.267   4.426   8.060  0.6575 -1.8856 -1.2059
 6391TIP3   OH243367   4.104   3.553   9.668  0.2243  0.0651 -0.3043
 6391TIP3    H143368   4.083   3.552   9.574  0.8947  2.1936 -0.5168
 6391TIP3    H243369   4.019   3.555   9.712 -0.1028 -1.1969 -0.8122
 6392TIP3   OH243370   5.690   0.122   9.091  0.5902  0.0193  0.0426
 6392TIP3    H143371   5.716   0.135   8.999 -0.3216  1.1478 -0.0706
 6392TIP3    H243372   5.602   0.086   9.086  1.4356 -2.2576  0.4648
 6393TIP3   OH243373   6.468   0.431   9.028 -0.6464  0.3147 -0.2192
 6393TIP3    H143374   6.494   0.339   9.035 -0.0951  0.4794 -0.0602
 6393TIP3    H243375   6.551   0.479   9.024 -0.9352  0.7628 -0.8794
 6394TIP3   OH243376   0.634   0.549   9.308  0.5965  0.2425 -0.9500
 6394TIP3    H143377   0.683   0.570   9.229  1.0342  1.3853 -0.4066
 6394TIP3    H243378   0.687   0.482   9.351  0.6398  0.0134 -1.3583
 6395TIP3   OH243379   0.838   3.346   8.808 -0.7742 -0.3031 -0.1966
 6395TIP3    H143380   0.788   3.330   8.728 -1.6875 -0.7869  0.4522
 6395TIP3    H243381   0.786   3.305   8.877  1.1519 -1.9583  0.3536
 6396TIP3   OH243382   3.081   2.268  17.383  1.0405 -0.9173 -0.1688
 6396TIP3    H143383   3.125   2.349  17.411 -0.6578  0.6080 -1.6142
 6396TIP3    H243384   3.047   2.289  17.296 -0.0759 -2.9659 -0.2778
 6397TIP3   OH243385   4.362   1.836   9.149 -0.0196  0.1881 -0.7682
 6397TIP3    H143386   4.276   1.856   9.111 -0.4832  0.8601  0.5515
 6397TIP3    H243387   4.425   1.870   9.086 -0.7366  0.0400 -1.5749
 6398TIP3   OH243388   2.424   4.473   9.017  0.6006  0.1441 -0.5450
 6398TIP3    H143389   2.399   4.392   8.974 -1.7070  0.2453  0.4492
 6398TIP3    H243390   2.498   4.449   9.073 -0.4759 -1.4670  0.2613
 6399TIP3   OH243391   1.851   0.878   8.056  0.2251 -0.6749  0.2046
 6399TIP3    H143392   1.848   0.865   8.151  0.8234  0.6213  0.4311
 6399TIP3    H243393   1.893   0.799   8.022 -0.7527 -1.5287  0.9150
 6400TIP3   OH243394   6.555   6.528   9.226 -0.3313  0.0499 -0.7843
 6400TIP3    H143395   6.639   6.482   9.224  0.1946  0.9844 -0.6437
 6400TIP3    H243396   6.564   6.592   9.297 -0.6522  1.0823 -1.6431
 6401TIP3   OH243397   6.247   3.515   9.638 -0.0761  0.0961 -0.4827
 6401TIP3    H143398   6.179   3.448   9.635 -0.6585  0.6300  0.3274
 6401TIP3    H243399   6.313   3.479   9.697  1.5847 -1.4921 -3.0881
 6402TIP3   OH243400   4.842   2.425  10.528  0.5712  0.0886 -0.1299
 6402TIP3    H143401   4.841   2.518  10.507  1.7177  0.0040 -0.6262
 6402TIP3    H243402   4.769   2.413  10.590  0.7073  1.3914  0.3053
 6403TIP3   OH243403   4.841   6.651  10.573  0.4602 -0.3865 -0.0221
 6403TIP3    H143404   4.774   6.720  10.570  0.1353 -0.7183 -0.7915
 6403TIP3    H243405   4.793   6.571  10.552  0.5804 -1.0712  2.1120
 6404TIP3   OH243406   5.054   5.738  11.013 -0.2235 -0.1385  0.5049
 6404TIP3    H143407   5.022   5.785  11.089  0.4538  1.0744  0.0608
 6404TIP3    H243408   5.043   5.798  10.940  0.5306 -0.7062 -0.1042
 6405TIP3   OH243409   3.944   6.075   8.873  0.2764  0.5518 -0.4991
 6405TIP3    H143410   4.003   6.130   8.924  0.9992 -0.0101 -0.7112
 6405TIP3    H243411   3.871   6.132   8.850 -0.9276  0.4399  2.5437
 6406TIP3   OH243412   4.801   3.739   8.964  0.1721  0.0873  0.0760
 6406TIP3    H143413   4.784   3.797   8.889  0.0518  0.2102  0.1969
 6406TIP3    H243414   4.784   3.794   9.041  0.8148  0.1152  0.2014
 6407TIP3   OH243415   3.630   5.230   9.999  0.1654 -0.0964  0.2411
 6407TIP3    H143416   3.700   5.189   9.947 -0.8198 -2.2670  0.5060
 6407TIP3    H243417   3.666   5.237  10.087  1.4788  2.6672 -0.4086
 6408TIP3   OH243418   3.659   2.162   7.938  0.6597  0.4312  0.0367
 6408TIP3    H143419   3.711   2.134   7.862  0.4501  0.1506 -0.0043
 6408TIP3    H243420   3.607   2.085   7.961  3.0559 -0.6237  2.4963
 6409TIP3   OH243421   5.211   5.468   8.801 -0.2515 -0.0374  0.3933
 6409TIP3    H143422   5.229   5.374   8.795  0.8582  0.1554  0.6054
 6409TIP3    H243423   5.257   5.497   8.880  0.5873  0.9425 -0.4315
 6410TIP3   OH243424   0.931   3.601   8.782 -0.4529  0.2115  0.1929
 6410TIP3    H143425   0.888   3.517   8.793  0.3964 -0.2114  0.3505
 6410TIP3    H243426   0.974   3.617   8.866 -1.9416  1.5788  0.7371
 6411TIP3   OH243427   1.226   2.158  10.356  0.9947  0.1221 -0.1859
 6411TIP3    H143428   1.274   2.136  10.276  0.5256  0.0233 -0.4460
 6411TIP3    H243429   1.269   2.108  10.425  0.8685 -0.4583 -0.5220
 6412TIP3   OH243430   1.643   5.252   9.562 -0.8022 -0.5643 -0.3568
 6412TIP3    H143431   1.630   5.205   9.479 -1.3475 -0.1023 -0.5459
 6412TIP3    H243432   1.735   5.277   9.561 -0.9552  0.0192 -1.1513
 6413TIP3   OH243433   0.171   1.755  10.067  0.0304  0.0006  0.8405
 6413TIP3    H143434   0.139   1.746   9.977  0.0934  1.3308  0.6653
 6413TIP3    H243435   0.250   1.703  10.069 -0.6919 -1.1496  0.5196
 6414TIP3   OH243436   4.122   3.518   9.401  0.5137  0.0232  0.1882
 6414TIP3    H143437   4.146   3.552   9.315 -3.0687  0.2365 -0.8976
 6414TIP3    H243438   4.187   3.450   9.419  1.1749 -0.3004 -2.8538
 6415TIP3   OH243439   4.542   0.711  10.313  0.2020 -0.0394 -0.0117
 6415TIP3    H143440   4.469   0.650  10.328 -2.1558  2.5328 -0.4031
 6415TIP3    H243441   4.578   0.684  10.229  1.7510 -3.1761  1.4687
 6416TIP3   OH243442   5.959   2.680  10.592  0.5756  0.1761 -0.3637
 6416TIP3    H143443   5.939   2.675  10.685  2.6937  0.1381  0.1312
 6416TIP3    H243444   5.942   2.771  10.568 -1.5404 -0.1840 -0.3666
 6417TIP3   OH243445   4.385   4.466   9.010 -0.2498 -0.4827  0.2464
 6417TIP3    H143446   4.298   4.480   9.048 -0.0340  1.1967  0.1990
 6417TIP3    H243447   4.445   4.509   9.070  0.2454  0.9672 -1.2192
 6418TIP3   OH243448   4.402   3.378   8.992 -0.0981  0.2998  0.2235
 6418TIP3    H143449   4.353   3.421   8.923  0.7231 -2.0516 -1.9931
 6418TIP3    H243450   4.494   3.393   8.969  0.2148  0.5802  1.5766
 6419TIP3   OH243451   1.839   0.956  10.641  0.2211 -0.2840  0.0348
 6419TIP3    H143452   1.799   1.028  10.593  2.0495  0.5962 -0.2445
 6419TIP3    H243453   1.786   0.947  10.720 -0.9714  0.2972 -0.6724
 6420TIP3   OH243454   2.584   5.161   9.528 -0.4919  0.0006  0.1545
 6420TIP3    H143455   2.567   5.222   9.599 -1.7749 -1.1582  0.8821
 6420TIP3    H243456   2.679   5.166   9.515 -0.5185  1.9154  0.3604
 6421TIP3   OH243457   1.696   2.390  10.628  0.1508 -0.2410  0.0158
 6421TIP3    H143458   1.779   2.433  10.604  0.2238  0.5490  1.5146
 6421TIP3    H243459   1.723   2.308  10.670  0.1382 -0.2938 -0.0782
 6422TIP3   OH243460   1.670   2.446   9.181 -0.2185 -0.4780  0.3752
 6422TIP3    H143461   1.758   2.478   9.165 -0.1454 -0.4699  0.7838
 6422TIP3    H243462   1.665   2.364   9.133 -0.2996 -0.0213 -0.4092
 6423TIP3   OH243463   6.127   1.451   8.617 -0.2856  0.4011  0.7819
 6423TIP3    H143464   6.205   1.440   8.563 -1.7747 -0.3712 -1.3360
 6423TIP3    H243465   6.134   1.383   8.683  1.3003  0.9925  1.2598
 6424TIP3   OH243466   1.207   4.767   9.875  0.0058  0.3437  0.0203
 6424TIP3    H143467   1.174   4.851   9.842 -1.4493 -0.4346 -0.5963
 6424TIP3    H243468   1.203   4.708   9.800  3.5353  0.3073 -0.3110
 6425TIP3   OH243469   5.453   2.863  11.275 -0.4479 -0.2962  0.6078
 6425TIP3    H143470   5.361   2.862  11.302 -0.4454  0.5812  0.6708
 6425TIP3    H243471   5.488   2.945  11.310 -0.0829  0.1933 -0.8271
 6426TIP3   OH243472   3.183   3.296   8.178 -0.4170 -0.2820  0.1983
 6426TIP3    H143473   3.237   3.324   8.251 -0.3802 -0.3900  0.2122
 6426TIP3    H243474   3.178   3.200   8.187 -1.2456 -0.2101  0.6466
 6427TIP3   OH243475   3.642   0.934   8.456  0.1303  0.0160  0.2264
 6427TIP3    H143476   3.666   0.883   8.533 -0.9533  0.3686  0.8196
 6427TIP3    H243477   3.635   1.024   8.488 -1.3422  0.0162 -0.0197
 6428TIP3   OH243478   1.736   3.395   8.165 -0.2332 -0.5689 -0.5918
 6428TIP3    H143479   1.665   3.342   8.128 -0.0994 -1.2076  0.0326
 6428TIP3    H243480   1.745   3.363   8.255  0.1883  0.1876 -0.3580
 6429TIP3   OH243481   5.964   4.995   8.774 -0.0401  0.1893 -0.2392
 6429TIP3    H143482   5.895   5.054   8.745  1.2701  0.5684 -2.7937
 6429TIP3    H243483   6.021   5.049   8.829 -1.0995  0.1550  0.9405
 6430TIP3   OH243484   5.458   1.638   8.533 -0.7045  0.0679 -0.7932
 6430TIP3    H143485   5.387   1.597   8.582 -0.6463 -1.0951 -1.6207
 6430TIP3    H243486   5.446   1.732   8.546 -0.3511 -0.1832  1.8883
 6431TIP3   OH243487   0.694   5.609  10.642  0.2504  0.4637  0.0497
 6431TIP3    H143488   0.658   5.569  10.721 -0.4425  0.6703 -0.1553
 6431TIP3    H243489   0.687   5.703  10.657  0.2435  0.5050 -0.1999
 6432TIP3   OH243490   2.811   2.082   8.876  0.0710  0.5245 -0.5796
 6432TIP3    H143491   2.793   2.012   8.813  1.7898  0.0485 -0.5873
 6432TIP3    H243492   2.752   2.064   8.949 -1.5973  0.7988 -1.8157
 6433TIP3   OH243493   0.473   2.762  10.653 -0.8357 -0.3205 -0.3785
 6433TIP3    H143494   0.559   2.761  10.613 -0.7050  1.0233 -0.1819
 6433TIP3    H243495   0.466   2.849  10.693 -1.3191 -1.2541  1.7059
 6434TIP3   OH243496   0.477   1.064   9.185 -0.0172 -0.5279 -0.1220
 6434TIP3    H143497   0.434   1.114   9.254 -0.6700 -1.1770 -0.0331
 6434TIP3    H243498   0.447   0.974   9.200  0.5787 -0.8235 -0.6860
 6435TIP3   OH243499   1.366   3.120  11.271  0.3160  0.1211  0.0183
 6435TIP3    H143500   1.445   3.130  11.324 -1.6027  1.2348  2.9140
 6435TIP3    H243501   1.339   3.209  11.252 -0.9609 -0.2111  0.2256
 6436TIP3   OH243502   2.186   6.431   8.309 -0.0722  0.5124  0.5052
 6436TIP3    H143503   2.122   6.497   8.284 -1.6185 -0.3501  1.8777
 6436TIP3    H243504   2.243   6.475   8.372 -0.6471  0.7385  0.8755
 6437TIP3   OH243505   1.585   0.367  10.089 -0.4162 -0.0651 -0.3285
 6437TIP3    H143506   1.639   0.411  10.024  0.1911  1.4548  1.1142
 6437TIP3    H243507   1.495   0.385  10.061 -0.2438 -1.6357 -2.1031
 6438TIP3   OH243508   3.502   2.153   9.782  0.6862  0.1183  0.6809
 6438TIP3    H143509   3.528   2.227   9.726 -1.8294  0.1542 -0.5975
 6438TIP3    H243510   3.471   2.194   9.862  0.0603  0.4088  0.2979
 6439TIP3   OH243511   4.512   4.767  10.028  0.4167  0.3860  0.5719
 6439TIP3    H143512   4.605   4.791  10.035  1.0355 -1.2946 -1.0641
 6439TIP3    H243513   4.512   4.685   9.978 -1.9064 -0.1580  1.3371
 6440TIP3   OH243514   3.745   4.827   9.565  0.4296  0.2408  0.0647
 6440TIP3    H143515   3.738   4.755   9.503 -0.6919  1.3706 -1.1969
 6440TIP3    H243516   3.721   4.905   9.515  0.8282  1.3952  1.5735
 6441TIP3   OH243517   2.278   3.760  11.712 -0.6581  0.0327  0.1222
 6441TIP3    H143518   2.206   3.780  11.772 -0.3223 -0.9836  0.8994
 6441TIP3    H243519   2.354   3.753  11.768  0.2093  1.7056 -0.7630
 6442TIP3   OH243520   4.080   4.498  10.157 -0.0169  0.0191  0.7802
 6442TIP3    H143521   3.987   4.482  10.140  0.1165 -0.0829  0.1337
 6442TIP3    H243522   4.099   4.579  10.109  0.2090  0.0795  0.9738
 6443TIP3   OH243523   2.329   0.389  11.470  0.0251 -0.3545  0.1746
 6443TIP3    H143524   2.407   0.385  11.524  0.3533 -2.4227 -0.3688
 6443TIP3    H243525   2.318   0.300  11.437 -2.3076 -0.0096 -0.1358
 6444TIP3   OH243526   3.432   4.885  10.851  0.0623 -0.0807  0.1699
 6444TIP3    H143527   3.465   4.870  10.762  0.0542  2.0681 -0.2614
 6444TIP3    H243528   3.341   4.854  10.848  0.2329 -0.5344 -0.4098
 6445TIP3   OH243529   5.186   4.394  10.364 -0.3088  0.2617  0.2185
 6445TIP3    H143530   5.165   4.464  10.303  2.4366 -0.1226 -1.3505
 6445TIP3    H243531   5.210   4.440  10.445 -0.9526  0.9721  0.0205
 6446TIP3   OH243532   4.817   0.432  11.237 -0.6237 -0.0183 -0.2357
 6446TIP3    H143533   4.856   0.345  11.247 -2.9661 -1.4649 -2.3540
 6446TIP3    H243534   4.881   0.482  11.187  0.7959 -0.4763  1.0694
 6447TIP3   OH243535   2.818   0.713   9.120  0.2027 -0.0380 -0.3256
 6447TIP3    H143536   2.760   0.662   9.064 -0.7056  0.8598 -0.2361
 6447TIP3    H243537   2.902   0.715   9.073 -0.3429  0.1082 -1.3227
 6448TIP3   OH243538   1.881   6.028   7.978  0.4277 -0.1987  0.2204
 6448TIP3    H143539   1.871   6.123   7.970 -0.7320 -0.2886  0.4638
 6448TIP3    H243540   1.885   6.013   8.073 -0.2352 -0.4730  0.2045
 6449TIP3   OH243541   1.042   6.558   9.358 -0.0824  0.0971 -0.6698
 6449TIP3    H143542   1.071   6.614   9.286 -0.8105 -0.7553 -1.6637
 6449TIP3    H243543   1.075   6.471   9.335  1.9873  0.2533  1.4065
 6450TIP3   OH243544   0.428   6.260   8.144 -1.0030 -0.3586  0.4480
 6450TIP3    H143545   0.484   6.318   8.195 -1.4020  0.4260  0.0172
 6450TIP3    H243546   0.364   6.226   8.207 -0.5749 -0.5929  0.7645
 6451TIP3   OH243547   4.059   4.195   8.535  0.1617 -0.3650  0.0351
 6451TIP3    H143548   4.005   4.264   8.574  0.4211  1.2825 -2.2556
 6451TIP3    H243549   4.004   4.117   8.538 -0.9377  0.4122  0.9722
 6452TIP3   OH243550   5.169   3.906  11.438 -0.0364  0.2210 -0.0426
 6452TIP3    H143551   5.220   3.914  11.357  0.2949  2.4477  0.3142
 6452TIP3    H243552   5.233   3.875  11.502 -0.2448 -1.3180 -0.5139
 6453TIP3   OH243553   3.041   4.008   9.369  0.6344  0.1464 -0.4503
 6453TIP3    H143554   3.129   3.977   9.347  1.0634 -0.8775  2.3229
 6453TIP3    H243555   3.043   4.020   9.464 -2.4857 -0.7918 -0.1650
 6454TIP3   OH243556   2.911   1.522  10.162 -0.5482 -0.8557  0.1933
 6454TIP3    H143557   2.872   1.536  10.075  0.0663  1.2603  0.2139
 6454TIP3    H243558   2.837   1.503  10.219 -1.7264  3.1829  0.2648
 6455TIP3   OH243559   3.729   5.579   8.335  0.3136 -0.2522 -0.7549
 6455TIP3    H143560   3.715   5.485   8.326 -1.0912 -0.0256 -1.1979
 6455TIP3    H243561   3.794   5.587   8.405  0.3834 -1.5418 -0.6459
 6456TIP3   OH243562   2.386   4.339   8.257 -0.3387  0.0290  0.2750
 6456TIP3    H143563   2.293   4.322   8.273 -0.6026  0.9859 -0.1687
 6456TIP3    H243564   2.387   4.404   8.186  0.6923 -0.7990 -0.5013
 6457TIP3   OH243565   2.225   0.951   8.546 -0.2205  0.3716  0.2636
 6457TIP3    H143566   2.232   0.879   8.609  0.6152  1.2402  1.1840
 6457TIP3    H243567   2.136   0.984   8.557 -1.2691 -1.5999 -1.4254
 6458TIP3   OH243568   5.213   2.875   7.698 -0.4793 -0.5594 -0.2366
 6458TIP3    H143569   5.292   2.874   7.752 -1.5919  1.3365  1.5811
 6458TIP3    H243570   5.244   2.902   7.611  1.0553 -1.4578 -0.0140
 6459TIP3   OH243571   2.728   6.698   8.426 -0.1647 -0.1924 -0.0281
 6459TIP3    H143572   2.751   6.780   8.471 -1.2158  1.3094 -2.0624
 6459TIP3    H243573   2.659   6.660   8.480 -0.1977  0.6557  0.5458
 6460TIP3   OH243574   6.432   6.201  11.514  0.1214  0.4303 -0.1617
 6460TIP3    H143575   6.510   6.163  11.474 -0.9544 -2.7454  0.4591
 6460TIP3    H243576   6.360   6.149  11.479 -1.4973  1.7200  1.1086
 6461TIP3   OH243577   2.634   0.945   9.124  0.1785  0.0074 -0.0331
 6461TIP3    H143578   2.692   0.977   9.055 -0.0802  1.3476  0.3580
 6461TIP3    H243579   2.691   0.894   9.182  0.5942 -0.2385 -0.6545
 6462TIP3   OH243580   1.693   0.203   8.790 -0.1485  0.1882  0.2549
 6462TIP3    H143581   1.726   0.219   8.879 -0.4096  1.2994  0.1722
 6462TIP3    H243582   1.766   0.164   8.743  0.1021 -0.0821  0.8624
 6463TIP3   OH243583   6.363   4.969   8.858  0.0912 -0.1870  0.3468
 6463TIP3    H143584   6.352   4.895   8.917 -3.1335 -0.6945 -0.7067
 6463TIP3    H243585   6.398   4.931   8.777  2.0971  0.1308  0.9967
 6464TIP3   OH243586   2.636   3.431  10.451  0.2053  0.2552 -0.0055
 6464TIP3    H143587   2.592   3.347  10.454  1.1412 -0.2776 -0.6729
 6464TIP3    H243588   2.724   3.411  10.420  0.0023  1.6396 -1.6440
 6465TIP3   OH243589   5.992   6.368   8.416  0.2714  0.5355 -0.0318
 6465TIP3    H143590   6.053   6.441   8.402  0.5590  0.1535 -0.8056
 6465TIP3    H243591   5.951   6.355   8.331  0.5902 -0.5377 -0.0349
 6466TIP3   OH243592   5.351   1.032   8.813  0.2178 -0.3119 -0.0283
 6466TIP3    H143593   5.330   1.125   8.813 -1.2986 -0.6335 -0.2585
 6466TIP3    H243594   5.379   1.013   8.902 -1.3204 -0.0212  0.5382
 6467TIP3   OH243595   4.126   5.318  10.242 -0.0757  0.3037 -0.1834
 6467TIP3    H143596   4.149   5.370  10.319 -2.3157 -0.5859  1.2063
 6467TIP3    H243597   4.156   5.229  10.264  1.3439  0.4574 -1.3801
 6468TIP3   OH243598   4.371   2.427   8.463  0.4989  0.0051  0.9593
 6468TIP3    H143599   4.305   2.492   8.438  1.1684  0.5760  0.6591
 6468TIP3    H243600   4.338   2.390   8.545  0.4691  1.2434  1.5362
 6469TIP3   OH243601   0.777   3.305   9.346  0.4695  0.6574 -0.5236
 6469TIP3    H143602   0.846   3.287   9.410  0.5161  1.5605 -0.3148
 6469TIP3    H243603   0.790   3.396   9.320 -0.9217  1.0099 -0.1089
 6470TIP3   OH243604   4.433   0.046   8.901 -0.1772 -0.2256  0.3923
 6470TIP3    H143605   4.380  -0.010   8.845 -0.6503 -0.7120  1.3182
 6470TIP3    H243606   4.504  -0.010   8.932 -0.0836 -0.0370  0.5273
 6471TIP3   OH243607   2.536   4.288   9.609 -0.4637 -0.0173  0.5392
 6471TIP3    H143608   2.451   4.248   9.628 -0.6865  1.3123  2.7562
 6471TIP3    H243609   2.585   4.280   9.692  0.6728  1.3451  0.0373
 6472TIP3   OH243610   1.086   3.499  10.366  0.5623  0.3249  0.0659
 6472TIP3    H143611   1.021   3.517  10.299 -0.6064  3.8690  1.9295
 6472TIP3    H243612   1.167   3.538  10.332  0.8882 -0.9281 -0.6805
 6473TIP3   OH243613   4.453   4.107   9.861  0.7813  0.2601  0.7083
 6473TIP3    H143614   4.481   4.148   9.779 -0.2215  0.5772  0.5055
 6473TIP3    H243615   4.362   4.082   9.845  0.7791 -0.2713  1.5067
 6474TIP3   OH243616   6.028   0.593   9.313 -0.4678 -0.1679 -0.8402
 6474TIP3    H143617   6.073   0.675   9.333 -1.5745  0.0376  1.0216
 6474TIP3    H243618   6.087   0.547   9.254  0.2248  1.9051 -1.8891
 6475TIP3   OH243619   0.423   5.549   8.452 -0.1248  0.6911  0.2831
 6475TIP3    H143620   0.420   5.552   8.356  1.1220 -2.2916  0.0257
 6475TIP3    H243621   0.342   5.592   8.480  0.3286  3.2978 -1.9672
 6476TIP3   OH243622   3.414   4.298   9.158 -0.0951 -0.3205 -0.1770
 6476TIP3    H143623   3.495   4.282   9.110  1.1713  1.8115  1.1142
 6476TIP3    H243624   3.431   4.262   9.245 -1.1528 -1.2294 -0.3224
 6477TIP3   OH243625   1.293   3.943  10.741  0.3245 -0.1888 -0.5865
 6477TIP3    H143626   1.232   3.897  10.683  0.2293 -0.6367 -0.1441
 6477TIP3    H243627   1.244   4.018  10.774  0.1456 -0.3218 -0.5487
 6478TIP3   OH243628   4.816   3.003   9.412 -0.0218  0.1311  0.4851
 6478TIP3    H143629   4.744   3.059   9.441  0.2308 -0.0391  1.5059
 6478TIP3    H243630   4.826   3.022   9.319  0.0121  1.7280  0.7812
 6479TIP3   OH243631   4.558   0.932   9.790  0.1353 -0.5471  0.4238
 6479TIP3    H143632   4.650   0.907   9.800  0.3420 -0.3972 -0.8559
 6479TIP3    H243633   4.510   0.866   9.838  0.8012 -2.0790 -0.9084
 6480TIP3   OH243634   0.193   3.698   8.853  0.2032 -0.2405  0.3672
 6480TIP3    H143635   0.176   3.782   8.896 -0.3622 -0.8307  1.3194
 6480TIP3    H243636   0.175   3.632   8.920 -0.8958 -1.1916 -0.8207
 6481TIP3   OH243637   4.544   0.663   8.155 -0.1769 -0.1051 -0.1476
 6481TIP3    H143638   4.521   0.630   8.068  0.7930 -0.1171 -0.4117
 6481TIP3    H243639   4.605   0.597   8.190 -0.9162 -0.3385  0.7397
 6482TIP3   OH243640   2.808   3.191  11.040 -0.1967  0.2726  0.7944
 6482TIP3    H143641   2.732   3.213  11.095 -1.6437  0.4316 -1.1767
 6482TIP3    H243642   2.870   3.262  11.055 -0.6761  0.4687  1.9678
 6483TIP3   OH243643   2.371   3.219   8.768  0.2585 -0.0533  0.5802
 6483TIP3    H143644   2.377   3.309   8.801  1.6515 -0.1574  0.6430
 6483TIP3    H243645   2.438   3.171   8.816  0.2071 -0.9082 -0.1803
 6484TIP3   OH243646   6.277   6.526   9.363 -0.2304 -0.6074 -0.1345
 6484TIP3    H143647   6.347   6.495   9.306  1.6811  3.0497 -0.0677
 6484TIP3    H243648   6.303   6.499   9.451  0.5298 -0.2443 -0.2395
 6485TIP3   OH243649   5.220   5.781  10.647 -0.0269 -0.0417 -0.4379
 6485TIP3    H143650   5.192   5.710  10.589 -1.6454  0.8725 -0.8383
 6485TIP3    H243651   5.162   5.854  10.625  1.8696  1.5677 -0.3481
 6486TIP3   OH243652   2.932   6.595   8.872 -0.1931  0.3390  0.4591
 6486TIP3    H143653   2.875   6.526   8.836 -0.9961  0.6035  1.1770
 6486TIP3    H243654   2.990   6.618   8.800 -1.2363  0.3145 -0.4197
 6487TIP3   OH243655   3.811   2.972   9.424 -0.1412 -0.0636  0.0195
 6487TIP3    H143656   3.888   2.953   9.478  0.3529 -0.8469 -0.9242
 6487TIP3    H243657   3.751   2.899   9.441 -0.3760  0.1778  0.2207
 6488TIP3   OH243658   2.742   6.065  11.194 -0.3309 -0.1895 -0.2472
 6488TIP3    H143659   2.741   6.155  11.161 -0.0409  0.4873  1.5176
 6488TIP3    H243660   2.834   6.044  11.204 -0.4178 -0.0918  0.8532
 6489TIP3   OH243661   3.827   1.608  10.521  0.1153 -0.1208 -0.2029
 6489TIP3    H143662   3.849   1.557  10.599 -1.3604  0.4627  0.6218
 6489TIP3    H243663   3.745   1.651  10.542 -0.1581  0.3164 -1.9724
 6490TIP3   OH243664   0.769   1.345   9.711 -0.2548  0.2194  0.7913
 6490TIP3    H143665   0.678   1.335   9.682  0.0333  0.2645 -0.1605
 6490TIP3    H243666   0.802   1.255   9.716 -0.2972  0.2129  0.9652
 6491TIP3   OH243667   5.839   3.635   9.300  0.4679  0.3839 -0.1654
 6491TIP3    H143668   5.920   3.683   9.285 -0.0439  0.7901 -1.8785
 6491TIP3    H243669   5.789   3.646   9.219 -1.3533  0.2334  0.8760
 6492TIP3   OH243670   5.107   0.073  10.697 -0.1871  0.5718  0.5344
 6492TIP3    H143671   5.107   0.072  10.601  1.8675 -0.4156  0.5068
 6492TIP3    H243672   5.131   0.163  10.720  1.0630  0.3726  0.0735
 6493TIP3   OH243673   3.862   2.204   9.397 -0.4898  0.0699  0.2309
 6493TIP3    H143674   3.783   2.216   9.345  0.9795  0.9559 -1.9610
 6493TIP3    H243675   3.889   2.292   9.422  0.1447 -0.1736  0.4394
 6494TIP3   OH243676   1.268   2.095   7.853 -0.5397 -0.1667 -0.2515
 6494TIP3    H143677   1.250   2.085   7.947  0.7382  1.5298  0.2128
 6494TIP3    H243678   1.189   2.062   7.811 -1.4738 -0.2364  1.4417
 6495TIP3   OH243679   5.936   0.244   8.274  0.1171 -0.3904 -0.1675
 6495TIP3    H143680   6.021   0.273   8.240  0.9034 -2.0869  0.1856
 6495TIP3    H243681   5.947   0.245   8.369 -0.4486 -0.1191 -0.1020
 6496TIP3   OH243682   6.499   0.592  10.799  0.0614  0.3554  0.4958
 6496TIP3    H143683   6.571   0.543  10.839 -0.9864 -0.7797  1.0454
 6496TIP3    H243684   6.453   0.632  10.872  0.2184  1.2420  0.1294
 6497TIP3   OH243685   4.986   2.257  10.370  0.2400 -0.4658 -0.7519
 6497TIP3    H143686   4.987   2.166  10.401 -2.4879 -0.6583 -0.9445
 6497TIP3    H243687   4.926   2.301  10.430  1.3086  1.1791 -0.8395
 6498TIP3   OH243688   5.798   5.520   8.690 -0.3110 -0.5321 -0.1742
 6498TIP3    H143689   5.707   5.521   8.721 -0.7188  1.7791 -1.2588
 6498TIP3    H243690   5.850   5.511   8.770 -1.4219  2.5739  1.0389
 6499TIP3   OH243691   5.843   5.520  10.506  0.6515 -0.3216  0.5781
 6499TIP3    H143692   5.792   5.449  10.465  1.5215 -0.4718 -0.2793
 6499TIP3    H243693   5.844   5.498  10.599 -0.6275 -0.4489  0.5862
 6500TIP3   OH243694   6.233   4.989  10.986  0.4648  0.0237 -0.5347
 6500TIP3    H143695   6.316   5.026  10.955  0.6636  0.4058  0.4030
 6500TIP3    H243696   6.180   5.065  11.010 -0.1962 -0.2149 -1.1833
 6501TIP3   OH243697   1.126   2.406  10.659 -0.4680  0.1228  0.0721
 6501TIP3    H143698   1.059   2.345  10.626 -0.2202 -1.3164  2.0255
 6501TIP3    H243699   1.208   2.358  10.649 -0.0359  0.8809 -0.0330
 6502TIP3   OH243700   5.676   4.082   8.125 -0.4830 -0.4475 -0.0856
 6502TIP3    H143701   5.599   4.127   8.091 -1.8564 -1.1219  1.9492
 6502TIP3    H243702   5.641   4.008   8.174  1.4107 -0.3640  1.5196
 6503TIP3   OH243703   0.946   5.860   9.694  0.0852 -0.0049  0.2591
 6503TIP3    H143704   0.879   5.800   9.663  0.4990 -0.5958  0.4876
 6503TIP3    H243705   1.027   5.826   9.657  0.6800 -1.0425  2.3205
 6504TIP3   OH243706   4.775   5.288  10.694 -0.1023  0.1514 -0.4710
 6504TIP3    H143707   4.744   5.257  10.779 -1.1977  0.4510 -0.7405
 6504TIP3    H243708   4.698   5.328  10.654  0.7728  1.3921 -0.9742
 6505TIP3   OH243709   2.879   2.324   8.753  0.2789 -0.2153 -0.2572
 6505TIP3    H143710   2.891   2.390   8.821  1.7201 -0.5065 -0.2061
 6505TIP3    H243711   2.846   2.247   8.801 -2.9212  0.8442 -0.5174
 6506TIP3   OH243712   3.256   6.341   9.642 -0.3511  0.7932  0.0709
 6506TIP3    H143713   3.314   6.373   9.573  1.0011 -2.2969 -0.4078
 6506TIP3    H243714   3.195   6.282   9.597 -1.4668  1.0833  1.1243
 6507TIP3   OH243715   1.678   3.380  10.017 -0.4583  0.9554  0.3380
 6507TIP3    H143716   1.766   3.417  10.020 -0.1624  0.2233  2.4655
 6507TIP3    H243717   1.655   3.380   9.924  1.8671  0.9629 -0.3020
 6508TIP3   OH243718   0.236   4.410   8.419  0.0796 -0.0028 -0.3452
 6508TIP3    H143719   0.243   4.360   8.500 -3.4450 -0.3920 -0.1165
 6508TIP3    H243720   0.253   4.346   8.350  0.6010 -0.2754  0.0255
 6509TIP3   OH243721   0.752   4.617   9.889 -0.3689 -0.5157  0.6637
 6509TIP3    H143722   0.840   4.590   9.917 -1.4264 -3.1456  1.7701
 6509TIP3    H243723   0.753   4.604   9.794 -0.0175 -2.0409  0.8572
 6510TIP3   OH243724   0.363   5.515   7.889  0.3165 -0.1230 -0.3296
 6510TIP3    H143725   0.414   5.435   7.898  0.0180 -0.2829 -0.0662
 6510TIP3    H243726   0.278   5.487   7.856  0.8702  0.2911 -2.2124
 6511TIP3   OH243727   1.684   1.444  10.965  0.3293 -0.6087 -0.0703
 6511TIP3    H143728   1.614   1.455  10.902 -0.2703 -0.3025  0.6300
 6511TIP3    H243729   1.729   1.528  10.966  0.2235 -0.5524  0.0377
 6512TIP3   OH243730   1.008   2.776  10.599  0.0539 -0.1655  0.3809
 6512TIP3    H143731   0.983   2.859  10.560 -2.3268 -0.7217  0.5646
 6512TIP3    H243732   1.103   2.775  10.596  0.1466  2.5903  0.4525
 6513TIP3   OH243733   4.556   2.344   9.988  0.0138  0.0768 -0.1707
 6513TIP3    H143734   4.475   2.315   9.945  0.3544  0.1211 -0.8608
 6513TIP3    H243735   4.582   2.422   9.939 -1.3248  2.1417  2.1765
 6514TIP3   OH243736   1.531   6.204   7.944  0.2249 -0.2447  0.2315
 6514TIP3    H143737   1.532   6.118   7.903 -2.5803  0.1318 -0.8393
 6514TIP3    H243738   1.442   6.237   7.929  1.1912  2.8431  0.6015
 6515TIP3   OH243739   3.546   4.695   9.831 -0.4014  0.5866  0.3845
 6515TIP3    H143740   3.495   4.753   9.774 -1.1628 -0.0746  0.3660
 6515TIP3    H243741   3.618   4.749   9.862 -0.3617  1.1594 -0.6604
 6516TIP3   OH243742   4.166   4.477  10.726 -0.7033 -0.2295 -0.2785
 6516TIP3    H143743   4.129   4.464  10.639 -1.3092  1.7230 -0.3549
 6516TIP3    H243744   4.211   4.561  10.721  1.0011 -1.0193  0.7515
 6517TIP3   OH243745   2.155   2.422   8.428  0.5247 -0.3893  0.1944
 6517TIP3    H143746   2.088   2.392   8.367 -1.0569 -1.6398  2.4128
 6517TIP3    H243747   2.235   2.425   8.376 -1.1211  0.9128 -2.5096
 6518TIP3   OH243748   4.421   5.950  11.012  0.0159 -0.0341  0.3524
 6518TIP3    H143749   4.370   5.870  11.028  0.4063 -0.2958  0.2851
 6518TIP3    H243750   4.393   5.979  10.925 -0.1788 -0.0556  0.4063
 6519TIP3   OH243751   1.138   5.511   9.664 -0.6618  0.0271 -0.4967
 6519TIP3    H143752   1.150   5.590   9.611 -0.1730  0.7810  0.7070
 6519TIP3    H243753   1.217   5.505   9.717 -1.5445 -0.1654  0.8407
 6520TIP3   OH243754   3.526   1.173  10.756 -0.0061  0.2107  0.5179
 6520TIP3    H143755   3.530   1.112  10.830  0.0726 -0.1391  0.2288
 6520TIP3    H243756   3.526   1.260  10.796  0.5596  0.0346  0.9061
 6521TIP3   OH243757   3.075   5.998   8.410 -0.1252 -0.2474  0.1615
 6521TIP3    H143758   3.058   5.908   8.437  2.1567 -0.4138  1.3889
 6521TIP3    H243759   3.066   6.049   8.491 -0.1665  0.4134 -0.2534
 6522TIP3   OH243760   3.423   5.493   8.483 -0.0169 -0.1052 -0.2908
 6522TIP3    H143761   3.460   5.406   8.467  2.4714  0.4939  1.6161
 6522TIP3    H243762   3.468   5.549   8.420  0.3125  0.2252  0.2437
 6523TIP3   OH243763   1.524   4.510   8.165 -0.9288  0.2498  0.8345
 6523TIP3    H143764   1.473   4.506   8.084 -1.6189 -0.0335  1.2740
 6523TIP3    H243765   1.461   4.538   8.232 -0.5012 -0.0647  1.3814
 6524TIP3   OH243766   5.397   4.307   9.153 -0.1512 -0.0676 -0.0414
 6524TIP3    H143767   5.486   4.324   9.122 -0.3103  0.3043 -0.2978
 6524TIP3    H243768   5.362   4.241   9.092 -0.2416  0.1924 -0.2705
 6525TIP3   OH243769   5.572   1.940  11.568 -0.5062 -0.3539 -0.2919
 6525TIP3    H143770   5.572   1.970  11.659  1.9243  0.4970 -0.5000
 6525TIP3    H243771   5.654   1.973  11.532 -1.0904 -1.2600 -2.6200
 6526TIP3   OH243772   4.989   0.420   8.106  0.2245  0.5438 -0.1384
 6526TIP3    H143773   5.022   0.502   8.144  0.5647 -0.0416  0.8689
 6526TIP3    H243774   4.894   0.433   8.101  0.1551  0.6330  1.0039
 6527TIP3   OH243775   2.535   4.761   7.805  0.1019 -0.1628 -0.4040
 6527TIP3    H143776   2.598   4.820   7.846  1.1769 -2.0978  0.8991
 6527TIP3    H243777   2.537   4.784   7.712 -0.3300  2.5033  0.1902
 6528TIP3   OH243778   0.200   1.841  10.536 -0.1359 -0.2234 -0.4354
 6528TIP3    H143779   0.105   1.849  10.548  0.0301  2.0449 -0.1229
 6528TIP3    H243780   0.217   1.883  10.452  0.7397  1.0204  0.3271
 6529TIP3   OH243781   3.540   3.938   9.183 -0.5052  0.4229  0.4327
 6529TIP3    H143782   3.454   3.963   9.148 -0.8667  0.9387  1.6097
 6529TIP3    H243783   3.589   3.906   9.108 -1.0858  1.8848 -0.6075
 6530TIP3   OH243784   2.990   2.352  11.075  0.2623 -0.1064 -0.0370
 6530TIP3    H143785   2.958   2.261  11.078  0.5965 -0.2226  0.0617
 6530TIP3    H243786   2.946   2.395  11.148 -0.6394  0.0621 -0.6679
 6531TIP3   OH243787   0.921   5.793   9.379  0.4614 -0.4179 -0.1979
 6531TIP3    H143788   0.941   5.709   9.337 -2.0678 -0.7534 -0.8977
 6531TIP3    H243789   0.844   5.826   9.332  0.4882  1.5893  1.0295
 6532TIP3   OH243790   1.952   2.606  10.224 -0.2151  0.7127 -0.4127
 6532TIP3    H143791   2.004   2.655  10.289 -0.5893 -0.3626  0.7262
 6532TIP3    H243792   1.990   2.632  10.140  1.8866  0.3352  0.3380
 6533TIP3   OH243793   4.590   5.989  11.195  0.5780  0.1203  0.3289
 6533TIP3    H143794   4.665   6.030  11.152  1.7034 -1.3334  0.8265
 6533TIP3    H243795   4.527   5.974  11.124  0.9054  0.9973 -0.1676
 6534TIP3   OH243796   6.706   0.314  10.383 -0.2153  0.2643  0.4106
 6534TIP3    H143797   6.698   0.302  10.478 -0.4182  2.9862  0.8362
 6534TIP3    H243798   6.782   0.263  10.358  0.1850 -0.0518  2.1642
 6535TIP3   OH243799   4.338   5.222  10.006 -0.0590 -0.1385  0.7888
 6535TIP3    H143800   4.323   5.138  10.049  2.5001  0.0692  2.2407
 6535TIP3    H243801   4.352   5.199   9.914  0.5312 -1.2974  1.1531
 6536TIP3   OH243802   1.699   2.994   9.575  1.0881  0.6878  0.4827
 6536TIP3    H143803   1.659   3.022   9.658  2.5444  0.6678  1.2362
 6536TIP3    H243804   1.659   3.050   9.509 -0.7304  0.1307  1.0653
 6537TIP3   OH243805   4.413   1.283   8.734  0.9656 -0.6242 -0.1729
 6537TIP3    H143806   4.416   1.292   8.639  1.5109 -1.8024 -0.2839
 6537TIP3    H243807   4.464   1.204   8.752 -1.6739 -2.2304  0.8595
 6538TIP3   OH243808   3.274   2.220  10.389 -0.3159  0.5775  0.3734
 6538TIP3    H143809   3.228   2.140  10.417 -0.9829  0.4778 -0.9412
 6538TIP3    H243810   3.366   2.193  10.383 -0.0431  0.7261  2.8258
 6539TIP3   OH243811   4.731   0.344   9.169  0.1951 -0.1410  0.2028
 6539TIP3    H143812   4.700   0.254   9.179  1.6810 -0.6736  0.3053
 6539TIP3    H243813   4.756   0.371   9.257 -1.9330  1.0550  0.4853
 6540TIP3   OH243814   2.870   2.475   9.687  0.2321  0.1516 -0.4310
 6540TIP3    H143815   2.897   2.419   9.615  0.2565 -1.6921  0.9404
 6540TIP3    H243816   2.952   2.502   9.728  0.2010  0.6395 -0.6896
 6541TIP3   OH243817   5.931   4.304   9.927 -0.5272  0.5118 -0.0707
 6541TIP3    H143818   6.009   4.330   9.975 -0.8956  1.0747  0.2334
 6541TIP3    H243819   5.869   4.276   9.994 -0.7363  0.4662 -0.2807
 6542TIP3   OH243820   6.269   4.948   9.215 -0.3842 -0.2401 -0.3338
 6542TIP3    H143821   6.329   5.022   9.208 -0.6803 -0.1262 -1.9367
 6542TIP3    H243822   6.316   4.875   9.176 -0.9560 -0.3382 -0.8616
 6543TIP3   OH243823   2.798   1.848   8.054 -0.3574 -0.0733  0.2356
 6543TIP3    H143824   2.722   1.895   8.020  0.9839  1.4129 -0.8806
 6543TIP3    H243825   2.830   1.902   8.126  0.1391 -0.2427  0.1471
 6544TIP3   OH243826   5.660   2.787  10.347  0.1121 -0.8447 -0.5890
 6544TIP3    H143827   5.752   2.787  10.322  0.2569  0.6285 -0.1329
 6544TIP3    H243828   5.621   2.859  10.298 -1.0001 -1.9596 -1.4095
 6545TIP3   OH243829   3.565   3.999  11.479 -0.9186 -0.3519 -0.0958
 6545TIP3    H143830   3.613   3.980  11.560  0.4188  2.0990 -0.2246
 6545TIP3    H243831   3.559   3.915  11.434  1.4202 -1.1425  0.9472
 6546TIP3   OH243832   2.611   4.811  11.380 -0.0679 -0.2460  0.0937
 6546TIP3    H143833   2.614   4.889  11.324 -0.8449 -1.0105 -1.0543
 6546TIP3    H243834   2.662   4.835  11.457  0.7032  0.9853 -0.7668
 6547TIP3   OH243835   0.887   4.080  12.066 -0.7196 -0.2956 -0.3793
 6547TIP3    H143836   0.977   4.050  12.053 -0.3174  1.0716 -0.9525
 6547TIP3    H243837   0.837   4.000  12.083  0.5106 -1.1265 -0.5422
 6548TIP3   OH243838   2.237   1.194   7.878  0.2656  0.2213 -0.1966
 6548TIP3    H143839   2.164   1.251   7.855  0.0971  0.1897  0.2543
 6548TIP3    H243840   2.201   1.134   7.944  1.4302  2.1167  2.3402
 6549TIP3   OH243841   2.218   0.535  10.058 -0.0839 -0.1581 -0.2688
 6549TIP3    H143842   2.300   0.528  10.106 -0.3131 -0.3229  0.0994
 6549TIP3    H243843   2.242   0.516   9.967  0.4819  0.9146 -0.3482
 6550TIP3   OH243844   0.731   4.801   8.504 -0.4897  0.5531  0.1307
 6550TIP3    H143845   0.785   4.722   8.503 -0.6166  0.4459 -1.1934
 6550TIP3    H243846   0.782   4.864   8.553  0.1359 -0.0192  0.2380
 6551TIP3   OH243847   1.413   3.602   9.664 -0.2368  0.3731 -0.4657
 6551TIP3    H143848   1.428   3.582   9.572  0.5315 -0.9364 -0.0818
 6551TIP3    H243849   1.320   3.584   9.679 -0.3233  0.4252 -0.9379
 6552TIP3   OH243850   0.105   5.591   9.370 -0.2335  0.4537 -0.2248
 6552TIP3    H143851   0.027   5.547   9.403 -0.1323  0.0536 -0.5118
 6552TIP3    H243852   0.127   5.543   9.290 -1.6473  2.6064 -2.0239
 6553TIP3   OH243853   1.188   1.537   8.135  0.0611 -0.1180  0.2408
 6553TIP3    H143854   1.218   1.565   8.049  1.0622  0.0432  0.6261
 6553TIP3    H243855   1.253   1.474   8.164  0.5290  0.8890  1.4768
 6554TIP3   OH243856   2.139   6.059  11.416  0.5045 -0.4456  0.0557
 6554TIP3    H143857   2.183   6.023  11.339 -0.1592  0.1293 -0.6249
 6554TIP3    H243858   2.206   6.112  11.460  0.8424 -0.6296 -0.2330
 6555TIP3   OH243859   3.967   2.339  10.802  0.2344 -0.3870 -0.3282
 6555TIP3    H143860   3.874   2.319  10.814 -0.2512  2.1670  0.9199
 6555TIP3    H243861   3.973   2.370  10.712 -0.4952  0.9013  0.0313
 6556TIP3   OH243862   5.592   1.498  11.124 -0.2338 -0.0093  0.1174
 6556TIP3    H143863   5.560   1.436  11.189  1.1216  0.2773  1.0894
 6556TIP3    H243864   5.525   1.497  11.055 -1.7649 -0.2498  1.5410
 6557TIP3   OH243865   1.730   0.465   9.871 -0.0142 -0.1863 -0.1931
 6557TIP3    H143866   1.714   0.432   9.783  3.3731 -0.0633 -0.9930
 6557TIP3    H243867   1.804   0.525   9.860  0.2965  0.0702  2.7066
 6558TIP3   OH243868   4.948   4.664  10.541  0.7753 -0.1172 -0.3359
 6558TIP3    H143869   4.992   4.602  10.599  3.1252  0.3654 -1.4525
 6558TIP3    H243870   5.006   4.669  10.464 -0.4201  1.8587 -1.1865
 6559TIP3   OH243871   1.949   0.051   8.072 -0.5119 -0.0237 -0.9153
 6559TIP3    H143872   1.879   0.111   8.097 -0.6464 -0.8277  0.7773
 6559TIP3    H243873   2.021   0.108   8.046 -0.9298  0.8596 -0.1810
 6560TIP3   OH243874   1.868   1.543   9.430 -0.5713  0.2119  0.2512
 6560TIP3    H143875   1.900   1.619   9.477  1.3467 -1.2375  1.4050
 6560TIP3    H243876   1.772   1.551   9.434 -0.4778  3.0268 -0.5668
 6561TIP3   OH243877   2.410   1.948   8.456  0.3742  0.1409 -0.1957
 6561TIP3    H143878   2.332   2.004   8.462  0.3344 -0.0143  1.0115
 6561TIP3    H243879   2.384   1.877   8.397 -0.1331  0.5129 -0.4285
 6562TIP3   OH243880   3.621   3.381   9.058 -0.2756 -0.0044 -0.2320
 6562TIP3    H143881   3.655   3.422   8.979  2.1957 -1.3513  0.0224
 6562TIP3    H243882   3.685   3.404   9.126 -1.9803  0.5690  1.2611
 6563TIP3   OH243883   4.637   4.921   8.546  0.1840  0.8795  0.2694
 6563TIP3    H143884   4.547   4.928   8.578 -0.0818 -1.8151  0.3227
 6563TIP3    H243885   4.679   4.860   8.606  1.1944 -0.1271 -1.3912
 6564TIP3   OH243886   4.136   6.713   9.263  0.1870 -0.2745  0.1715
 6564TIP3    H143887   4.121   6.693   9.170  0.6836 -1.1780  0.2678
 6564TIP3    H243888   4.212   6.771   9.263  0.5715 -0.7683  0.0390
 6565TIP3   OH243889   2.524   2.274   9.958  0.2999 -0.6277  0.5645
 6565TIP3    H143890   2.522   2.317  10.044 -1.4716 -0.3419  0.4240
 6565TIP3    H243891   2.549   2.184   9.976 -1.8180 -1.0449  1.6402
 6566TIP3   OH243892   0.634   3.312   8.618 -0.1675  0.2396  0.4058
 6566TIP3    H143893   0.561   3.358   8.661  0.2420  1.0465  0.2464
 6566TIP3    H243894   0.593   3.234   8.581 -0.8733  0.4538  0.7005
 6567TIP3   OH243895   0.448   4.352   9.638 -0.3051 -0.1016 -0.4337
 6567TIP3    H143896   0.410   4.314   9.717  0.2004 -0.4048 -0.3341
 6567TIP3    H243897   0.539   4.322   9.638 -0.4387 -0.5500 -1.4096
 6568TIP3   OH243898   6.141   0.543   8.064 -0.3668  0.1428 -0.5149
 6568TIP3    H143899   6.053   0.558   8.100 -1.1142 -0.4667 -2.0022
 6568TIP3    H243900   6.164   0.455   8.095  0.3399  0.8360  1.0261
 6569TIP3   OH243901   3.442   4.501   9.981 -0.4402  0.3452 -0.1654
 6569TIP3    H143902   3.468   4.566   9.916 -0.3633 -0.1918 -0.6829
 6569TIP3    H243903   3.368   4.456   9.942  0.8039 -1.2772 -0.7357
 6570TIP3   OH243904   3.747   6.427   8.426 -0.2103 -0.1837 -0.8302
 6570TIP3    H143905   3.722   6.507   8.380 -0.0858  0.7166  0.6100
 6570TIP3    H243906   3.667   6.374   8.427 -1.1535  1.1821  0.7019
 6571TIP3   OH243907   6.657   2.241   9.447 -0.5051 -0.3221 -0.1591
 6571TIP3    H143908   6.606   2.160   9.451 -0.4063 -0.3828 -0.1547
 6571TIP3    H243909   6.723   2.226   9.379 -0.4824 -0.2475 -0.1546
 6572TIP3   OH243910   0.062   3.273   8.960  0.2158  0.4560  0.6812
 6572TIP3    H143911   0.030   3.362   8.943  0.3405  0.1653 -1.2787
 6572TIP3    H243912  -0.015   3.226   8.993  0.1729  1.2919  1.8138
 6573TIP3   OH243913   3.152   3.053   8.289 -0.0799 -0.2043 -0.2210
 6573TIP3    H143914   3.201   2.986   8.337  1.0853  0.3559 -0.5917
 6573TIP3    H243915   3.123   3.009   8.209  0.0571 -0.4686 -0.1270
 6574TIP3   OH243916   3.980   3.048   8.416  0.3043  0.2772  0.1839
 6574TIP3    H143917   4.014   3.040   8.505  1.5064 -0.6036 -0.3167
 6574TIP3    H243918   3.993   3.140   8.393  1.2484  0.2199  0.4461
 6575TIP3   OH243919   0.525   0.066  10.094  0.1806 -0.1788  0.0497
 6575TIP3    H143920   0.455   0.022  10.141 -2.1693  1.1986 -1.9273
 6575TIP3    H243921   0.540   0.013  10.017  0.0327  0.4500 -0.4241
 6576TIP3   OH243922   1.503   3.917   8.658  0.3618  0.2361 -0.0035
 6576TIP3    H143923   1.598   3.924   8.659  0.6124 -1.6973  3.0357
 6576TIP3    H243924   1.472   4.000   8.694  0.9780  0.4010  0.1585
 6577TIP3   OH243925   6.578   4.477  10.772 -0.0653  0.4537 -0.4236
 6577TIP3    H143926   6.646   4.458  10.708  0.0471 -1.1408  0.1180
 6577TIP3    H243927   6.620   4.536  10.835  1.1482 -1.2369  0.4154
 6578TIP3   OH243928   1.380   0.214  11.688  0.0301  0.7304  0.1354
 6578TIP3    H143929   1.423   0.269  11.622  0.5785  0.5015  0.2977
 6578TIP3    H243930   1.303   0.179  11.643  0.4137  0.5586 -0.3972
 6579TIP3   OH243931   0.301   1.856   8.965  0.0030 -0.6922 -0.9327
 6579TIP3    H143932   0.379   1.804   8.945 -0.4286 -0.7546 -2.6345
 6579TIP3    H243933   0.333   1.946   8.970  0.5163 -0.9337  0.5850
 6580TIP3   OH243934   5.114   2.419  10.198 -1.1929  0.1111  0.5607
 6580TIP3    H143935   5.062   2.361  10.255 -0.2015  0.1657  1.5542
 6580TIP3    H243936   5.172   2.465  10.258 -0.0170  0.0728 -0.5125
 6581TIP3   OH243937   0.115   6.603   7.930  0.3229 -0.1008  0.0019
 6581TIP3    H143938   0.065   6.616   8.011 -0.1177  1.7455 -0.5122
 6581TIP3    H243939   0.104   6.510   7.910 -3.3077  0.2217 -0.2955
 6582TIP3   OH243940   3.433   0.250   8.844 -0.0643 -0.0955  0.9553
 6582TIP3    H143941   3.423   0.185   8.774  0.3567  1.4789 -0.6239
 6582TIP3    H243942   3.527   0.251   8.862 -0.2464 -0.9548  2.0278
 6583TIP3   OH243943   3.398   0.610   8.429 -0.2909  0.6824 -0.1937
 6583TIP3    H143944   3.381   0.681   8.491  0.7739  0.6470  0.1623
 6583TIP3    H243945   3.482   0.574   8.456  0.1779  0.6239 -1.6348
 6584TIP3   OH243946   0.952   3.703   8.261 -0.5284  0.4676  0.4660
 6584TIP3    H143947   0.942   3.668   8.350 -0.8204 -0.7520 -0.0342
 6584TIP3    H243948   0.898   3.782   8.261  0.2745  1.0672  1.6650
 6585TIP3   OH243949   0.254   2.929  10.116  0.0272 -0.2220 -0.3003
 6585TIP3    H143950   0.311   2.994  10.155  0.6891 -1.1113  0.2546
 6585TIP3    H243951   0.165   2.958  10.138  0.3204  0.4141  0.0473
 6586TIP3   OH243952   2.391   1.195  10.295 -0.3062  0.0931  0.1408
 6586TIP3    H143953   2.422   1.142  10.368  1.2690  2.3370  1.2321
 6586TIP3    H243954   2.318   1.145  10.258  0.6429 -2.4426  1.4597
 6587TIP3   OH243955   3.676   0.775  11.009  0.0815 -0.6346  0.0394
 6587TIP3    H143956   3.613   0.768  11.080 -2.2954  0.3365 -1.8331
 6587TIP3    H243957   3.681   0.869  10.990  1.5423 -0.7684 -0.3754
 6588TIP3   OH243958   2.101   4.230   7.886 -0.2484  0.3632 -0.2957
 6588TIP3    H143959   2.133   4.269   7.805  0.2889  0.7750  0.1034
 6588TIP3    H243960   2.152   4.150   7.897  0.6363  0.9965  0.3176
 6589TIP3   OH243961   6.565   2.227   9.797  0.2544  0.2328 -0.3223
 6589TIP3    H143962   6.652   2.212   9.760  0.5466  1.3812 -0.1622
 6589TIP3    H243963   6.529   2.140   9.812  1.4597 -0.2629 -0.2051
 6590TIP3   OH243964   6.375   3.236   8.866  0.0623  0.2351  0.0517
 6590TIP3    H143965   6.415   3.266   8.785  1.0684 -0.8665  0.1081
 6590TIP3    H243966   6.283   3.221   8.844  0.2240  0.3892 -0.7491
 6591TIP3   OH243967   2.423   5.605   9.616 -0.3743  0.2298  0.8664
 6591TIP3    H143968   2.471   5.528   9.585 -1.3697 -1.1126  2.4870
 6591TIP3    H243969   2.488   5.654   9.667  0.3954  0.7681 -0.5683
 6592TIP3   OH243970   0.130   3.334  10.547 -0.3262  0.1274 -0.3614
 6592TIP3    H143971   0.183   3.396  10.597  1.2569  1.5095 -3.4913
 6592TIP3    H243972   0.050   3.381  10.526  0.4179  0.8023 -1.8219
 6593TIP3   OH243973   1.767   2.187   9.821  0.3961 -0.0959  0.0395
 6593TIP3    H143974   1.833   2.253   9.800 -1.4886  1.2176 -2.2989
 6593TIP3    H243975   1.710   2.230   9.885  1.5294 -1.1120  1.8111
 6594TIP3   OH243976   6.102   5.201  11.096 -0.5172  0.0394 -0.4381
 6594TIP3    H143977   6.080   5.245  11.014  1.9343 -0.3233 -1.3908
 6594TIP3    H243978   6.073   5.262  11.164  1.3154  2.4892 -1.6731
 6595TIP3   OH243979   5.051   0.178   8.257 -0.2056 -0.3622  0.1430
 6595TIP3    H143980   4.989   0.222   8.199  0.6066  0.1832 -0.3205
 6595TIP3    H243981   5.137   0.195   8.219  0.6149  1.9827  2.6894
 6596TIP3   OH243982   0.851   3.839   8.612  0.2752  0.3582  0.8021
 6596TIP3    H143983   0.875   3.755   8.650 -2.4498 -1.7278 -1.5776
 6596TIP3    H243984   0.914   3.852   8.541  0.0152 -0.2903  0.4474
 6597TIP3   OH243985   2.057   4.473   8.825  0.3943 -0.0905  0.7351
 6597TIP3    H143986   2.144   4.495   8.858  0.3900  1.1921 -0.0533
 6597TIP3    H243987   2.045   4.530   8.749 -0.0613 -2.1038 -0.7888
 6598TIP3   OH243988   1.617   5.105   9.301  0.2835  0.4217 -0.0165
 6598TIP3    H143989   1.675   5.069   9.234  1.8048  1.3204  0.7839
 6598TIP3    H243990   1.571   5.176   9.257  1.2550  0.9885 -0.1320
 6599TIP3   OH243991   3.943   0.119   8.802  0.2209 -0.6417  0.1510
 6599TIP3    H143992   3.982   0.099   8.887  1.3595  0.2225 -0.1574
 6599TIP3    H243993   3.981   0.056   8.742 -0.2699 -0.9826  0.1868
 6600TIP3   OH243994   1.536   5.971   7.827 -0.9748 -0.1973  0.1445
 6600TIP3    H143995   1.629   5.949   7.816 -0.1072  2.1295  1.7647
 6600TIP3    H243996   1.489   5.890   7.809  1.2721 -1.1833 -1.7994
 6601TIP3   OH243997   2.665   0.188  10.833  0.4352  0.9939  0.3993
 6601TIP3    H143998   2.639   0.100  10.805  1.9380  0.4431  0.6131
 6601TIP3    H243999   2.629   0.197  10.921  1.2796  0.0949  0.8584
 6602TIP3   OH244000   1.370   0.206   8.162 -0.0001 -0.3539 -0.1905
 6602TIP3    H144001   1.317   0.268   8.111 -1.4946 -1.0511  0.4798
 6602TIP3    H244002   1.457   0.211   8.121 -0.3324  1.4142 -0.8050
 6603TIP3   OH244003   2.302   4.937   9.816 -0.1318  0.0956  0.4094
 6603TIP3    H144004   2.341   5.021   9.840 -1.0361  0.7014 -0.1803
 6603TIP3    H244005   2.355   4.907   9.742 -1.1195  1.2144 -0.7928
 6604TIP3   OH244006   4.556   3.372   8.076  0.4306 -0.7886 -0.2013
 6604TIP3    H144007   4.500   3.445   8.101  0.0565 -1.0275 -0.3325
 6604TIP3    H244008   4.497   3.310   8.033  0.9160 -0.7212 -0.9939
 6605TIP3   OH244009   6.135   3.181   8.721 -0.0476 -0.2156 -0.3252
 6605TIP3    H144010   6.085   3.221   8.650  0.2039  0.3991 -0.1671
 6605TIP3    H244011   6.124   3.087   8.709  0.7255 -0.1574 -1.7229
 6606TIP3   OH244012   5.688   5.425   8.304  0.0680  0.0514  0.1691
 6606TIP3    H144013   5.607   5.404   8.257  0.8515  1.4515 -1.9068
 6606TIP3    H244014   5.664   5.497   8.362 -0.3223 -0.0361  0.1197
 6607TIP3   OH244015   6.383   1.405   8.484  0.4822 -0.0584 -0.4784
 6607TIP3    H144016   6.423   1.336   8.537 -0.0762  0.8414  1.1699
 6607TIP3    H244017   6.413   1.387   8.395  1.1190 -1.8540  0.0632
 6608TIP3   OH244018   2.308   0.240   8.247  0.2203  0.2443 -0.0146
 6608TIP3    H144019   2.356   0.322   8.257 -1.4280  1.0123  2.4433
 6608TIP3    H244020   2.376   0.172   8.249  1.4368  1.4233  0.3640
 6609TIP3   OH244021   4.141   6.392   9.691 -0.1624  0.3365 -0.2161
 6609TIP3    H144022   4.216   6.336   9.670 -0.5663 -0.5602  0.6340
 6609TIP3    H244023   4.070   6.331   9.711 -1.1754  1.1660 -1.1213
 6610TIP3   OH244024   1.533   3.428  19.168 -0.1894 -0.1164 -0.0791
 6610TIP3    H144025   1.549   3.378  19.088 -1.0465 -0.5043 -0.0116
 6610TIP3    H244026   1.585   3.508  19.156 -2.1802  0.9801 -2.1226
 6611TIP3   OH244027   2.232   1.376   9.285 -0.1409  0.0918 -0.5397
 6611TIP3    H144028   2.298   1.445   9.287  1.1355 -1.0842  0.7624
 6611TIP3    H244029   2.270   1.308   9.229  0.3257 -1.0675  1.1004
 6612TIP3   OH244030   5.771   1.463   9.221  0.1589  0.1331 -0.0779
 6612TIP3    H144031   5.777   1.411   9.141 -0.0818  0.2017 -0.1437
 6612TIP3    H244032   5.861   1.489   9.241  0.6419 -2.3393  1.3226
 6613TIP3   OH244033   0.752   4.428   7.977 -0.0048  0.3327 -0.3362
 6613TIP3    H144034   0.761   4.428   8.073 -0.2315  0.9560 -0.3112
 6613TIP3    H244035   0.836   4.395   7.946 -0.1926 -0.5735  0.0982
 6614TIP3   OH244036   6.212   2.692   7.610  0.2325 -0.1243 -0.2757
 6614TIP3    H144037   6.168   2.613   7.577 -1.9291  0.4210  1.0847
 6614TIP3    H244038   6.141   2.747   7.644  1.9752  0.7516  2.2828
 6615TIP3   OH244039   5.740   0.406   8.877 -0.1936  0.3756  0.3101
 6615TIP3    H144040   5.802   0.382   8.946 -0.4864 -0.0329  0.4356
 6615TIP3    H244041   5.795   0.434   8.804  0.1180  1.0714  0.7949
 6616TIP3   OH244042   2.198   5.801   8.401  0.0103  0.3091  0.0383
 6616TIP3    H144043   2.205   5.717   8.356  1.4197  0.2331  0.3764
 6616TIP3    H244044   2.188   5.865   8.331 -2.4628 -0.2183 -0.1912
 6617TIP3   OH244045   1.110   0.028   8.203  0.1184 -0.2948  0.8598
 6617TIP3    H144046   1.195   0.017   8.247 -0.4354 -0.2732  1.9717
 6617TIP3    H244047   1.058   0.078   8.265 -0.3941  0.5658 -0.2397
 6618TIP3   OH244048   4.889   4.813  11.049  0.3862 -0.2804  0.3893
 6618TIP3    H144049   4.949   4.878  11.014 -2.8834  1.9387 -1.6429
 6618TIP3    H244050   4.848   4.856  11.125  0.7257 -1.4263  1.2552
 6619TIP3   OH244051   4.807   6.706  10.861 -0.1371 -0.1809  0.3618
 6619TIP3    H144052   4.775   6.646  10.928 -1.9175 -0.7536 -0.9182
 6619TIP3    H244053   4.741   6.776  10.859 -0.0677 -0.1397 -0.7419
 6620TIP3   OH244054   2.824   3.658   9.509  0.5680  0.5747  0.2679
 6620TIP3    H144055   2.847   3.681   9.419  2.8589  1.9784  1.1177
 6620TIP3    H244056   2.875   3.578   9.527 -1.2736 -0.7745 -0.1707
 6621TIP3   OH244057   3.573   5.194  10.605  0.0576 -0.7837  0.1442
 6621TIP3    H144058   3.591   5.158  10.692 -0.4645  2.5069  1.7866
 6621TIP3    H244059   3.479   5.181  10.593 -0.9908  2.9541  2.4753
 6622TIP3   OH244060   2.980   4.195   8.638 -0.1287  0.0848  0.2135
 6622TIP3    H144061   3.075   4.204   8.630 -0.3029  2.3885 -0.0034
 6622TIP3    H244062   2.956   4.132   8.570  1.2703 -1.0204  0.6888
 6623TIP3   OH244063   1.368   4.667   8.796 -0.0511 -0.3752  0.0193
 6623TIP3    H144064   1.442   4.647   8.739 -0.0647 -1.7301  0.4222
 6623TIP3    H244065   1.375   4.603   8.867 -0.8847  0.3084  0.7417
 6624TIP3   OH244066   5.411   0.064   8.752 -0.0465 -0.2987 -0.4118
 6624TIP3    H144067   5.336   0.053   8.811 -0.5373  0.4079 -0.8751
 6624TIP3    H244068   5.437  -0.025   8.730 -1.4169 -0.5875 -1.0288
 6625TIP3   OH244069   5.967   1.135  10.354  0.1637  0.2106 -0.0548
 6625TIP3    H144070   5.913   1.091  10.420 -2.3280  0.5562 -1.7355
 6625TIP3    H244071   6.044   1.079  10.345 -0.9246 -1.5421  0.8732
 6626TIP3   OH244072   5.653   0.423  10.069  0.1063 -0.1162 -0.0683
 6626TIP3    H144073   5.609   0.447   9.987 -1.0067  0.7859  0.7633
 6626TIP3    H244074   5.620   0.486  10.133  0.9509 -0.8141  1.0876
 6627TIP3   OH244075   3.142   2.929   8.045  0.1539  0.4387  0.2167
 6627TIP3    H144076   3.186   2.866   8.102  1.5948  1.1609 -0.0533
 6627TIP3    H244077   3.197   2.933   7.967 -0.4190  1.3435 -0.1545
 6628TIP3   OH244078   5.719   0.674   9.659 -0.0544 -0.2750 -0.4187
 6628TIP3    H144079   5.734   0.768   9.666  2.0155 -0.4863 -1.3718
 6628TIP3    H244080   5.794   0.634   9.703  0.8678 -1.4479 -2.8921
 6629TIP3   OH244081   1.314   2.172  10.034  0.2391 -0.0853  0.1896
 6629TIP3    H144082   1.239   2.113  10.027 -0.4068  0.8287 -1.1460
 6629TIP3    H244083   1.379   2.135   9.974  0.4953 -0.3646  0.6381
 6630TIP3   OH244084   4.621   6.078  10.726 -0.2469 -0.2418  0.1106
 6630TIP3    H144085   4.674   6.114  10.654 -1.2096  0.8699 -0.0636
 6630TIP3    H244086   4.684   6.065  10.797  0.3412  0.7216 -0.2088
 6631TIP3   OH244087   5.569   3.852   9.900 -0.1834  0.3871 -0.0931
 6631TIP3    H144088   5.490   3.872   9.850  1.1293  1.5190 -1.8464
 6631TIP3    H244089   5.538   3.833   9.988 -2.4180  0.4768 -0.8036
 6632TIP3   OH244090   4.751   5.689   9.403  0.1908 -0.4142  0.1293
 6632TIP3    H144091   4.741   5.781   9.380 -2.9125 -0.3530  1.1456
 6632TIP3    H244092   4.803   5.652   9.332  0.0639  1.7845 -1.2167
 6633TIP3   OH244093   6.065   0.267   9.889 -0.0695 -0.0905 -0.1562
 6633TIP3    H144094   6.038   0.293   9.801 -0.2458  1.7476  0.4125
 6633TIP3    H244095   6.011   0.190   9.908 -2.4015  1.3844 -0.4218
 6634TIP3   OH244096   3.199   0.980  10.137  0.3039  0.1273  0.3592
 6634TIP3    H144097   3.169   0.904  10.186  0.3456 -0.0598  0.0976
 6634TIP3    H244098   3.271   0.947  10.083 -0.2950  0.1279 -0.4685
 6635TIP3   OH244099   0.832   1.580  10.303  0.5629 -0.0042 -0.2123
 6635TIP3    H144100   0.880   1.576  10.220  1.5498 -0.9954  0.3726
 6635TIP3    H244101   0.824   1.673  10.322  0.1301  0.2432 -1.5216
 6636TIP3   OH244102   1.880   0.622   9.250  0.5707 -0.2728 -0.0387
 6636TIP3    H144103   1.847   0.580   9.171  0.4991 -1.1451  0.4439
 6636TIP3    H244104   1.838   0.575   9.322 -0.6241  1.5352  0.5158
 6637TIP3   OH244105   3.381   1.895   8.320 -0.1481 -0.2367 -0.6644
 6637TIP3    H144106   3.410   1.810   8.286 -0.4273 -0.7194  0.2795
 6637TIP3    H244107   3.293   1.906   8.283  0.6209  0.5809 -2.3864
 6638TIP3   OH244108   1.305   1.213   8.574  0.0774  0.3453 -0.2572
 6638TIP3    H144109   1.264   1.299   8.569 -0.0626  0.2265 -1.9127
 6638TIP3    H244110   1.296   1.177   8.485 -1.2788 -2.0456  0.7439
 6639TIP3   OH244111   5.576   1.174   8.291  0.4401 -0.0867  0.1736
 6639TIP3    H144112   5.550   1.146   8.202 -0.1207  0.2110  0.2374
 6639TIP3    H244113   5.523   1.119   8.349 -0.1035  0.5702  0.3087
 6640TIP3   OH244114   6.167   5.887   8.982 -0.1510  1.0979  0.3520
 6640TIP3    H144115   6.231   5.822   9.009 -0.6112 -0.8714 -2.7415
 6640TIP3    H244116   6.219   5.963   8.956  0.7650  0.4173  0.1433
 6641TIP3   OH244117   2.834   5.227   9.392  0.0444 -0.1504  0.6003
 6641TIP3    H144118   2.926   5.203   9.381  0.1405  0.1768  0.6599
 6641TIP3    H244119   2.828   5.315   9.355 -0.2635 -0.2032  0.5244
 6642TIP3   OH244120   1.847   1.665   7.796 -0.1353  0.0914  0.9149
 6642TIP3    H144121   1.823   1.737   7.737 -3.6072 -1.3813  0.2562
 6642TIP3    H244122   1.808   1.689   7.880  0.0795 -0.2895  1.1270
 6643TIP3   OH244123   1.542   2.990   8.796 -0.1638 -0.0203 -0.0602
 6643TIP3    H144124   1.461   2.941   8.790 -0.8803  1.2178 -0.7676
 6643TIP3    H244125   1.522   3.063   8.855  0.2589  0.5958 -0.6604
 6644TIP3   OH244126   6.152   5.162   9.373  0.6880 -0.2361  0.2943
 6644TIP3    H144127   6.194   5.092   9.323 -0.1654  0.3779 -1.3438
 6644TIP3    H244128   6.058   5.144   9.366  0.5194  0.2907  1.0634
 6645TIP3   OH244129   4.599   1.897   8.977  0.0613  0.0632 -0.1133
 6645TIP3    H144130   4.615   1.844   8.899 -0.5411  0.2995 -0.3933
 6645TIP3    H244131   4.630   1.984   8.954  0.6178 -0.0438  0.1909
 6646TIP3   OH244132   6.093   1.021   8.332 -0.2360 -0.3979 -0.5572
 6646TIP3    H144133   6.072   0.979   8.415  1.7208 -0.4666 -0.0502
 6646TIP3    H244134   6.023   1.084   8.318 -0.9966 -0.9218  0.7452
 6647TIP3   OH244135   0.708   4.016   8.070  0.0934 -0.0725  0.6379
 6647TIP3    H144136   0.615   4.000   8.053  0.4834 -2.5623  0.5397
 6647TIP3    H244137   0.726   3.968   8.151  1.6426 -0.9953 -0.2121
 6648TIP3   OH244138   4.884   1.426   9.037 -0.0191  0.2273 -0.2409
 6648TIP3    H144139   4.978   1.444   9.042 -0.0058 -0.0552  0.9040
 6648TIP3    H244140   4.874   1.339   9.076 -1.0425  1.4270  2.4927
 6649TIP3   OH244141   5.969   0.034   9.377  0.0015 -0.3689 -0.1317
 6649TIP3    H144142   6.051   0.048   9.425 -0.6441 -0.4975  1.0614
 6649TIP3    H244143   5.991  -0.028   9.308  1.0807  0.2129 -0.3287
 6650TIP3   OH244144   2.706   3.617  10.203 -0.8259  0.1081 -0.4094
 6650TIP3    H144145   2.738   3.527  10.194  0.6791  0.6570 -0.7641
 6650TIP3    H244146   2.622   3.607  10.248  0.3580 -1.3171  1.6582
 6651TIP3   OH244147   4.564   3.123   9.834 -0.8428  0.1288 -0.8175
 6651TIP3    H144148   4.571   3.218   9.838 -0.8451  0.0967  0.1236
 6651TIP3    H244149   4.501   3.100   9.902  1.0031 -0.7158  0.7043
 6652TIP3   OH244150   4.217   6.517  10.254 -0.1002 -0.2163 -0.1216
 6652TIP3    H144151   4.222   6.561  10.170  0.6807  1.4169  0.7454
 6652TIP3    H244152   4.128   6.482  10.258 -0.1135 -0.3846 -1.6322
 6653TIP3   OH244153   0.719   0.700  11.383 -0.2998 -0.3861 -0.0786
 6653TIP3    H144154   0.787   0.729  11.322  2.2745 -1.8473  1.8989
 6653TIP3    H244155   0.724   0.761  11.456 -1.7379 -0.0337 -0.2480
 6654TIP3   OH244156   6.650   1.221   9.951  0.4643 -0.6089  0.0213
 6654TIP3    H144157   6.638   1.143   9.897  0.3189 -0.7576  0.2645
 6654TIP3    H244158   6.686   1.188  10.033 -2.7783 -0.8965  1.4731
 6655TIP3   OH244159   5.608   3.252   9.239 -0.4039  0.0640 -0.3788
 6655TIP3    H144160   5.542   3.285   9.300 -1.7259 -0.6682 -1.3588
 6655TIP3    H244161   5.665   3.197   9.292 -0.9991  0.1599  0.3690
 6656TIP3   OH244162   5.045   0.211   8.957  0.3593  0.0489  0.1375
 6656TIP3    H144163   5.115   0.266   8.993  0.2619 -0.1481  0.6291
 6656TIP3    H244164   5.081   0.178   8.875  0.0820  1.5657 -0.6260
 6657TIP3   OH244165   3.968   6.561  10.984 -1.2181 -0.1833 -0.7071
 6657TIP3    H144166   3.915   6.561  10.905  0.0978  0.5927 -1.6377
 6657TIP3    H244167   3.965   6.471  11.016 -0.8615 -0.7931 -2.2918
 6658TIP3   OH244168   1.898   2.164   9.456 -0.0165 -0.0286  0.4382
 6658TIP3    H144169   1.870   2.185   9.367  2.2589 -2.0999 -0.9162
 6658TIP3    H244170   1.941   2.243   9.487 -0.7110  0.6764 -0.3406
 6659TIP3   OH244171   5.648   3.851   8.269  0.1080  0.2384 -0.3765
 6659TIP3    H144172   5.650   3.763   8.231  0.3383  1.0084 -2.2055
 6659TIP3    H244173   5.587   3.842   8.343 -0.4687 -1.2786 -0.9764
 6660TIP3   OH244174   2.669   6.159   9.029 -0.0333  0.1494 -0.0676
 6660TIP3    H144175   2.731   6.188   8.962 -0.9917  0.3915 -0.8826
 6660TIP3    H244176   2.658   6.236   9.086 -1.5073  1.0195 -1.4219
 6661TIP3   OH244177   4.781   1.564   9.241 -0.1226  0.2285  0.4773
 6661TIP3    H144178   4.861   1.614   9.258  0.1802 -0.8959  2.8747
 6661TIP3    H244179   4.791   1.532   9.152  0.6833  2.5330 -0.3363
 6662TIP3   OH244180   5.953   3.902   9.103 -0.5452  0.7837 -0.5082
 6662TIP3    H144181   6.026   3.955   9.071  0.7446  0.0314  1.0646
 6662TIP3    H244182   5.983   3.865   9.186 -2.2465 -0.5786 -0.4168
 6663TIP3   OH244183   2.141   3.972   9.928  0.5345 -0.0799 -0.1313
 6663TIP3    H144184   2.196   4.045   9.956  0.7468 -1.3355  3.2940
 6663TIP3    H244185   2.075   3.965   9.998 -1.7851 -0.8977 -2.2579
 6664TIP3   OH244186   3.887   1.567  10.259  0.6770  0.2798  0.0928
 6664TIP3    H144187   3.958   1.615  10.217  1.5257 -0.4045  0.7375
 6664TIP3    H244188   3.902   1.579  10.353 -1.0513  1.5722  0.2643
 6665TIP3   OH244189   4.244   1.118   7.960 -0.2287  0.1239 -0.0403
 6665TIP3    H144190   4.290   1.197   7.931  0.6896 -0.3969 -0.0337
 6665TIP3    H244191   4.155   1.148   7.979 -0.4027  0.8148 -1.7475
 6666TIP3   OH244192   2.497   6.054  11.060 -0.0475 -0.5076 -0.5430
 6666TIP3    H144193   2.468   6.051  10.969 -0.4691  0.9648 -0.4867
 6666TIP3    H244194   2.592   6.064  11.054 -0.1104 -0.0304 -0.8421
 6667TIP3   OH244195   5.174   1.851  10.452 -0.0258 -0.5358  0.1060
 6667TIP3    H144196   5.260   1.813  10.469  1.1873  0.9373 -2.2146
 6667TIP3    H244197   5.153   1.825  10.362 -1.3677  0.2917  0.1407
 6668TIP3   OH244198   5.763   5.719   9.079 -0.7420  0.0693 -0.3314
 6668TIP3    H144199   5.831   5.717   9.013  0.8859 -1.1412  1.2766
 6668TIP3    H244200   5.726   5.631   9.079  2.0889 -1.3447  2.9724
 6669TIP3   OH244201   2.631   2.844   9.870  0.8055  0.1261  0.2677
 6669TIP3    H144202   2.604   2.930   9.837 -2.4475 -1.3516 -1.4343
 6669TIP3    H244203   2.641   2.791   9.792 -1.1939 -1.9790  1.3142
 6670TIP3   OH244204   6.573   3.593   8.412  1.0067  0.1269 -0.1035
 6670TIP3    H144205   6.667   3.598   8.429  0.9601  0.5577  0.0495
 6670TIP3    H244206   6.533   3.643   8.483  0.5605 -1.2399  0.6549
 6671TIP3   OH244207   5.485   3.053  10.476  0.1825  0.5711 -0.5533
 6671TIP3    H144208   5.451   2.982  10.421 -2.0085  0.7609  0.4786
 6671TIP3    H244209   5.430   3.052  10.554 -0.4167  3.8509 -0.7928
 6672TIP3   OH244210   4.189   0.075   8.093 -0.3708  0.4608 -0.6981
 6672TIP3    H144211   4.251   0.095   8.022  0.3428  2.6486  0.4570
 6672TIP3    H244212   4.238   0.017   8.151  0.4325  1.6983 -0.0989
 6673TIP3   OH244213   0.632   6.746   9.565  0.2866 -0.0122  0.2030
 6673TIP3    H144214   0.623   6.655   9.595  0.8364  0.6103  2.4970
 6673TIP3    H244215   0.658   6.794   9.644  1.7632  1.8527 -1.3316
 6674TIP3   OH244216   6.324   4.193   9.257 -0.0188  0.2384 -0.2027
 6674TIP3    H144217   6.312   4.128   9.188 -0.5487 -0.3629  0.4349
 6674TIP3    H244218   6.316   4.277   9.212  0.4946 -0.1309 -1.0097
 6675TIP3   OH244219   1.549   3.329  10.461 -0.1583  0.0082 -0.0606
 6675TIP3    H144220   1.480   3.302  10.401 -1.3259  0.6692  0.9281
 6675TIP3    H244221   1.555   3.257  10.524 -0.9937  0.5731  0.6929
 6676TIP3   OH244222   1.851   6.271  10.119  0.3840 -0.6181 -0.0710
 6676TIP3    H144223   1.856   6.260  10.213  0.4000 -1.1130 -0.1283
 6676TIP3    H244224   1.795   6.200  10.089 -1.1265  0.5992 -0.2445
 6677TIP3   OH244225   4.199   3.937  10.671  0.2881 -0.0828  0.3645
 6677TIP3    H144226   4.135   3.957  10.739  0.0858  1.7066 -0.2805
 6677TIP3    H244227   4.149   3.893  10.603  0.1544 -0.4053  0.6675
 6678TIP3   OH244228   1.027   4.977   8.408 -0.4306 -0.3095  0.1509
 6678TIP3    H144229   0.968   4.979   8.333  0.4293 -1.4059 -0.5992
 6678TIP3    H244230   0.970   4.986   8.485 -1.2759  1.4305 -0.6213
 6679TIP3   OH244231   0.423   2.432   9.204  0.0508 -0.0668 -0.6252
 6679TIP3    H144232   0.450   2.499   9.267 -0.4570  1.2809 -1.8017
 6679TIP3    H244233   0.505   2.399   9.167  0.2748  1.0415 -1.1628
 6680TIP3   OH244234   1.217   0.885   9.917  0.5786 -0.0438  0.3100
 6680TIP3    H144235   1.247   0.931   9.838  0.3494 -0.9360 -0.3141
 6680TIP3    H244236   1.122   0.886   9.911  0.4549  1.9491  1.8094
 6681TIP3   OH244237   4.589   3.979   8.173 -0.5462  0.2833 -0.1987
 6681TIP3    H144238   4.583   4.054   8.114 -2.6885  0.5311  0.2655
 6681TIP3    H244239   4.679   3.948   8.164  0.2167  2.5427 -0.8318
 6682TIP3   OH244240   4.189   1.582  11.149  0.2983 -0.0717 -0.2408
 6682TIP3    H144241   4.173   1.648  11.216  2.0542  0.4380 -0.2876
 6682TIP3    H244242   4.280   1.596  11.122  0.2983 -1.6621 -1.1933
 6683TIP3   OH244243   1.387   5.581   9.750 -0.9756 -0.3628 -0.4583
 6683TIP3    H144244   1.434   5.534   9.681 -1.1364  2.1114 -2.3630
 6683TIP3    H244245   1.452   5.642   9.786 -1.1205 -1.0696  1.0862
 6684TIP3   OH244246   0.513   5.673   9.379 -0.4369 -0.3808 -0.2593
 6684TIP3    H144247   0.493   5.693   9.288 -0.3281  0.0977 -0.1807
 6684TIP3    H244248   0.520   5.577   9.382  0.1375 -0.3670 -0.8775
 6685TIP3   OH244249   6.431   2.249   8.762  0.2369  0.0311  0.2081
 6685TIP3    H144250   6.517   2.208   8.760  0.9036  1.3542  0.5996
 6685TIP3    H244251   6.448   2.338   8.793 -1.2858  0.2781  0.3938
 6686TIP3   OH244252   4.210   4.274  10.475 -0.2737  0.1238 -0.3741
 6686TIP3    H144253   4.278   4.242  10.535  0.5270 -2.2172 -2.3786
 6686TIP3    H244254   4.248   4.353  10.436  1.1096 -0.8532 -1.0715
 6687TIP3   OH244255   5.955   3.783   8.723  0.0392  0.1585 -0.2425
 6687TIP3    H144256   5.873   3.740   8.698 -0.7223  0.9859  0.7290
 6687TIP3    H244257   6.001   3.718   8.777 -1.0530  0.4692  1.1325
 6688TIP3   OH244258   5.818   0.238   7.798 -0.3786 -0.8718  0.0024
 6688TIP3    H144259   5.876   0.233   7.722  0.7783 -2.4776  0.9251
 6688TIP3    H244260   5.813   0.331   7.818 -1.1315 -0.3493 -2.3047
 6689TIP3   OH244261   3.009   0.411   9.056  0.5260  0.0106  0.0316
 6689TIP3    H144262   3.002   0.503   9.082 -0.4093 -0.0067 -0.1362
 6689TIP3    H244263   3.083   0.378   9.107  0.2585  0.6091  0.8378
 6690TIP3   OH244264   5.401   1.320  10.670 -0.5206  0.1272  0.0247
 6690TIP3    H144265   5.384   1.227  10.682 -2.2040  0.5075  1.0108
 6690TIP3    H244266   5.426   1.329  10.578  0.9869 -1.4311  0.2307
 6691TIP3   OH244267   0.293   2.300   9.601 -0.0527  0.0561  0.1074
 6691TIP3    H144268   0.378   2.272   9.566 -0.0591 -0.7453  0.7109
 6691TIP3    H244269   0.243   2.327   9.523 -0.2836 -2.2582 -0.6219
 6692TIP3   OH244270   5.797   3.084   8.994 -0.2203 -0.3524  0.1927
 6692TIP3    H144271   5.773   3.046   9.079 -1.3242  1.3600  0.6956
 6692TIP3    H244272   5.879   3.130   9.011  0.1570 -0.9617  0.0384
 6693TIP3   OH244273   4.460   1.847   8.549  0.3112  0.7873  0.5193
 6693TIP3    H144274   4.506   1.820   8.470 -2.7476  1.4294 -1.6657
 6693TIP3    H244275   4.472   1.942   8.553 -0.6294  0.9334  0.0390
 6694TIP3   OH244276   4.824   2.320   8.687 -0.3651 -0.0993  0.1286
 6694TIP3    H144277   4.916   2.336   8.664 -0.5336  0.9037  0.1103
 6694TIP3    H244278   4.795   2.254   8.623  0.7726 -1.6646  1.1523
 6695TIP3   OH244279   3.763   3.845   9.332  0.0652  0.0954  0.3947
 6695TIP3    H144280   3.685   3.831   9.278  0.2328  0.9004 -0.0691
 6695TIP3    H244281   3.730   3.896   9.406 -0.2681 -1.4487  1.3551
 6696TIP3   OH244282   1.975   3.937   8.997  0.2046 -0.2789 -0.4028
 6696TIP3    H144283   2.041   3.918   9.064 -1.2624 -2.1072  0.6249
 6696TIP3    H244284   2.025   3.950   8.917  1.8250 -1.7826  0.3093
 6697TIP3   OH244285   0.397   6.695   9.352  0.0389 -0.4584  0.2018
 6697TIP3    H144286   0.426   6.768   9.297 -2.0339  1.4401  1.4548
 6697TIP3    H244287   0.451   6.703   9.431  0.5260 -0.9382 -0.0803
 6698TIP3   OH244288   1.865   2.124   8.385  0.3109 -0.0032 -0.3911
 6698TIP3    H144289   1.875   2.057   8.318  5.0530  0.3550 -0.3857
 6698TIP3    H244290   1.878   2.207   8.338 -0.2496  0.5489  0.3949
 6699TIP3   OH244291   4.981   1.642   9.770 -0.7053 -0.7912 -0.3122
 6699TIP3    H144292   4.959   1.714   9.711  0.4518 -0.3567 -0.2442
 6699TIP3    H244293   4.968   1.677   9.858 -0.9891 -0.9562 -0.2865
 6700TIP3   OH244294   4.134   1.519   8.135 -0.1229  0.5993  0.1815
 6700TIP3    H144295   4.138   1.446   8.073 -0.2994  0.9790 -0.2908
 6700TIP3    H244296   4.226   1.536   8.159 -0.1637 -0.5333  1.2178
 6701TIP3   OH244297   4.589   6.017   9.750 -0.2234  0.1620  0.1764
 6701TIP3    H144298   4.662   6.079   9.757 -0.6999  0.8470 -0.7228
 6701TIP3    H244299   4.513   6.067   9.778 -0.5863 -0.0750 -0.3861
 6702TIP3   OH244300   4.749   3.591   9.855  0.3702  0.1212  0.7257
 6702TIP3    H144301   4.807   3.550   9.791 -0.2897 -0.4415  0.4802
 6702TIP3    H244302   4.715   3.669   9.810  0.6570  0.2629  0.7485
 6703TIP3   OH244303   6.418   2.609   8.793 -0.2958  0.6659 -0.8686
 6703TIP3    H144304   6.505   2.587   8.824 -1.3240 -1.1718  0.9985
 6703TIP3    H244305   6.413   2.571   8.705 -0.9219 -4.4977  1.0250
 6704TIP3   OH244306   2.370   4.457   8.565 -0.4415 -0.1384  0.4530
 6704TIP3    H144307   2.448   4.467   8.619  0.1493 -0.2776 -0.3409
 6704TIP3    H244308   2.388   4.379   8.512 -1.6335 -0.8612  1.0848
 6705TIP3   OH244309   0.070   2.532  10.213  0.0239 -0.4736  0.1010
 6705TIP3    H144310   0.023   2.478  10.150 -0.3980  0.1990 -0.1752
 6705TIP3    H244311   0.162   2.521  10.190 -0.1511  0.1195 -0.9453
 6706TIP3   OH244312   2.537   0.101   8.809 -0.0996 -0.3424  0.0152
 6706TIP3    H144313   2.452   0.144   8.805  0.5841  0.9811 -1.2044
 6706TIP3    H244314   2.589   0.156   8.867 -0.6747 -2.3967  2.6877
 6707TIP3   OH244315   5.416   0.396   9.193  0.0527  0.3526  0.2064
 6707TIP3    H144316   5.475   0.454   9.145 -1.0518  2.1005  0.8471
 6707TIP3    H244317   5.343   0.381   9.132 -0.3184  0.7882  0.5388
 6708TIP3   OH244318   1.708   3.373   8.456 -0.6095  0.4722 -0.1530
 6708TIP3    H144319   1.621   3.350   8.422  0.3035 -1.4259 -1.3531
 6708TIP3    H244320   1.764   3.301   8.428  0.6080 -0.4355  4.0190
 6709TIP3   OH244321   4.749   2.433   9.138  0.3375  0.4032 -0.1220
 6709TIP3    H144322   4.778   2.462   9.052 -1.1936  0.9702 -0.4883
 6709TIP3    H244323   4.715   2.345   9.123  2.6379 -0.6595  0.4934
 6710TIP3   OH244324   4.386   0.732   9.544  0.1288  0.6198 -0.1005
 6710TIP3    H144325   4.427   0.803   9.493 -0.2284  1.3662  0.6269
 6710TIP3    H244326   4.336   0.778   9.611 -0.6611 -0.3225 -0.0406
 6711TIP3   OH244327   3.938   6.404   9.131  0.3455  0.1347  0.1239
 6711TIP3    H144328   3.992   6.367   9.061 -0.0428 -1.9093  0.8587
 6711TIP3    H244329   3.995   6.402   9.209 -0.4302 -1.1188  0.6830
 6712TIP3   OH244330   2.479   2.486   8.678 -0.7113 -0.0354 -0.2545
 6712TIP3    H144331   2.574   2.475   8.683 -0.8094 -0.5676  0.7869
 6712TIP3    H244332   2.466   2.554   8.612  0.2509 -1.9459 -2.5901
 6713TIP3   OH244333   2.970   4.107   9.041 -0.4116  0.1966  0.1364
 6713TIP3    H144334   2.955   4.095   9.135 -0.7109  0.4684  0.1274
 6713TIP3    H244335   2.942   4.197   9.024 -3.9406 -0.9423 -0.8928
 6714TIP3   OH244336   1.157   2.613   8.718 -0.1244  0.0052  0.3203
 6714TIP3    H144337   1.171   2.630   8.625  1.4244 -3.6851 -0.2945
 6714TIP3    H244338   1.071   2.571   8.721  0.7407 -1.8796  0.1414
 6715TIP3   OH244339   2.217   6.579  10.598  0.5369 -0.5700  0.3152
 6715TIP3    H144340   2.290   6.536  10.554  0.1772  1.2523 -2.3148
 6715TIP3    H244341   2.139   6.549  10.550  0.0751  1.0682 -0.0246
 6716TIP3   OH244342   6.668   0.519  10.051  0.5739 -0.2114  0.2160
 6716TIP3    H144343   6.702   0.597  10.095 -1.2508  0.0309  1.2820
 6716TIP3    H244344   6.591   0.494  10.102 -1.3738 -0.2450 -2.5716
 6717TIP3   OH244345   2.370   4.865   8.525  0.1589  0.0416  0.0433
 6717TIP3    H144346   2.422   4.810   8.467  0.0459 -0.6510  0.5796
 6717TIP3    H244347   2.354   4.945   8.476  1.4674  0.1360 -0.2480
 6718TIP3   OH244348   4.602   1.702  10.305 -0.3402  0.3602 -0.2387
 6718TIP3    H144349   4.527   1.753  10.273 -0.9942  0.1266  0.9008
 6718TIP3    H244350   4.662   1.700  10.230 -1.7352  0.0073 -1.3926
 6719TIP3   OH244351   1.709   0.498   9.606  0.3054  0.3386  0.0012
 6719TIP3    H144352   1.736   0.587   9.581  0.3155  0.2537 -0.2981
 6719TIP3    H244353   1.703   0.451   9.523  0.5966 -0.0253  0.1864
 6720TIP3   OH244354   0.101   5.798   9.130 -0.6731  0.1466 -0.2562
 6720TIP3    H144355   0.184   5.818   9.174  0.5957 -0.1355 -2.3793
 6720TIP3    H244356   0.085   5.706   9.150 -0.0341 -0.0148 -0.4440
 6721TIP3   OH244357   5.999   4.038   8.130  0.4496 -0.4656  1.1152
 6721TIP3    H144358   6.058   4.085   8.071  0.9083 -1.0411  1.1094
 6721TIP3    H244359   5.919   4.092   8.132  0.1480 -0.7947 -0.5777
 6722TIP3   OH244360   4.191   2.767  10.107  0.3405  0.5820  0.1522
 6722TIP3    H144361   4.138   2.749  10.185 -0.9006 -0.0378 -0.8012
 6722TIP3    H244362   4.195   2.863  10.102 -0.1676  0.6326  0.5949
 6723TIP3   OH244363   0.568   6.558   9.025  0.1541 -0.2410  0.6870
 6723TIP3    H144364   0.610   6.644   9.025 -1.6909  0.7043  0.4361
 6723TIP3    H244365   0.564   6.533   8.933 -2.4738  1.0878  0.3574
 6724TIP3   OH244366   2.226   0.187   9.948  0.7511 -0.2173  0.3872
 6724TIP3    H144367   2.269   0.169  10.032  0.9633  0.2926  0.3912
 6724TIP3    H244368   2.264   0.270   9.919 -1.2964  1.0544  1.1207
 6725TIP3   OH244369   4.492   6.051   9.160  0.0308  0.2126 -0.0685
 6725TIP3    H144370   4.565   6.095   9.114 -0.3436  1.0735  0.1335
 6725TIP3    H244371   4.534   5.988   9.217  0.5780  0.0796 -0.6076
 6726TIP3   OH244372   0.182   5.389  10.546  0.0382 -0.0424 -0.1735
 6726TIP3    H144373   0.241   5.429  10.610  0.2682  0.6752 -0.8113
 6726TIP3    H244374   0.238   5.372  10.469 -0.3539 -0.3610 -0.3915
 6727TIP3   OH244375   1.854   0.037  10.305 -0.1996  0.1420  0.3818
 6727TIP3    H144376   1.839   0.040  10.210  0.7507 -0.9320  0.1606
 6727TIP3    H244377   1.819   0.119  10.338 -1.3304  0.1622 -0.7871
 6728TIP3   OH244378   5.216   0.617  10.765 -0.4502  0.6310 -0.0026
 6728TIP3    H144379   5.202   0.707  10.794 -1.2941  0.4808  0.0631
 6728TIP3    H244380   5.310   0.603  10.777 -0.3055  1.5081 -0.0326
 6729TIP3   OH244381   2.990   5.300  11.001  0.5640 -0.0999 -0.0342
 6729TIP3    H144382   3.006   5.305  11.095  0.2600  1.2418 -0.0225
 6729TIP3    H244383   2.901   5.334  10.990  0.4588 -0.5901 -0.7707
 6730TIP3   OH244384   4.743   4.404   9.513 -0.4134 -0.8262  0.3429
 6730TIP3    H144385   4.806   4.424   9.444 -0.1159 -1.4629  0.4253
 6730TIP3    H244386   4.659   4.436   9.480 -0.2922 -1.2109 -0.3550
 6731TIP3   OH244387   4.750   3.879   9.185  0.3407  0.3192  0.4772
 6731TIP3    H144388   4.736   3.973   9.172 -2.2905 -0.0038  0.3765
 6731TIP3    H244389   4.712   3.861   9.271  0.6088 -0.6935  0.3980
 6732TIP3   OH244390   1.999   6.517  11.623 -0.5935  0.2515  0.1828
 6732TIP3    H144391   1.912   6.504  11.586 -0.3818 -0.1712 -0.1772
 6732TIP3    H244392   2.058   6.471  11.563  0.2340  2.9474 -1.2183
 6733TIP3   OH244393   4.911   1.758  11.028  0.3217 -0.4307 -0.2820
 6733TIP3    H144394   4.906   1.785  10.937 -1.3543  1.1851  0.2251
 6733TIP3    H244395   4.822   1.730  11.050  0.1849  1.1014  1.3553
 6734TIP3   OH244396   5.152   0.964  10.269 -0.3475 -0.4038  0.2750
 6734TIP3    H144397   5.101   0.927  10.197 -0.4909 -1.5154  0.9320
 6734TIP3    H244398   5.151   0.897  10.337  1.2814 -0.1114  0.6374
 6735TIP3   OH244399   1.158   5.017  10.255 -0.0038 -0.2298 -0.0556
 6735TIP3    H144400   1.139   5.021  10.162 -2.1680 -0.2325  0.3398
 6735TIP3    H244401   1.254   5.013  10.260  0.2076  1.0009 -2.1990
 6736TIP3   OH244402   3.208   3.350  10.384  1.2236  0.0942 -0.1724
 6736TIP3    H144403   3.282   3.361  10.324  1.4276  0.9072  0.2103
 6736TIP3    H244404   3.147   3.292  10.337  0.8854  1.5416 -1.6240
 6737TIP3   OH244405   5.758   2.642  11.336 -0.6551  0.4445  0.3465
 6737TIP3    H144406   5.761   2.734  11.361  0.8417  0.7429 -0.8252
 6737TIP3    H244407   5.669   2.629  11.304 -0.2851  2.0625 -1.4869
 6738TIP3   OH244408   6.715   1.273  11.836  0.1453 -0.0214 -0.3594
 6738TIP3    H144409   6.710   1.283  11.741  0.7919 -0.9667 -0.5143
 6738TIP3    H244410   6.738   1.360  11.869  0.5221  0.1746 -1.1290
 6739TIP3   OH244411   0.924   6.067   7.945 -0.4154  0.1364 -0.4865
 6739TIP3    H144412   0.858   6.033   7.884 -0.4266  0.5535 -0.7136
 6739TIP3    H244413   0.874   6.121   8.007 -0.7819 -2.2362  1.4411
 6740TIP3   OH244414   3.952   3.168  10.495 -0.0842  0.3782  0.1921
 6740TIP3    H144415   3.882   3.203  10.550 -0.8497 -1.2641  0.3516
 6740TIP3    H244416   3.916   3.168  10.407  0.2726  0.8622  0.0417
 6741TIP3   OH244417   3.370   4.019  10.671 -0.1232 -0.4220 -0.4027
 6741TIP3    H144418   3.456   4.045  10.637 -0.0142 -0.5986 -0.2672
 6741TIP3    H244419   3.310   4.084  10.637  0.2527  0.4451  0.5536
 6742TIP3   OH244420   1.104   1.559   9.478 -0.4352 -0.0691 -0.4899
 6742TIP3    H144421   1.069   1.470   9.477  0.3503 -0.3984  0.2559
 6742TIP3    H244422   1.170   1.561   9.409  0.7145 -0.5767  0.5508
 6743TIP3   OH244423   0.485   4.307   7.997  0.8205  0.3418 -0.5584
 6743TIP3    H144424   0.466   4.214   8.014 -0.8967  0.9774  1.2515
 6743TIP3    H244425   0.569   4.305   7.950  1.6915 -2.0634  0.8891
 6744TIP3   OH244426   5.855   2.865   9.247  0.0549 -0.1373  0.3343
 6744TIP3    H144427   5.868   2.936   9.310 -2.0253  0.1122  0.5478
 6744TIP3    H244428   5.937   2.816   9.248  1.3588  1.9362  0.5755
 6745TIP3   OH244429   0.925   4.584  10.554 -0.2289 -0.2090  0.2663
 6745TIP3    H144430   0.917   4.537  10.472 -0.1523 -2.0884  1.2809
 6745TIP3    H244431   0.995   4.648  10.539 -0.5598 -0.1838 -1.2440
 6746TIP3   OH244432   2.407   0.005   9.768 -0.0145 -0.5477  0.5921
 6746TIP3    H144433   2.480   0.066   9.758  0.5138 -1.0248  1.4215
 6746TIP3    H244434   2.332   0.060   9.791  0.0453 -0.0426 -0.3766
 6747TIP3   OH244435   1.041   0.699   9.073  0.5809 -0.3151 -0.0651
 6747TIP3    H144436   1.045   0.656   8.987  1.9920 -2.0411  0.7893
 6747TIP3    H244437   1.121   0.751   9.077  0.9198 -0.8592  0.4796
 6748TIP3   OH244438   5.909   2.247  10.296  0.4123  0.1398 -0.1227
 6748TIP3    H144439   5.879   2.323  10.346  0.7492  1.7163 -2.1713
 6748TIP3    H244440   5.828   2.202  10.269  0.0508  1.2825 -1.0462
 6749TIP3   OH244441   1.667   4.910  10.609 -0.4851  0.1758 -0.0877
 6749TIP3    H144442   1.711   4.982  10.656 -0.6932  0.4886 -0.3724
 6749TIP3    H244443   1.700   4.916  10.520 -0.0198 -0.4805  0.0362
 6750TIP3   OH244444   1.918   2.309  10.187  0.0077 -0.3848  0.0014
 6750TIP3    H144445   1.848   2.302  10.122 -1.2189 -0.8569  1.2894
 6750TIP3    H244446   1.931   2.403  10.200  0.1813 -0.2920 -0.8259
 6751TIP3   OH244447   1.401   5.887   9.858  0.1037 -0.3086  0.0073
 6751TIP3    H144448   1.390   5.842   9.774  0.9506 -1.1819  0.3541
 6751TIP3    H244449   1.435   5.973   9.835 -1.8208  0.3193 -0.6865
 6752TIP3   OH244450   2.348   2.888  10.325  0.6117 -0.2499 -0.7652
 6752TIP3    H144451   2.431   2.879  10.372 -0.1679  0.1811  0.7714
 6752TIP3    H244452   2.371   2.935  10.244  1.7188  0.8816  0.1628
 6753TIP3   OH244453   0.531   1.057  10.241 -0.2452 -0.1517 -0.0411
 6753TIP3    H144454   0.579   1.112  10.179 -0.5090  0.2384  0.1002
 6753TIP3    H244455   0.445   1.098  10.247  0.0857  0.3930  1.3458
 6754TIP3   OH244456   2.529   6.327   7.957  0.8017 -0.5383  1.0505
 6754TIP3    H144457   2.520   6.255   7.896  0.1070  0.8157 -0.5218
 6754TIP3    H244458   2.444   6.332   8.001  0.2969  0.3096 -0.0024
 6755TIP3   OH244459   0.044   1.424   9.840 -0.1487  0.1769 -0.2550
 6755TIP3    H144460  -0.022   1.355   9.849 -0.1520  0.4049  1.8676
 6755TIP3    H244461   0.050   1.439   9.746 -0.9489 -1.9332 -0.6935
 6756TIP3   OH244462   0.833   6.340   8.358 -0.0789  0.8253 -0.1135
 6756TIP3    H144463   0.905   6.279   8.345 -1.3481 -0.3598 -2.0496
 6756TIP3    H244464   0.838   6.399   8.283 -0.3927  1.5358  0.4062
 6757TIP3   OH244465   3.375   3.370  11.415  0.1194  0.4245  0.6398
 6757TIP3    H144466   3.346   3.452  11.375  1.9870  0.9079  0.1601
 6757TIP3    H244467   3.415   3.321  11.343 -3.1970 -2.1314  0.3092
 6758TIP3   OH244468   4.333   0.499   9.383  0.3818  0.0280  0.0086
 6758TIP3    H144469   4.327   0.594   9.392 -1.4420 -0.0784  0.3233
 6758TIP3    H244470   4.352   0.485   9.290 -0.0023  0.6871 -0.1762
 6759TIP3   OH244471   6.532   5.664   8.375  0.0209  0.5015  0.6620
 6759TIP3    H144472   6.606   5.725   8.373 -0.4258  1.0712 -1.1247
 6759TIP3    H244473   6.571   5.579   8.354  0.0115  1.1146 -2.3018
 6760TIP3   OH244474   3.512   3.160   9.205  0.4964  0.0807 -0.4282
 6760TIP3    H144475   3.607   3.160   9.219  0.6155  2.1210 -0.9180
 6760TIP3    H244476   3.494   3.243   9.161 -1.4196 -0.6556 -1.1601
 6761TIP3   OH244477   2.807   5.009  10.996 -0.3575  0.0711  0.2348
 6761TIP3    H144478   2.802   5.073  11.067 -0.5132 -0.6460  0.8736
 6761TIP3    H244479   2.901   4.994  10.984 -0.3183  0.4230  0.0660
 6762TIP3   OH244480   3.343   1.197   9.788  0.2705  0.4548 -0.4711
 6762TIP3    H144481   3.327   1.103   9.791  1.0458  0.2934 -1.1661
 6762TIP3    H244482   3.343   1.224   9.880  0.3677 -0.2806 -0.2492
 6763TIP3   OH244483   6.430   0.902   7.578 -0.0512 -0.3113  0.2360
 6763TIP3    H144484   6.361   0.965   7.597  0.4862  0.0906  0.9335
 6763TIP3    H244485   6.390   0.816   7.591 -0.9264 -0.1520 -1.1761
 6764TIP3   OH244486   0.921   4.942   7.979 -0.3877 -0.1922 -0.2653
 6764TIP3    H144487   0.925   4.998   7.902  0.4796  0.4140  0.2066
 6764TIP3    H244488   0.924   5.002   8.053  1.5766 -0.8722  0.2673
 6765TIP3   OH244489   4.344   0.393   8.211  0.4234  0.2924  0.4594
 6765TIP3    H144490   4.430   0.434   8.205  1.3524 -1.7812 -1.6105
 6765TIP3    H244491   4.288   0.446   8.154  0.9568  0.2184 -0.1416
 6766TIP3   OH244492   4.187   4.703   9.762 -0.3419 -0.6076  0.0685
 6766TIP3    H144493   4.101   4.666   9.741 -0.4106 -0.3235 -0.1504
 6766TIP3    H244494   4.230   4.712   9.678 -0.2475 -0.3799  0.1402
 6767TIP3   OH244495   1.311   6.614   8.888 -0.1570 -0.3000 -0.5077
 6767TIP3    H144496   1.271   6.591   8.804  0.8154 -1.6733 -0.6399
 6767TIP3    H244497   1.328   6.530   8.930 -0.7306  0.3650  1.1423
 6768TIP3   OH244498   2.130   1.720  10.819 -0.5867  0.3273  0.1363
 6768TIP3    H144499   2.192   1.655  10.788 -2.2810 -2.3862  1.9444
 6768TIP3    H244500   2.182   1.781  10.870  0.8839 -0.4272 -0.3986
 6769TIP3   OH244501   4.342   1.263   8.288 -0.0592  0.5228 -0.2603
 6769TIP3    H144502   4.371   1.178   8.257 -0.5125  0.7781 -1.4239
 6769TIP3    H244503   4.251   1.269   8.260 -0.3493  0.9668  0.7229
 6770TIP3   OH244504   0.574   2.808  10.052  0.3316 -0.0501  0.2926
 6770TIP3    H144505   0.589   2.724  10.007 -0.0937  0.2337 -0.3998
 6770TIP3    H244506   0.572   2.873   9.982  0.5420  0.5292  0.8143
 6771TIP3   OH244507   0.965   1.281   9.452 -0.5391  0.3790 -0.0926
 6771TIP3    H144508   0.953   1.258   9.545  0.7650 -0.1391 -0.0215
 6771TIP3    H244509   1.016   1.209   9.417 -0.1325  1.0767 -0.9650
 6772TIP3   OH244510   0.694   4.243   9.652  0.4112 -0.4122 -0.1746
 6772TIP3    H144511   0.713   4.150   9.640  0.0321 -0.5314  0.1613
 6772TIP3    H244512   0.780   4.286   9.642  0.7060 -0.8618  0.3821
 6773TIP3   OH244513   2.210   1.756   9.117 -0.1851 -0.1511 -0.2732
 6773TIP3    H144514   2.225   1.697   9.190  0.3791 -1.1854 -1.1980
 6773TIP3    H244515   2.201   1.699   9.041 -3.7274  0.6701 -0.6469
 6774TIP3   OH244516   6.512   1.167   9.438 -0.0982 -0.1877  0.5335
 6774TIP3    H144517   6.494   1.260   9.455  0.2298 -0.0035 -0.0964
 6774TIP3    H244518   6.545   1.134   9.522  1.9182  0.8188  0.2053
 6775TIP3   OH244519   2.579   5.350  10.052 -0.4236  0.0429  0.5237
 6775TIP3    H144520   2.640   5.323  10.121  0.1543 -0.5245 -0.2011
 6775TIP3    H244521   2.574   5.445  10.061  1.6957  0.2862 -0.3167
 6776TIP3   OH244522   0.620   5.524   9.913 -0.3212  0.4034  0.4461
 6776TIP3    H144523   0.558   5.589   9.879 -1.0975 -0.3866  0.3025
 6776TIP3    H244524   0.589   5.505  10.001  0.1127  0.4959  0.6170
 6777TIP3   OH244525   0.619   0.328   8.476  0.1936  0.1745  0.2705
 6777TIP3    H144526   0.540   0.343   8.424  1.0082  1.0036 -0.7618
 6777TIP3    H244527   0.684   0.388   8.440  2.0482 -2.1320 -0.5107
 6778TIP3   OH244528   5.396   2.598   8.592 -0.0696 -0.3049  0.0711
 6778TIP3    H144529   5.330   2.655   8.632  0.3315 -0.3681  0.8371
 6778TIP3    H244530   5.456   2.659   8.548 -0.9079 -0.2726 -1.0847
 6779TIP3   OH244531   0.364   4.152   9.086  0.3006 -0.4215  0.1949
 6779TIP3    H144532   0.378   4.195   9.170  0.8100  0.6956 -0.4374
 6779TIP3    H244533   0.426   4.079   9.085  0.0027 -0.6962  0.9405
 6780TIP3   OH244534   2.801   1.818   8.396  0.2561 -0.3080 -0.0673
 6780TIP3    H144535   2.737   1.844   8.462  1.6258 -1.2585  1.7200
 6780TIP3    H244536   2.809   1.895   8.339 -0.5083  0.8099  1.2615
 6781TIP3   OH244537   2.977   5.042   9.072  0.0507 -0.5283 -0.3965
 6781TIP3    H144538   3.017   5.093   9.002  1.7496  0.2571  1.0522
 6781TIP3    H244539   2.956   5.106   9.140  1.2203 -1.5393  1.0131
 6782TIP3   OH244540   5.916   1.416   8.437 -0.4975  0.1310  0.3218
 6782TIP3    H144541   5.953   1.426   8.525  0.1887 -0.2757  0.0881
 6782TIP3    H244542   5.965   1.477   8.382 -1.0519  0.5213  0.2459
 6783TIP3   OH244543   5.414   6.682  10.067 -0.3521 -0.1110 -0.0360
 6783TIP3    H144544   5.464   6.729  10.134  1.0438 -1.3523 -0.1429
 6783TIP3    H244545   5.329   6.725  10.066 -0.4022 -0.0049  2.4998
 6784TIP3   OH244546   6.178   2.577   8.948 -0.3392  0.0321 -0.2093
 6784TIP3    H144547   6.170   2.505   9.010 -0.4268 -0.6243 -0.9717
 6784TIP3    H244548   6.270   2.577   8.921 -0.3070  0.2931 -0.1072
 6785TIP3   OH244549   5.456   0.738  10.455  0.3558 -0.2922  0.9549
 6785TIP3    H144550   5.504   0.821  10.458 -0.8552  0.4349  0.8747
 6785TIP3    H244551   5.365   0.762  10.473 -0.0641 -1.5705  0.6582
 6786TIP3   OH244552   4.777   3.039   9.136  0.5129 -0.0521  0.3907
 6786TIP3    H144553   4.719   3.032   9.060 -0.9950  0.7943  1.4129
 6786TIP3    H244554   4.826   3.120   9.122 -0.1938  0.4196  0.5813
 6787TIP3   OH244555   3.300   1.086   8.702 -0.2186 -0.0915 -0.1365
 6787TIP3    H144556   3.379   1.124   8.663 -0.0402 -1.2045 -0.9259
 6787TIP3    H244557   3.239   1.159   8.711  1.4485  1.1685  2.0610
 6788TIP3   OH244558   0.624   3.489  10.601  0.7162  0.7709  0.1066
 6788TIP3    H144559   0.715   3.464  10.583  1.3002  1.0504  2.2673
 6788TIP3    H244560   0.614   3.474  10.695 -1.7129  0.1185 -0.1873
 6789TIP3   OH244561   2.706   4.004   8.972  0.0672 -0.3332  0.4846
 6789TIP3    H144562   2.783   3.999   8.916 -0.1152 -2.4424  0.3295
 6789TIP3    H244563   2.735   4.056   9.047  0.8582  1.0134 -0.7125
 6790TIP3   OH244564   5.485   0.391  10.345  0.0145 -0.0392  0.4093
 6790TIP3    H144565   5.512   0.483  10.352  0.9470 -0.2672 -0.0947
 6790TIP3    H244566   5.411   0.393  10.284  0.0306  0.3703  0.3953
 6791TIP3   OH244567   6.025   5.503  10.302 -0.2391  0.2237 -0.2584
 6791TIP3    H144568   5.986   5.478  10.386 -0.1386  0.9283  0.0008
 6791TIP3    H244569   6.118   5.482  10.311 -0.3622 -0.4602 -0.4940
 6792TIP3   OH244570   6.705   1.493   8.369 -0.3263 -0.2985  0.0179
 6792TIP3    H144571   6.770   1.479   8.299 -0.8517 -1.5330 -0.2542
 6792TIP3    H244572   6.646   1.560   8.334  0.7365  0.7902  0.2401
 6793TIP3   OH244573   1.650   1.755  10.705  0.5208  0.6413  0.0991
 6793TIP3    H144574   1.607   1.693  10.646 -0.8967  0.9725  0.7247
 6793TIP3    H244575   1.684   1.824  10.648  2.6889 -0.9646 -0.6719
 6794TIP3   OH244576   1.803   4.995   9.105  0.3721 -0.2134  0.0502
 6794TIP3    H144577   1.751   5.035   9.035  0.1881 -0.5619 -0.0111
 6794TIP3    H244578   1.826   4.908   9.072  1.4751  0.1416 -0.1643
 6795TIP3   OH244579   0.868   0.162   8.353 -0.3227 -0.0565 -0.1088
 6795TIP3    H144580   0.845   0.166   8.260  1.5547  1.9310 -0.5826
 6795TIP3    H244581   0.837   0.245   8.389 -0.6356 -0.6203  0.9569
 6796TIP3   OH244582   3.309   6.688   8.434  0.1398 -0.6420 -0.0654
 6796TIP3    H144583   3.214   6.682   8.443  0.1802 -1.6423 -0.1568
 6796TIP3    H244584   3.330   6.628   8.362  0.5038  2.1723 -2.4773
 6797TIP3   OH244585   4.996   5.253  10.528  0.3011 -0.3514 -0.2765
 6797TIP3    H144586   4.976   5.163  10.503 -2.1616  0.5136 -1.8180
 6797TIP3    H244587   4.935   5.272  10.599 -0.4587  0.5999 -1.1515
 6798TIP3   OH244588   1.552   0.707  10.585  0.2984 -0.1749 -0.7548
 6798TIP3    H144589   1.634   0.731  10.541 -0.5465  1.5733 -1.4945
 6798TIP3    H244590   1.498   0.786  10.578 -0.6603 -0.5236  1.6422
 6799TIP3   OH244591   2.372   4.312  10.896  0.6377  0.2442  0.5741
 6799TIP3    H144592   2.363   4.220  10.870  1.0444 -0.1658  1.8084
 6799TIP3    H244593   2.306   4.358  10.844 -1.3708 -1.1261  1.7670
 6800TIP3   OH244594   0.519   0.358  10.856 -0.2516 -0.1754 -0.0778
 6800TIP3    H144595   0.542   0.287  10.796 -0.3081 -0.7934  0.6181
 6800TIP3    H244596   0.600   0.375  10.905 -0.4781 -0.3841  0.3772
 6801TIP3   OH244597   1.099   3.086  10.761  0.2698 -0.4207 -0.1587
 6801TIP3    H144598   1.162   3.069  10.831 -0.4951 -2.0652  0.1649
 6801TIP3    H244599   1.153   3.093  10.682  1.0433  0.4449  0.4177
 6802TIP3   OH244600   5.263   4.302   9.387 -0.4456 -0.2286  0.3337
 6802TIP3    H144601   5.293   4.292   9.296 -0.3005 -1.3530  0.4893
 6802TIP3    H244602   5.338   4.342   9.432 -0.2141 -0.4167  0.1250
 6803TIP3   OH244603   6.333   2.862   8.175 -0.5799  0.3056  0.4549
 6803TIP3    H144604   6.416   2.902   8.201 -0.2828 -0.1889  0.2899
 6803TIP3    H244605   6.306   2.913   8.098  0.7586 -0.9686 -0.9284
 6804TIP3   OH244606   2.953   1.805   9.935 -0.4239 -0.3633  0.6880
 6804TIP3    H144607   2.929   1.817   9.843 -0.8928 -1.0475  0.7093
 6804TIP3    H244608   2.896   1.734   9.965  1.6347 -2.1022  0.7356
 6805TIP3   OH244609   0.759   1.341  10.553  0.3515 -0.1869 -0.2956
 6805TIP3    H144610   0.713   1.344  10.469 -0.9125  0.4805  0.3945
 6805TIP3    H244611   0.843   1.384  10.536  0.0496  0.0715 -1.1854
 6806TIP3   OH244612   5.480   4.156  11.763  0.5018 -0.4646  0.2645
 6806TIP3    H144613   5.414   4.089  11.744 -0.7701  0.4942  1.1289
 6806TIP3    H244614   5.438   4.238  11.739  2.5143  0.0014 -2.0089
 6807TIP3   OH244615   1.180   3.703  10.557 -0.6855  0.3110 -0.2202
 6807TIP3    H144616   1.254   3.749  10.516 -0.5442  2.1183  1.8902
 6807TIP3    H244617   1.192   3.612  10.531  0.3336  1.0504 -2.7302
 6808TIP3   OH244618   5.898   3.348  10.476 -0.3894 -0.5433 -0.3623
 6808TIP3    H144619   5.854   3.280  10.425 -0.0649 -1.6299  0.7583
 6808TIP3    H244620   5.890   3.319  10.567  1.0597  0.1538  0.0157
 6809TIP3   OH244621   2.837   1.096   8.295 -0.3716 -0.0158 -1.2853
 6809TIP3    H144622   2.784   1.038   8.350  0.0805 -1.4004 -2.2607
 6809TIP3    H244623   2.789   1.102   8.212  0.1927  0.0193 -1.6167
 6810TIP3   OH244624   3.597   4.339  10.186 -0.2992 -0.1505 -0.2452
 6810TIP3    H144625   3.541   4.400  10.137 -1.3822 -0.8803  0.0321
 6810TIP3    H244626   3.642   4.289  10.119  1.1125  1.3569 -0.4898
 6811TIP3   OH244627   4.857   2.967   8.551  0.0211 -0.5050 -0.4315
 6811TIP3    H144628   4.908   2.886   8.556  1.4658  0.4488  2.7348
 6811TIP3    H244629   4.921   3.034   8.530 -0.6042  0.2235 -0.0396
 6812TIP3   OH244630   4.007   4.058  11.167  0.0333 -0.0236 -0.4123
 6812TIP3    H144631   3.927   4.058  11.116 -0.2831 -1.3010  0.0453
 6812TIP3    H244632   3.980   4.078  11.256 -0.0359 -1.9517  0.0486
 6813TIP3   OH244633   3.430   2.339   8.027  0.0632 -0.3931  0.3367
 6813TIP3    H144634   3.427   2.262   8.083 -1.5799 -1.1842 -0.7781
 6813TIP3    H244635   3.480   2.312   7.950 -0.2233 -0.2369  0.0940
 6814TIP3   OH244636   0.329   1.370   7.959  0.0867  0.5526  0.5747
 6814TIP3    H144637   0.326   1.289   7.909 -1.4150  0.0887  1.3621
 6814TIP3    H244638   0.406   1.360   8.016  0.6972  0.2840 -0.2719
 6815TIP3   OH244639   1.947   0.971   8.620 -0.2769 -0.0111 -0.3137
 6815TIP3    H144640   1.957   0.903   8.686  1.6431  0.4647 -0.0673
 6815TIP3    H244641   1.894   1.038   8.663 -0.6305 -0.5271  0.0755
 6816TIP3   OH244642   2.872   3.780  11.805 -0.2308 -0.3355 -0.6881
 6816TIP3    H144643   2.896   3.827  11.726 -0.2192  1.5404  0.3831
 6816TIP3    H244644   2.776   3.777  11.804 -0.3168  1.3739  0.1283
 6817TIP3   OH244645   0.203   3.824   9.506 -0.2919  0.3900  0.7202
 6817TIP3    H144646   0.208   3.853   9.415  0.7751 -0.7311  0.3986
 6817TIP3    H244647   0.274   3.870   9.549  1.0005 -1.1847  0.3470
 6818TIP3   OH244648   4.600   4.451  10.746  0.1718  0.6192  0.2048
 6818TIP3    H144649   4.617   4.468  10.654 -2.4252  1.8384 -0.1544
 6818TIP3    H244650   4.661   4.507  10.794  1.2067  0.3377 -0.7582
 6819TIP3   OH244651   0.433   4.279   9.381  0.3889 -0.7167 -0.2846
 6819TIP3    H144652   0.475   4.362   9.359 -1.8642  0.4800 -0.3516
 6819TIP3    H244653   0.417   4.285   9.476  0.8878 -1.4184 -0.1487
 6820TIP3   OH244654   1.099   1.003   8.289  0.6513 -0.1859  0.3206
 6820TIP3    H144655   1.071   0.915   8.312 -1.3150  0.9458  2.8728
 6820TIP3    H244656   1.063   1.019   8.202  0.7218 -1.7396 -0.0137
 6821TIP3   OH244657   5.129   2.219   9.287  0.6035  0.2189 -0.6252
 6821TIP3    H144658   5.094   2.294   9.336  2.3437  0.7172 -0.0954
 6821TIP3    H244659   5.109   2.239   9.196 -1.0905  0.1302 -0.3170
 6822TIP3   OH244660   1.065   3.973   9.675 -0.2268 -0.1181 -0.4057
 6822TIP3    H144661   1.017   3.904   9.721 -0.1097 -1.1385 -1.7729
 6822TIP3    H244662   1.032   4.054   9.713 -2.4570 -0.8084 -0.7235
 6823TIP3   OH244663   2.850   3.043   9.638 -0.1714 -0.6736 -0.2406
 6823TIP3    H144664   2.790   3.111   9.607 -1.0815 -1.3008  0.1166
 6823TIP3    H244665   2.882   3.075   9.722  0.3619 -0.1345 -0.6330
 6824TIP3   OH244666   0.901   2.069  17.071  0.3567 -0.4232 -0.0317
 6824TIP3    H144667   0.977   2.101  17.120 -0.3438 -0.4875  1.1211
 6824TIP3    H244668   0.827   2.080  17.131 -0.6351  0.0869 -1.3014
 6825TIP3   OH244669   5.998   0.336  10.718  0.5644  0.1204 -0.7814
 6825TIP3    H144670   5.996   0.422  10.761  1.3870  0.7974 -2.0383
 6825TIP3    H244671   5.920   0.336  10.662 -0.6965 -0.8969  0.8716
 6826TIP3   OH244672   4.563   2.712  11.673  0.2684 -0.2364 -0.4362
 6826TIP3    H144673   4.541   2.638  11.616 -2.2427  1.0991 -1.3796
 6826TIP3    H244674   4.497   2.709  11.742  2.5896 -1.1666  1.8964
 6827TIP3   OH244675   5.984   0.593  10.884  0.0702  0.1134 -0.8322
 6827TIP3    H144676   6.062   0.648  10.880  1.2836 -1.1344  2.3322
 6827TIP3    H244677   5.922   0.643  10.937 -0.3841  0.1285 -1.3774
 6828TIP3   OH244678   5.413   0.961  10.158 -0.1495 -0.0195 -0.0524
 6828TIP3    H144679   5.355   0.964  10.234 -1.5991  1.5816 -1.1477
 6828TIP3    H244680   5.501   0.972  10.194 -0.7324 -0.0432  1.4414
 6829TIP3   OH244681   2.801   4.888  11.575  0.3272  0.5770  0.4686
 6829TIP3    H144682   2.828   4.967  11.621 -0.2144  0.0792  1.6688
 6829TIP3    H244683   2.862   4.820  11.603 -0.1602  0.2089  0.6714
 6830TIP3   OH244684   5.372   6.234  10.665 -0.3438 -0.3730  0.3946
 6830TIP3    H144685   5.331   6.164  10.717 -0.1042 -0.2443  0.7631
 6830TIP3    H244686   5.301   6.270  10.612 -0.9589  0.5616  1.7942
 6831TIP3   OH244687   0.034   3.341   8.014  0.0518  0.4826 -0.2966
 6831TIP3    H144688   0.042   3.256   7.970  1.0303  0.5446 -0.2450
 6831TIP3    H244689   0.120   3.381   8.004 -0.0797  1.0079  0.6422
 6832TIP3   OH244690   2.214   1.065   8.830 -0.0920  0.5853 -0.9045
 6832TIP3    H144691   2.138   1.089   8.883  0.0139  0.6751 -0.7908
 6832TIP3    H244692   2.243   1.147   8.791  1.1747  0.9302  0.6756
 6833TIP3   OH244693   1.576   1.626   9.039 -0.1270 -0.3354 -0.5815
 6833TIP3    H144694   1.633   1.550   9.033  0.0760 -0.2329 -0.0057
 6833TIP3    H244695   1.636   1.701   9.036 -0.2507 -0.2207 -0.2221
 6834TIP3   OH244696   3.515   3.338  10.345 -0.1957  0.0050 -0.6970
 6834TIP3    H144697   3.604   3.369  10.330 -0.0088 -0.3566 -0.3230
 6834TIP3    H244698   3.481   3.395  10.413  0.2560 -0.7958  0.2185
 6835TIP3   OH244699   5.977   1.155  11.183  0.0993 -0.3429 -0.1964
 6835TIP3    H144700   5.887   1.129  11.200 -0.3366  0.7627 -0.7309
 6835TIP3    H244701   5.998   1.215  11.254  0.0147  0.3039 -0.7152
 6836TIP3   OH244702   0.271   6.534  10.465 -0.0069 -1.0001  0.1469
 6836TIP3    H144703   0.364   6.533  10.488  0.5241  0.3113 -1.7291
 6836TIP3    H244704   0.228   6.569  10.542  1.5392  2.1651 -0.2769
 6837TIP3   OH244705   0.833   0.449   8.413 -0.0946  0.0758  0.1973
 6837TIP3    H144706   0.880   0.471   8.332 -0.0126 -1.0185 -0.0723
 6837TIP3    H244707   0.797   0.533   8.443 -1.9176  0.2478 -2.1085
 6838TIP3   OH244708   0.542   3.370   7.960  0.0373 -0.3313 -0.0101
 6838TIP3    H144709   0.633   3.399   7.959 -0.3451  1.4438  3.4391
 6838TIP3    H244710   0.546   3.277   7.982  1.0093 -0.2547  0.1631
 6839TIP3   OH244711   0.044   1.947   8.320  0.4638 -0.1856  0.6843
 6839TIP3    H144712  -0.033   1.890   8.317  0.8875 -0.7226 -1.1758
 6839TIP3    H244713   0.009   2.035   8.309  0.0359 -0.3399  0.7853
 6840TIP3   OH244714   1.637   4.383   9.454  0.0731 -0.7792 -0.2565
 6840TIP3    H144715   1.694   4.441   9.404  3.9092  0.3723  4.6404
 6840TIP3    H244716   1.677   4.297   9.446  0.1632 -0.7690  0.0660
 6841TIP3   OH244717   6.332   2.553   8.492  0.3732  0.7202 -0.1445
 6841TIP3    H144718   6.252   2.557   8.544  1.4911 -1.4531  1.9404
 6841TIP3    H244719   6.303   2.523   8.406 -1.1699  0.9714  0.2620
 6842TIP3   OH244720   3.366   5.368   9.413 -0.2149  0.2681  0.2254
 6842TIP3    H144721   3.276   5.339   9.431 -0.9329  1.8127 -0.6522
 6842TIP3    H244722   3.407   5.374   9.500 -1.3449  0.6825  0.7545
 6843TIP3   OH244723   3.485   5.612   9.019 -0.2439  0.4512  0.6305
 6843TIP3    H144724   3.549   5.590   9.088 -1.1160 -0.5274  1.1463
 6843TIP3    H244725   3.539   5.639   8.945  0.7290  1.5738  1.6918
 6844TIP3   OH244726   0.606   4.855   9.231  0.0766 -0.1932 -0.2682
 6844TIP3    H144727   0.513   4.876   9.233  0.1395  0.0816  1.3870
 6844TIP3    H244728   0.629   4.840   9.322  1.8523  0.6607 -0.5271
 6845TIP3   OH244729   3.779   2.741   8.169  0.7655 -0.3016 -0.0603
 6845TIP3    H144730   3.728   2.668   8.205  0.2471  0.2853  0.4221
 6845TIP3    H244731   3.806   2.710   8.082 -1.1973 -0.3043 -0.7400
 6846TIP3   OH244732   2.376   4.022  11.004 -0.5018 -0.0895  0.5893
 6846TIP3    H144733   2.457   4.007  11.052  0.6081  1.3055 -0.7701
 6846TIP3    H244734   2.312   4.046  11.071  0.4987 -0.0678  1.5536
 6847TIP3   OH244735   3.185   3.701   8.779 -0.2396  0.5996 -0.4366
 6847TIP3    H144736   3.268   3.737   8.809 -1.1568  0.7690  2.1274
 6847TIP3    H244737   3.123   3.774   8.788 -1.1362 -0.2095  0.1005
 6848TIP3   OH244738   1.581   5.421  10.052 -0.0178 -0.3801  0.6759
 6848TIP3    H144739   1.624   5.464  10.126 -0.3340  1.1148  0.0202
 6848TIP3    H244740   1.611   5.469   9.975 -0.3295 -1.3952 -0.0941
 6849TIP3   OH244741   3.029   4.614   9.084  0.1087  0.3637  0.3215
 6849TIP3    H144742   3.097   4.576   9.140 -0.0724  0.6349  0.7288
 6849TIP3    H244743   3.075   4.677   9.029  0.3198 -0.0453  0.0244
 6850TIP3   OH244744   0.223   5.517   9.092 -0.4507 -0.0068  0.5901
 6850TIP3    H144745   0.305   5.486   9.052  0.2494  1.2054  1.0322
 6850TIP3    H244746   0.162   5.443   9.081  0.8026 -1.0914  0.6191
 6851TIP3   OH244747   1.178   3.799   8.000 -0.0411  0.2287  0.4450
 6851TIP3    H144748   1.238   3.863   8.038 -0.9675  0.6619  1.2281
 6851TIP3    H244749   1.104   3.851   7.967  1.4954  0.0987 -3.7367
 6852TIP3   OH244750   5.790   2.898  11.515  0.1411  0.6387 -0.6418
 6852TIP3    H144751   5.796   2.832  11.584  0.8936  1.4815  0.1191
 6852TIP3    H244752   5.880   2.908  11.484 -0.1635  0.3816 -1.6571
 6853TIP3   OH244753   6.730   3.672   9.981 -0.5040  0.0187 -0.3448
 6853TIP3    H144754   6.695   3.687   9.893  0.5173 -0.8602 -0.9127
 6853TIP3    H244755   6.721   3.578   9.996  0.4070 -0.0228  0.0179
 6854TIP3   OH244756   4.144   6.260   9.016  0.7673 -0.3505 -0.0557
 6854TIP3    H144757   4.188   6.212   9.086  0.5134  1.6508  1.5641
 6854TIP3    H244758   4.209   6.321   8.983  0.1374  0.4795  0.2064
 6855TIP3   OH244759   3.176   2.689   8.180  0.1914 -0.1700 -0.2029
 6855TIP3    H144760   3.180   2.608   8.129  0.0309  0.5574 -1.4023
 6855TIP3    H244761   3.154   2.660   8.268  1.3237 -1.5420 -0.3317
 6856TIP3   OH244762   0.351   5.314  10.322  1.3011  0.4776  0.3689
 6856TIP3    H144763   0.350   5.372  10.246 -0.2620  1.1834  0.8864
 6856TIP3    H244764   0.431   5.262  10.312  1.9829  1.7092 -0.8725
 6857TIP3   OH244765   0.603   1.359  10.301 -0.1579 -0.3854 -0.1641
 6857TIP3    H144766   0.653   1.440  10.292 -0.8123  0.0179 -0.2204
 6857TIP3    H244767   0.655   1.293  10.256 -0.9370  0.5625 -2.5742
 6858TIP3   OH244768   2.348   1.987   9.169 -0.0157  0.6917 -0.1889
 6858TIP3    H144769   2.292   1.920   9.130  0.3536  0.3181 -0.0894
 6858TIP3    H244770   2.343   1.970   9.263 -0.0523  0.9133 -0.1506
 6859TIP3   OH244771   3.626   6.431  10.523 -0.2036 -0.1723 -0.2631
 6859TIP3    H144772   3.674   6.507  10.556 -1.3211  0.6785 -0.5305
 6859TIP3    H244773   3.642   6.363  10.588  2.2248 -0.2789 -0.8683
 6860TIP3   OH244774   1.741   0.493   8.779  0.9031 -0.3050  0.5807
 6860TIP3    H144775   1.655   0.531   8.759 -0.5665 -1.5425  3.9089
 6860TIP3    H244776   1.738   0.406   8.741  0.6808 -0.3516  0.7042
 6861TIP3   OH244777   5.760   3.070   9.417  0.2068 -0.1014  0.1543
 6861TIP3    H144778   5.700   2.997   9.430 -1.9084  1.8995  2.8098
 6861TIP3    H244779   5.799   3.084   9.504  0.6787  1.7917 -0.3220
 6862TIP3   OH244780   4.570   3.698   8.681 -0.0676 -0.9512 -0.2543
 6862TIP3    H144781   4.651   3.648   8.689  1.2102  0.6946 -1.9425
 6862TIP3    H244782   4.527   3.687   8.766  2.9166 -0.2795  1.5019
 6863TIP3   OH244783   5.949   3.712  10.140 -0.2794  0.6844  0.2693
 6863TIP3    H144784   5.939   3.652  10.066 -0.9884 -0.6091  1.3493
 6863TIP3    H244785   6.042   3.709  10.162 -0.0171  1.2907 -0.7232
 6864TIP3   OH244786   1.393   1.555  10.243  0.1218 -0.4152 -0.0056
 6864TIP3    H144787   1.400   1.643  10.206  0.8037 -0.2593  0.4663
 6864TIP3    H244788   1.362   1.501  10.170  1.2435 -0.0735 -0.7731
 6865TIP3   OH244789   2.801   0.912  10.168 -0.1662  0.1027 -0.3241
 6865TIP3    H144790   2.736   0.921  10.098  0.4543  0.2960 -0.8872
 6865TIP3    H244791   2.834   0.823  10.159 -1.7809 -0.7330  1.2576
 6866TIP3   OH244792   6.581   5.306   8.907 -0.1564 -0.2108 -0.0834
 6866TIP3    H144793   6.489   5.327   8.923 -0.2486 -0.6135 -0.0556
 6866TIP3    H244794   6.591   5.313   8.812  0.7840  3.7462  0.1671
 6867TIP3   OH244795   3.933   6.072   9.317 -0.0739  0.4165  0.6576
 6867TIP3    H144796   3.937   6.014   9.242  0.4510  1.7629 -0.4114
 6867TIP3    H244797   3.840   6.076   9.340 -0.5444  1.5206 -1.2241
 6868TIP3   OH244798   5.162   1.908   9.830  0.2475 -0.7986  0.2915
 6868TIP3    H144799   5.197   1.844   9.768  0.7588 -1.0331  0.8107
 6868TIP3    H244800   5.071   1.880   9.844  0.3134 -1.1078  0.1239
 6869TIP3   OH244801   4.107   0.984   9.948  0.3862 -0.0022 -0.5414
 6869TIP3    H144802   4.135   0.971   9.857  2.7399  0.0749  0.0903
 6869TIP3    H244803   4.146   1.068   9.973  0.7674 -0.5680  0.8664
 6870TIP3   OH244804   0.802   5.595   9.716  0.2893 -0.3024 -0.0633
 6870TIP3    H144805   0.731   5.569   9.775  0.5072  1.6375  1.1640
 6870TIP3    H244806   0.876   5.611   9.774  0.6703  1.1524 -0.9087
 6871TIP3   OH244807   6.170   0.391  10.234 -0.1152 -0.5053  0.3989
 6871TIP3    H144808   6.244   0.386  10.173 -0.0089 -0.5844  0.5316
 6871TIP3    H244809   6.131   0.304  10.232 -1.0109 -0.1022 -0.6565
 6872TIP3   OH244810   1.459   0.905   8.782 -0.2945  0.1994 -0.1481
 6872TIP3    H144811   1.454   0.984   8.836 -1.5363 -0.5402  0.8619
 6872TIP3    H244812   1.510   0.843   8.835  0.4339  0.2165 -0.8138
 6873TIP3   OH244813   3.175   4.866  10.736  1.0956  0.2796  0.3561
 6873TIP3    H144814   3.210   4.883  10.649  1.1176 -0.0543  0.2968
 6873TIP3    H244815   3.127   4.945  10.760 -0.5628 -0.3237 -0.7733
 6874TIP3   OH244816   3.886   6.281   9.510 -0.2551  0.5635  0.1575
 6874TIP3    H144817   3.940   6.253   9.584 -1.3197  2.2713  1.6320
 6874TIP3    H244818   3.912   6.222   9.439  1.8300 -0.2062  1.4602
 6875TIP3   OH244819   6.726   2.785  11.074 -0.2529 -0.3344  0.0942
 6875TIP3    H144820   6.634   2.762  11.058 -0.2235 -0.3705 -0.0227
 6875TIP3    H244821   6.744   2.856  11.012 -0.5328  0.4521  0.8894
 6876TIP3   OH244822   2.832   4.802   9.239 -0.1319  0.7764 -0.2323
 6876TIP3    H144823   2.913   4.842   9.209  1.6843  0.3051  3.4609
 6876TIP3    H244824   2.770   4.875   9.245  0.8990  1.6873 -0.3943
 6877TIP3   OH244825   0.596   1.856   9.593  0.0398  0.2426  0.1692
 6877TIP3    H144826   0.596   1.794   9.667  0.7229  0.0530  0.0188
 6877TIP3    H244827   0.507   1.850   9.558 -0.1252 -0.0979  0.6205
 6878TIP3   OH244828   1.208   1.091   8.832  0.1957  0.3846  0.2631
 6878TIP3    H144829   1.191   0.997   8.823  1.0800  0.1954  0.5683
 6878TIP3    H244830   1.219   1.121   8.742 -0.2057  0.2239  0.1555
 6879TIP3   OH244831   1.505   2.610   8.354 -0.0491 -0.3918  0.0753
 6879TIP3    H144832   1.505   2.679   8.289  1.0094 -1.5600 -1.2396
 6879TIP3    H244833   1.433   2.631   8.413 -0.1144  1.4783 -0.6290
 6880TIP3   OH244834   2.566   1.376   9.493  0.0084 -0.2585 -0.0799
 6880TIP3    H144835   2.548   1.389   9.400 -0.4598 -1.7221 -0.2216
 6880TIP3    H244836   2.480   1.357   9.531  0.2834 -0.2567  0.5460
 6881TIP3   OH244837   6.720   6.423  10.395  0.8131  0.1080  0.2634
 6881TIP3    H144838   6.749   6.403  10.306  1.8105  0.3143  0.5324
 6881TIP3    H244839   6.699   6.337  10.433 -1.0935  0.1314 -0.6377
 6882TIP3   OH244840   1.743   2.936  10.788 -0.0090  0.0734 -0.2374
 6882TIP3    H144841   1.682   2.864  10.804  1.1643 -0.9645 -0.2170
 6882TIP3    H244842   1.753   2.978  10.874 -0.2991 -0.0752 -0.1291
 6883TIP3   OH244843   4.295   1.865  10.946  0.1802  0.4016 -0.8790
 6883TIP3    H144844   4.353   1.927  10.901  0.9879  0.0666 -0.3303
 6883TIP3    H244845   4.352   1.792  10.969 -0.2521  0.4648  0.4810
 6884TIP3   OH244846   0.383   2.476   8.604 -0.1215  0.3926 -0.4399
 6884TIP3    H144847   0.421   2.507   8.522 -0.7107  2.0971 -0.1036
 6884TIP3    H244848   0.423   2.531   8.671  0.1539 -0.8093  0.4036
 6885TIP3   OH244849   1.213   1.990   8.458 -0.1456 -0.5541  0.0906
 6885TIP3    H144850   1.256   1.919   8.410  1.0674 -0.4038  0.9158
 6885TIP3    H244851   1.238   1.975   8.550  1.9849  2.1337  0.0782
 6886TIP3   OH244852   3.179   6.104  10.874 -0.1478 -0.0178  0.4014
 6886TIP3    H144853   3.138   6.101  10.960 -1.2718 -0.5014 -0.1304
 6886TIP3    H244854   3.114   6.065  10.815 -0.1336  1.8574 -0.9438
 6887TIP3   OH244855   0.341   5.577   8.185  0.6714 -0.3111 -0.3423
 6887TIP3    H144856   0.366   5.586   8.093 -0.1094 -1.5800 -0.7099
 6887TIP3    H244857   0.327   5.666   8.216 -1.3162  0.0649 -2.1056
 6888TIP3   OH244858   6.407   4.847   8.066  0.2544 -0.5540  0.0167
 6888TIP3    H144859   6.313   4.863   8.065  0.2434 -0.5359  0.8849
 6888TIP3    H244860   6.443   4.914   8.007 -0.1408  0.4311  0.8573
 6889TIP3   OH244861   0.487   1.381   9.615  0.4299 -0.5914 -0.1333
 6889TIP3    H144862   0.401   1.350   9.644  0.3817  0.2743  0.6809
 6889TIP3    H244863   0.521   1.309   9.561 -0.8156 -0.9360 -0.5046
 6890TIP3   OH244864   1.867   6.232  10.399 -0.6422  0.2140 -0.2524
 6890TIP3    H144865   1.935   6.283  10.442 -0.6385  1.0295 -1.1812
 6890TIP3    H244866   1.869   6.147  10.442 -0.3676  0.8640  1.0501
 6891TIP3   OH244867   2.343   3.179  11.153 -0.1850  0.4029  0.2590
 6891TIP3    H144868   2.369   3.267  11.182 -1.3328  1.0642 -0.6235
 6891TIP3    H244869   2.248   3.176  11.167 -0.4330 -0.0446 -1.3196
 6892TIP3   OH244870   0.616   4.077  10.961  0.0861  0.4899  0.5796
 6892TIP3    H144871   0.615   3.986  10.931  0.1787  0.8281 -0.4820
 6892TIP3    H244872   0.540   4.083  11.019  0.7027 -0.5380  1.5458
 6893TIP3   OH244873   0.241   5.722   8.875  1.1747  0.1386 -0.1261
 6893TIP3    H144874   0.185   5.768   8.812  2.2550  1.5646 -0.0966
 6893TIP3    H244875   0.183   5.703   8.948  0.2655 -0.1752 -0.9022
 6894TIP3   OH244876   2.189   5.182   8.429 -0.6244  0.4681 -0.6536
 6894TIP3    H144877   2.117   5.245   8.425 -1.3672 -0.3452 -0.4229
 6894TIP3    H244878   2.268   5.236   8.438 -1.1504  1.3971 -1.4150
 6895TIP3   OH244879   4.899   3.773   8.525 -0.4460  0.4568  0.2240
 6895TIP3    H144880   4.850   3.849   8.491 -1.8134 -0.1667  0.7334
 6895TIP3    H244881   4.916   3.719   8.448 -1.8282 -0.0008  0.2079
 6896TIP3   OH244882   4.851   1.018   8.636 -0.1375 -0.2393 -0.0967
 6896TIP3    H144883   4.802   0.972   8.568 -2.1833  0.7785  0.5941
 6896TIP3    H244884   4.838   1.110   8.617  0.0052  0.0563  1.1594
 6897TIP3   OH244885   1.044   2.563  11.204  0.5409 -0.4053  0.0365
 6897TIP3    H144886   0.986   2.588  11.276  1.4847  0.9552  0.3606
 6897TIP3    H244887   1.132   2.585  11.235  1.0521 -0.6226 -1.1836
 6898TIP3   OH244888   2.004   6.654   8.283  0.0987  0.4237  0.1723
 6898TIP3    H144889   1.997   6.682   8.192 -0.1313  0.3799  0.1773
 6898TIP3    H244890   1.915   6.632   8.309  0.1005  0.8279  0.5347
 6899TIP3   OH244891   2.629   1.833   9.721 -0.3168  0.3462  0.0428
 6899TIP3    H144892   2.705   1.889   9.705 -1.1040  1.1880 -0.9802
 6899TIP3    H244893   2.658   1.745   9.701  0.2782  0.7192 -0.7979
 6900TIP3   OH244894   5.684   2.490   8.037 -0.3583 -0.0024  0.2001
 6900TIP3    H144895   5.606   2.545   8.049  0.0158  0.6564 -0.3551
 6900TIP3    H244896   5.649   2.400   8.032 -0.9992  0.2032  0.8185
 6901TIP3   OH244897   1.168   2.298   8.820  0.0059  0.0242 -0.7718
 6901TIP3    H144898   1.133   2.317   8.733 -1.2010 -0.6583 -0.4534
 6901TIP3    H244899   1.095   2.260   8.868 -0.3059  3.1118  1.5403
 6902TIP3   OH244900   2.031   1.675   8.493 -0.2743  0.3879 -0.5934
 6902TIP3    H144901   1.953   1.656   8.441  0.5034 -0.1969 -1.5887
 6902TIP3    H244902   2.010   1.757   8.538 -1.0890  0.7641 -1.6033
 6903TIP3   OH244903   5.452   2.872   7.830  0.2339  0.2867  0.0479
 6903TIP3    H144904   5.523   2.815   7.861  2.0375  1.5114 -1.6149
 6903TIP3    H244905   5.460   2.951   7.884  0.3882  0.5855 -0.4117
 6904TIP3   OH244906   3.383   1.083   9.027  0.3068 -0.3058  0.2041
 6904TIP3    H144907   3.351   1.100   9.116  1.9954  1.0226  0.5924
 6904TIP3    H244908   3.432   1.001   9.036  0.4799 -0.1729  0.4827
 6905TIP3   OH244909   2.230   4.864   9.223  0.7001  1.2508 -0.5770
 6905TIP3    H144910   2.287   4.797   9.260  1.0407  1.0419 -1.4489
 6905TIP3    H244911   2.178   4.895   9.297  0.4479 -0.0588 -0.1764
 6906TIP3   OH244912   1.066   3.903   8.458 -0.2912  0.7208 -0.5318
 6906TIP3    H144913   1.129   3.867   8.521 -0.3276  3.7321  1.3918
 6906TIP3    H244914   1.109   3.893   8.373  1.6908  0.4447  0.4444
 6907TIP3   OH244915   0.289   3.434   8.023 -0.1609 -0.1089 -0.1741
 6907TIP3    H144916   0.280   3.461   8.114  0.4579  1.1784 -0.4673
 6907TIP3    H244917   0.374   3.390   8.019  0.7021  1.4970 -0.4655
 6908TIP3   OH244918   4.193   2.474   9.790  0.6527  0.1275 -0.6676
 6908TIP3    H144919   4.235   2.401   9.744  2.8402  0.5468  0.5462
 6908TIP3    H244920   4.257   2.502   9.855 -1.4576  0.9757  1.1905
 6909TIP3   OH244921   6.130   3.116   9.751  0.4318 -0.6350 -0.3937
 6909TIP3    H144922   6.098   3.205   9.764  0.6159 -0.6187 -0.0375
 6909TIP3    H244923   6.069   3.062   9.801  1.9757 -0.4430  1.8013
 6910TIP3   OH244924   3.051   2.655   8.425 -0.4266 -0.2051 -0.0431
 6910TIP3    H144925   3.117   2.701   8.477  0.7529 -0.6441 -1.0956
 6910TIP3    H244926   3.059   2.564   8.453  0.1246 -0.4213 -0.8575
 6911TIP3   OH244927   1.347   4.942   8.129 -0.1097 -0.2382  0.7970
 6911TIP3    H144928   1.293   4.862   8.124 -1.6080  0.7823 -0.2418
 6911TIP3    H244929   1.290   5.011   8.094  1.8647  0.9196 -0.2913
 6912TIP3   OH244930   1.770   3.361  10.640 -0.4222 -0.2492  0.6964
 6912TIP3    H144931   1.801   3.277  10.606 -1.1055 -0.4503  0.5745
 6912TIP3    H244932   1.676   3.350  10.652 -0.5165  0.4936  0.6907
 6913TIP3   OH244933   5.822   2.746  11.749 -0.0098 -0.2553 -0.4173
 6913TIP3    H144934   5.765   2.698  11.809 -0.6855 -0.8672 -1.5152
 6913TIP3    H244935   5.892   2.686  11.728 -0.3570 -0.4462 -1.0673
 6914TIP3   OH244936   1.296   5.649  11.226 -0.3576  0.0222  0.1750
 6914TIP3    H144937   1.348   5.718  11.185 -0.0831  0.4011  1.1266
 6914TIP3    H244938   1.323   5.569  11.182 -0.4071  0.4730 -0.6917
 6915TIP3   OH244939   3.354   5.988  11.433 -0.5896 -0.2097  0.5974
 6915TIP3    H144940   3.295   5.955  11.365  0.2826 -1.0819  0.2428
 6915TIP3    H244941   3.346   5.924  11.504 -0.7696  0.1813  0.9334
 6916TIP3   OH244942   2.780   4.061   9.265 -0.5195 -0.2628  0.4196
 6916TIP3    H144943   2.822   3.976   9.273 -0.3317 -0.4859 -2.1796
 6916TIP3    H244944   2.711   4.059   9.331  0.3392 -1.8750  1.3343
 6917TIP3   OH244945   4.308   6.213  10.100  0.4836 -0.1704  0.3806
 6917TIP3    H144946   4.385   6.224  10.157  0.4901 -1.6819  0.6878
 6917TIP3    H244947   4.234   6.210  10.161  0.1983  0.8799  0.1084
 6918TIP3   OH244948   4.881   1.826   9.610 -0.2406 -0.4019  0.4653
 6918TIP3    H144949   4.894   1.920   9.625  0.5110 -0.5857  1.0720
 6918TIP3    H244950   4.791   1.819   9.579 -0.8758  0.3702  2.0051
 6919TIP3   OH244951   0.464   0.350  10.281  0.0094 -0.0077  0.3004
 6919TIP3    H144952   0.470   0.387  10.369  0.6630  2.1544 -0.5742
 6919TIP3    H244953   0.552   0.357  10.246 -0.4162 -0.0260 -0.8150
 6920TIP3   OH244954   6.369   1.315   9.864  0.4674  0.8499 -0.2138
 6920TIP3    H144955   6.326   1.394   9.895  0.8549  0.6756  0.8001
 6920TIP3    H244956   6.449   1.309   9.917  0.6929  0.0561 -0.6309
 6921TIP3   OH244957   0.317   1.783  10.776  0.5741  0.4482 -0.3553
 6921TIP3    H144958   0.249   1.827  10.827  2.2057  2.6031  0.1193
 6921TIP3    H244959   0.286   1.788  10.686 -1.8149 -2.4210  0.1525
 6922TIP3   OH244960   0.779   6.734   8.557 -0.4737 -0.5908  0.9029
 6922TIP3    H144961   0.766   6.794   8.630  2.3137 -1.2722  2.1123
 6922TIP3    H244962   0.832   6.783   8.495 -0.6183 -0.8751  0.5526
 6923TIP3   OH244963   0.609   4.480   9.368 -0.0864  0.1951  0.7076
 6923TIP3    H144964   0.700   4.472   9.338 -0.8089  0.1988 -1.7079
 6923TIP3    H244965   0.613   4.539   9.443  1.9592 -0.2286  0.9732
 6924TIP3   OH244966   2.258   6.701   8.762  0.2741 -0.0609  0.2556
 6924TIP3    H144967   2.176   6.723   8.805 -0.3355 -1.9052  0.1291
 6924TIP3    H244968   2.292   6.785   8.730 -2.3884  0.5902 -1.1456
 6925TIP3   OH244969   5.467   3.182   9.009 -0.5951  0.9449  0.5265
 6925TIP3    H144970   5.476   3.264   8.959  0.7426  0.3718 -0.2242
 6925TIP3    H244971   5.518   3.198   9.088  0.9252  0.3488 -0.2954
 6926TIP3   OH244972   0.646   0.181  10.677 -0.2561 -0.4487  0.1414
 6926TIP3    H144973   0.742   0.188  10.682 -0.2747  0.9535 -0.8519
 6926TIP3    H244974   0.628   0.169  10.583 -1.0045 -1.9592  0.4577
 6927TIP3   OH244975   5.132   4.960  10.987  0.1433 -0.3174  0.2828
 6927TIP3    H144976   5.082   5.019  10.930  0.5677 -1.3630 -1.2425
 6927TIP3    H244977   5.221   4.995  10.986  0.3384 -0.8097 -0.4152
 6928TIP3   OH244978   0.501   6.505  10.244  0.6747  0.3858 -0.1467
 6928TIP3    H144979   0.443   6.558  10.189 -0.5022  0.9241  1.5306
 6928TIP3    H244980   0.495   6.545  10.330  1.9113 -0.8661  0.5609
 6929TIP3   OH244981   0.990   5.364   8.552 -0.0507 -0.0436  0.3740
 6929TIP3    H144982   0.987   5.309   8.630 -1.0945 -0.4936  0.0335
 6929TIP3    H244983   1.024   5.306   8.483  4.1660  1.2093  1.1199
 6930TIP3   OH244984   1.237   6.245   7.987  1.0457  0.3186 -0.2548
 6930TIP3    H144985   1.160   6.271   7.937  0.3675  0.1117  0.6637
 6930TIP3    H244986   1.234   6.299   8.066  1.0958 -0.6274  0.4121
 6931TIP3   OH244987   5.447   4.119  11.433  0.0603  0.4544  0.0248
 6931TIP3    H144988   5.388   4.194  11.426 -0.2577  0.1391 -0.8428
 6931TIP3    H244989   5.484   4.110  11.345  0.4428 -0.1316  0.2422
 6932TIP3   OH244990   2.749   4.237  10.669  0.2423 -0.6465 -0.3170
 6932TIP3    H144991   2.735   4.187  10.749  0.1806 -0.1392 -0.0032
 6932TIP3    H244992   2.835   4.277  10.681  0.8017 -1.6027 -1.0674
 6933TIP3   OH244993   4.995   6.000  10.322  0.3931  0.0196 -0.0997
 6933TIP3    H144994   5.029   6.012  10.411 -1.1297 -0.9265  0.6454
 6933TIP3    H244995   4.942   5.921  10.327  0.3095 -0.0763 -1.8790
 6934TIP3   OH244996   2.842   6.207  10.485 -0.2283 -0.0369  0.2249
 6934TIP3    H144997   2.914   6.250  10.530 -0.0731 -0.9276  0.8421
 6934TIP3    H244998   2.884   6.146  10.425 -0.4592 -0.3489  0.3776
 6935TIP3   OH244999   6.015   6.143   9.556 -0.6838 -0.4408  0.1015
 6935TIP3    H145000   5.929   6.180   9.535 -0.3296 -0.5500 -1.7376
 6935TIP3    H245001   5.999   6.049   9.561 -0.8755 -0.3687  0.9167
 6936TIP3   OH245002   1.326   0.256  10.992 -0.6439 -0.9674  0.5702
 6936TIP3    H145003   1.296   0.211  10.914 -1.0469  1.7786 -0.9969
 6936TIP3    H245004   1.249   0.263  11.048 -1.0265 -0.7012  0.0199
 6937TIP3   OH245005   5.478   4.629   8.514  0.3056 -0.0929 -0.4420
 6937TIP3    H145006   5.402   4.686   8.500  0.6701  0.6321  0.4383
 6937TIP3    H245007   5.552   4.689   8.516  0.5623 -0.4033  1.9082
 6938TIP3   OH245008   0.302   2.829   9.838  0.6304  0.1101 -0.0214
 6938TIP3    H145009   0.273   2.852   9.927  0.9548  0.3390  0.0281
 6938TIP3    H245010   0.395   2.851   9.837  1.2206 -2.1378  0.3437
 6939TIP3   OH245011   2.274   2.899   9.755 -0.7106 -0.2428 -0.5251
 6939TIP3    H145012   2.215   2.891   9.680 -0.3730  1.5957 -1.0573
 6939TIP3    H245013   2.345   2.955   9.724 -0.6352  0.6986  1.1957
 6940TIP3   OH245014   6.392   2.050  11.202 -0.7065  0.1525 -0.6646
 6940TIP3    H145015   6.359   2.043  11.113 -1.7622  0.8881 -0.3556
 6940TIP3    H245016   6.439   1.968  11.218 -0.9122 -0.1794 -1.7293
 6941TIP3   OH245017   3.956   3.461   8.647  0.3830 -0.2054 -0.5423
 6941TIP3    H145018   3.994   3.545   8.670 -0.6499  1.0453 -3.1234
 6941TIP3    H245019   3.982   3.403   8.719  0.9481  2.3128  1.4249
 6942TIP3   OH245020   0.015   1.493   8.883  0.2940  0.6873 -0.0071
 6942TIP3    H145021  -0.002   1.442   8.804  0.2508  0.3374  0.2305
 6942TIP3    H245022   0.098   1.460   8.916 -0.6172 -0.5106  1.1689
 6943TIP3   OH245023   3.625   2.704  10.522  0.2270 -0.4140  0.0656
 6943TIP3    H145024   3.696   2.734  10.580 -0.3361  1.1445  0.0056
 6943TIP3    H245025   3.598   2.620  10.560  2.4078 -1.3187 -0.2016
 6944TIP3   OH245026   0.619   2.461   8.014  0.0737  0.3163  0.2783
 6944TIP3    H145027   0.609   2.543   8.062  0.1252  0.6642 -0.3015
 6944TIP3    H245028   0.537   2.413   8.031 -1.0777  1.5763 -1.4429
 6945TIP3   OH245029   3.010   0.736   9.902  0.1985  0.2135 -0.0958
 6945TIP3    H145030   2.958   0.656   9.900 -0.1265  0.4157  0.0755
 6945TIP3    H245031   3.093   0.712   9.862 -0.3656  0.1185 -1.2678
 6946TIP3   OH245032   3.980   2.979  11.606 -0.0161 -0.5274 -0.1708
 6946TIP3    H145033   3.970   3.060  11.655  3.4415  0.4593 -0.8247
 6946TIP3    H245034   4.012   2.916  11.670  1.1477 -0.2107 -0.4202
 6947TIP3   OH245035   3.157   2.622   9.073  0.4069 -0.0320 -0.2879
 6947TIP3    H145036   3.216   2.576   9.133 -0.0125 -0.1372  0.0489
 6947TIP3    H245037   3.098   2.554   9.041  0.5463  0.0493 -0.7221
 6948TIP3   OH245038   2.051   5.746   8.939 -0.0284 -0.2366  0.0581
 6948TIP3    H145039   2.034   5.690   9.015 -0.3639 -1.7938 -1.1231
 6948TIP3    H245040   2.143   5.731   8.919  0.8304  2.2454  1.7337
 6949TIP3   OH245041   1.806   0.169   9.526 -0.4944 -1.2865 -0.3163
 6949TIP3    H145042   1.717   0.189   9.496 -0.0527  0.8497 -0.3737
 6949TIP3    H245043   1.795   0.142   9.617 -1.1294  0.3029  0.1253
 6950TIP3   OH245044   2.748   1.534   8.928 -0.0502  0.7335  0.0717
 6950TIP3    H145045   2.824   1.531   8.987 -0.3895  1.6559  0.5674
 6950TIP3    H245046   2.759   1.457   8.873  0.0212 -0.4557  1.6631
 6951TIP3   OH245047   6.274   6.144   8.326 -0.3584 -0.0433 -0.4860
 6951TIP3    H145048   6.262   6.055   8.357  0.3767  0.0796  0.1657
 6951TIP3    H245049   6.362   6.145   8.289 -0.6708  0.2040 -1.2520
 6952TIP3   OH245050   4.029   1.942  10.088 -0.9051  0.5558  0.1763
 6952TIP3    H145051   3.947   1.960  10.042 -0.7227 -0.6783 -0.7077
 6952TIP3    H245052   4.098   1.970  10.027 -0.6632 -0.8808 -0.2610
 6953TIP3   OH245053   2.630   0.455  11.540 -0.0152 -0.2178  0.0105
 6953TIP3    H145054   2.710   0.504  11.527 -0.5096  0.5343 -0.2568
 6953TIP3    H245055   2.641   0.375  11.489 -0.0130  0.5382 -1.1965
 6954TIP3   OH245056   4.398   3.584   9.685  0.0154  0.0197  0.1884
 6954TIP3    H145057   4.378   3.628   9.768  0.9232  0.3938  0.2140
 6954TIP3    H245058   4.315   3.543   9.659 -0.4588  0.5060  0.9128
 6955TIP3   OH245059   4.552   3.777  11.742 -0.4074 -0.8829  0.1627
 6955TIP3    H145060   4.597   3.829  11.809 -0.2239 -1.4562  0.4949
 6955TIP3    H245061   4.621   3.725  11.701 -0.4087 -0.0098 -0.9768
 6956TIP3   OH245062   1.282   0.320  11.349  0.0816  0.4531  0.2565
 6956TIP3    H145063   1.354   0.330  11.411 -0.9064 -1.2358  1.7783
 6956TIP3    H245064   1.220   0.263  11.393 -1.0708 -0.1595 -1.9951
 6957TIP3   OH245065   1.924   2.331   8.201  0.1567 -0.1611 -0.2218
 6957TIP3    H145066   1.935   2.299   8.111  1.4517 -0.5589  0.0511
 6957TIP3    H245067   1.835   2.366   8.204 -0.5560 -1.7835 -1.1597
 6958TIP3   OH245068   6.398   1.600   9.731  0.3342 -1.0492 -0.4516
 6958TIP3    H145069   6.477   1.621   9.782  0.2831 -1.9146 -0.0081
 6958TIP3    H245070   6.337   1.563   9.795  0.2863 -2.2151 -1.1538
 6959TIP3   OH245071   6.411   3.795  11.009  0.0115  0.3229 -0.0326
 6959TIP3    H145072   6.394   3.799  11.103  0.6405  1.6253  0.0505
 6959TIP3    H245073   6.387   3.882  10.977 -2.1774 -0.7197 -1.4640
 6960TIP3   OH245074   6.696   2.313  10.058  0.2862 -0.3093  0.4128
 6960TIP3    H145075   6.630   2.315  10.127 -0.6007  0.5692 -0.4159
 6960TIP3    H245076   6.645   2.319   9.977  1.3752  0.3748 -0.2451
 6961TIP3   OH245077   0.895   2.259   7.845 -0.1825 -0.1598 -0.0037
 6961TIP3    H145078   0.937   2.320   7.906  1.6638  0.8753 -2.1559
 6961TIP3    H245079   0.834   2.313   7.794 -0.4672 -0.6488 -0.1890
 6962TIP3   OH245080   2.802   0.112  10.206 -0.3642 -0.2023 -0.3071
 6962TIP3    H145081   2.827   0.024  10.181  0.0534 -0.3950  0.7447
 6962TIP3    H245082   2.721   0.101  10.257 -0.9468  0.1368 -1.1352
 6963TIP3   OH245083   3.581   1.654   8.770 -0.0668 -0.0564  0.2778
 6963TIP3    H145084   3.567   1.619   8.857  0.8893 -0.2992  0.3411
 6963TIP3    H245085   3.643   1.594   8.729 -1.0759 -0.3648 -0.8368
 6964TIP3   OH245086   2.800   0.543  10.931 -0.0711  0.6343  0.3530
 6964TIP3    H145087   2.754   0.476  10.982 -1.6970  1.7445  0.4018
 6964TIP3    H245088   2.760   0.539  10.844  0.8973  0.5101 -0.0985
 6965TIP3   OH245089   0.679   1.969  10.618  0.1006  0.7342 -0.4330
 6965TIP3    H145090   0.723   2.052  10.634 -1.8632  1.6970  0.3020
 6965TIP3    H245091   0.595   1.993  10.580  0.1808 -1.0264 -1.8838
 6966TIP3   OH245092   1.335   6.259   8.650 -0.2369  0.5438  0.2012
 6966TIP3    H145093   1.322   6.165   8.662  0.7441  0.0944 -1.7810
 6966TIP3    H245094   1.421   6.276   8.687 -0.6510  0.7902  1.0675
 6967TIP3   OH245095   3.395   6.173  10.649 -0.4892  0.4217 -0.5241
 6967TIP3    H145096   3.344   6.235  10.702 -1.5514  1.0152 -2.1323
 6967TIP3    H245097   3.389   6.209  10.560  0.8203 -0.7819 -1.1298
 6968TIP3   OH245098   0.001   6.003   8.963 -0.5276  0.2164  0.1341
 6968TIP3    H145099  -0.009   5.949   8.885 -1.4879  2.0986 -1.1363
 6968TIP3    H245100  -0.009   5.942   9.037  1.6718 -1.8427 -1.1364
 6969TIP3   OH245101   4.226   2.463  10.357 -0.1434  0.1433 -0.4038
 6969TIP3    H145102   4.188   2.408  10.289 -0.7490 -0.7086  0.6061
 6969TIP3    H245103   4.180   2.547  10.349 -0.3237 -0.0064 -0.9328
 6970TIP3   OH245104   5.673   4.142  11.568  0.4190  0.3310 -0.3960
 6970TIP3    H145105   5.642   4.152  11.658 -0.2857 -2.2659 -0.2818
 6970TIP3    H245106   5.595   4.119  11.518  1.3084 -1.5411 -1.0186
 6971TIP3   OH245107   4.564   3.461  11.459 -0.0492 -0.4230 -0.7059
 6971TIP3    H145108   4.576   3.368  11.439  0.9325 -0.1706 -1.4018
 6971TIP3    H245109   4.486   3.487  11.411 -0.3107 -0.8871 -0.5281
 6972TIP3   OH245110   2.689   5.764  10.544  0.9590 -0.0507  0.8789
 6972TIP3    H145111   2.600   5.761  10.580 -0.2908  1.3603 -1.8167
 6972TIP3    H245112   2.739   5.816  10.607 -0.3284 -0.1430  2.0130
 6973TIP3   OH245113   1.737   2.701   8.525  0.6123 -0.4342  0.1064
 6973TIP3    H145114   1.670   2.653   8.477  0.4675  0.1309 -0.2741
 6973TIP3    H245115   1.793   2.634   8.563  0.7592 -0.8966 -0.9033
 6974TIP3   OH245116   2.967   0.856   8.174 -0.0280  0.4430 -0.7240
 6974TIP3    H145117   3.006   0.916   8.237 -0.6114 -0.2717  0.3584
 6974TIP3    H245118   3.026   0.781   8.172 -1.5845 -0.9748  1.4829
 6975TIP3   OH245119   6.220   6.212   8.899 -0.0116  0.2426 -1.0604
 6975TIP3    H145120   6.173   6.253   8.827  1.9007  1.8378 -1.4747
 6975TIP3    H245121   6.250   6.285   8.953 -0.3711 -0.8613  0.7211
 6976TIP3   OH245122   0.330   0.456   8.525 -0.3843 -0.3138 -0.1152
 6976TIP3    H145123   0.380   0.533   8.549  0.7743 -1.3776  1.0468
 6976TIP3    H245124   0.268   0.444   8.598 -0.2781 -0.7176 -0.0897
 6977TIP3   OH245125   3.970   0.333  10.081  0.0201 -0.3230  0.4182
 6977TIP3    H145126   4.003   0.354   9.993 -0.1875  0.3643  0.4988
 6977TIP3    H245127   4.046   0.345  10.138  0.6370 -2.4684  0.1398
 6978TIP3   OH245128   1.140   5.994   8.834 -0.0231 -0.0235 -0.3154
 6978TIP3    H145129   1.081   6.062   8.802 -1.7313 -1.7001 -0.9446
 6978TIP3    H245130   1.146   5.931   8.762  0.3501 -1.2257  0.7134
 6979TIP3   OH245131   4.325   6.508  11.204 -0.1925 -0.0148  0.1363
 6979TIP3    H145132   4.300   6.425  11.245  0.4050 -0.7887 -1.0002
 6979TIP3    H245133   4.418   6.498  11.184  0.1285  1.3225  0.8373
 6980TIP3   OH245134   2.342   5.733   8.897  0.3616  0.5812  0.3875
 6980TIP3    H145135   2.324   5.685   8.816  1.2083  1.7381 -0.5230
 6980TIP3    H245136   2.435   5.716   8.915  0.5689  1.5234  0.2712
 6981TIP3   OH245137   5.772   3.932  10.496  0.0256 -0.1328 -0.5063
 6981TIP3    H145138   5.775   4.018  10.453  2.5683  0.3462  0.4680
 6981TIP3    H245139   5.813   3.873  10.433  0.0712 -0.2363 -0.3792
 6982TIP3   OH245140   4.603   0.590   9.428 -0.2153 -0.4007 -0.1179
 6982TIP3    H145141   4.522   0.617   9.473  0.6181 -1.5762  2.2934
 6982TIP3    H245142   4.586   0.606   9.336 -1.7421  3.1656  0.5782
 6983TIP3   OH245143   2.590   3.911  11.797 -0.4914  0.5143  0.3356
 6983TIP3    H145144   2.606   3.931  11.890 -2.2009 -1.7559  1.2024
 6983TIP3    H245145   2.496   3.921  11.786 -0.3464  0.4977 -1.1409
 6984TIP3   OH245146   6.620   4.180  11.173 -0.0316 -0.0533  0.5456
 6984TIP3    H145147   6.598   4.170  11.265  0.6686 -0.8510  0.6403
 6984TIP3    H245148   6.663   4.265  11.168 -0.1741  0.0446  0.9335
 6985TIP3   OH245149   0.700   3.301  10.324  0.1059  0.0508  0.3514
 6985TIP3    H145150   0.672   3.385  10.361  0.6173  0.2335  0.3357
 6985TIP3    H245151   0.661   3.235  10.381 -0.2445  0.3038  0.4037
 6986TIP3   OH245152   2.448   0.714  11.487 -0.2867  0.4859 -0.4735
 6986TIP3    H145153   2.537   0.747  11.480 -0.6550  2.1357  1.5239
 6986TIP3    H245154   2.457   0.622  11.513  0.7952  0.3210 -1.3820
 6987TIP3   OH245155   3.495   3.507   9.633 -0.1402  0.0914  0.3361
 6987TIP3    H145156   3.423   3.493   9.572  0.9267 -0.6506 -0.8212
 6987TIP3    H245157   3.574   3.494   9.580  0.8405 -1.5490  2.0600
 6988TIP3   OH245158   6.558   6.005   9.173  0.1633 -0.3520 -0.4879
 6988TIP3    H145159   6.565   6.059   9.094 -0.4273 -1.7243 -1.5283
 6988TIP3    H245160   6.476   6.032   9.214  0.8466  0.8968  0.0949
 6989TIP3   OH245161   2.779   6.726  10.509 -0.2278  0.5130 -0.1532
 6989TIP3    H145162   2.858   6.700  10.555  0.4508 -0.3783 -1.7176
 6989TIP3    H245163   2.794   6.817  10.484  0.4287  0.2791 -0.6403
 6990TIP3   OH245164   4.823   4.710  10.256 -0.1087  0.1218 -0.0586
 6990TIP3    H145165   4.917   4.709  10.275  0.2782  2.4352 -1.5281
 6990TIP3    H245166   4.818   4.717  10.161 -1.8490 -1.6094 -0.1646
 6991TIP3   OH245167   1.011   3.575   8.503 -0.3580  0.4842 -0.0683
 6991TIP3    H145168   1.022   3.481   8.491  1.7268  0.7419 -0.5140
 6991TIP3    H245169   0.995   3.586   8.597 -1.9173 -0.3783 -0.2018
 6992TIP3   OH245170   4.045   2.900   9.555 -0.1965 -0.5247  1.2417
 6992TIP3    H145171   4.083   2.827   9.506 -0.7474  0.4947 -0.8180
 6992TIP3    H245172   4.115   2.930   9.613  0.8421 -1.1407  0.3404
 6993TIP3   OH245173   0.037   1.147   7.888  0.3631  0.1156  0.2615
 6993TIP3    H145174   0.102   1.103   7.943  0.0493  0.2674  0.7509
 6993TIP3    H245175   0.005   1.220   7.942  0.9060  0.9887 -0.5459
 6994TIP3   OH245176   3.652   5.022  11.683  0.2314 -0.2204  0.2606
 6994TIP3    H145177   3.699   5.068  11.752 -0.3500  1.1141 -0.1918
 6994TIP3    H245178   3.569   5.070  11.674 -1.4009 -2.6751  1.2384
 6995TIP3   OH245179   3.649   0.022  11.064 -0.5694 -0.1967  0.5456
 6995TIP3    H145180   3.603   0.081  11.124  0.8635  0.4764  1.0490
 6995TIP3    H245181   3.581  -0.033  11.027 -1.7982  0.9481  1.0168
 6996TIP3   OH245182   0.778   2.949   9.081  0.5120  0.4420  0.4367
 6996TIP3    H145183   0.806   2.859   9.067 -0.1342  0.3980 -0.6811
 6996TIP3    H245184   0.684   2.943   9.099  0.8202  0.7414  2.4086
 6997TIP3   OH245185   2.763   6.448   8.708 -0.2471  0.2081  0.5604
 6997TIP3    H145186   2.730   6.359   8.698 -1.9592  0.5754  2.4293
 6997TIP3    H245187   2.696   6.504   8.668 -0.4602  0.7942  1.7129
 6998TIP3   OH245188   1.514   3.866  10.887 -0.0798  0.0604  0.3250
 6998TIP3    H145189   1.530   3.781  10.847 -0.2831  0.7162 -1.1974
 6998TIP3    H245190   1.436   3.900  10.843 -1.7334 -0.1484  2.8948
 6999TIP3   OH245191   3.691   1.899   8.183  0.1923  0.0320 -0.5115
 6999TIP3    H145192   3.786   1.895   8.170  0.4182  1.2731  0.5052
 6999TIP3    H245193   3.681   1.918   8.276 -1.1017 -1.1074 -0.4031
 7000TIP3   OH245194   5.180   1.700  11.434 -0.0432 -0.3099 -0.3334
 7000TIP3    H145195   5.240   1.770  11.407 -1.0353  0.7437  0.1480
 7000TIP3    H245196   5.099   1.717  11.387 -1.0614  0.2448  1.5412
 7001TIP3   OH245197   1.715   5.134   8.802 -0.6081 -0.2062  0.4994
 7001TIP3    H145198   1.772   5.062   8.774  0.3838  1.1529 -1.1632
 7001TIP3    H245199   1.633   5.120   8.754 -0.0354  0.3194 -0.6903
 7002TIP3   OH245200   0.356   6.226   9.740  0.0080  0.0479  0.0756
 7002TIP3    H145201   0.355   6.131   9.744  0.5730  0.0703  1.0474
 7002TIP3    H245202   0.303   6.255   9.814  0.8810  0.4840  0.5491
 7003TIP3   OH245203   2.786   2.257  10.167 -0.1439  0.2514  0.2887
 7003TIP3    H145204   2.737   2.253  10.249 -2.8068  1.4095 -1.1184
 7003TIP3    H245205   2.766   2.174  10.123  2.5914 -1.1099  1.3705
 7004TIP3   OH245206   1.715   6.270   9.308 -0.6629  0.2725  0.8979
 7004TIP3    H145207   1.692   6.214   9.233  1.0005  0.3623  0.2912
 7004TIP3    H245208   1.774   6.336   9.272 -0.8495  1.0993  2.0571
 7005TIP3   OH245209   1.091   4.915   9.520  0.4495  0.1467  0.2264
 7005TIP3    H145210   1.174   4.870   9.532  0.1943 -0.4361 -0.1406
 7005TIP3    H245211   1.054   4.921   9.609  1.6370  1.9363  0.6483
 7006TIP3   OH245212   5.183   3.960  10.576 -0.8743  0.1781 -0.6493
 7006TIP3    H145213   5.205   3.940  10.485  1.4050 -0.2901 -0.0681
 7006TIP3    H245214   5.166   4.054  10.576 -2.1590 -0.0093 -1.7319
 7007TIP3   OH245215   5.124   6.693  10.339 -0.9526 -0.2228 -0.1577
 7007TIP3    H145216   5.196   6.630  10.346  0.3140  1.1616 -0.1312
 7007TIP3    H245217   5.045   6.641  10.347  0.0700 -1.6667  0.9214
 7008TIP3   OH245218   4.675   2.600   9.325  0.2633  0.0413 -0.4659
 7008TIP3    H145219   4.716   2.548   9.256  1.5706  1.1522 -0.5689
 7008TIP3    H245220   4.616   2.659   9.279 -0.1636 -0.3790 -0.4676
 7009TIP3   OH245221   2.923   6.651  10.803 -0.4710  0.2992 -0.0537
 7009TIP3    H145222   2.972   6.670  10.883  1.4627 -3.4786 -0.0623
 7009TIP3    H245223   2.972   6.696  10.734  0.3232  0.2531  0.4608
 7010TIP3   OH245224   1.026   5.357  10.708 -0.1988 -0.4031  0.6107
 7010TIP3    H145225   1.043   5.280  10.762 -0.5059  0.3269  1.7859
 7010TIP3    H245226   0.992   5.422  10.769 -0.1425  0.6030 -0.3962
 7011TIP3   OH245227   2.539   2.117   9.467 -0.3616 -0.1876  0.0859
 7011TIP3    H145228   2.631   2.127   9.442 -0.3733 -1.1179 -0.3961
 7011TIP3    H245229   2.492   2.182   9.414  0.0570  0.6053  0.6710
 7012TIP3   OH245230   3.299   0.366   9.067 -0.2725 -0.5192 -0.2100
 7012TIP3    H145231   3.340   0.328   9.145 -1.1441  1.7928  1.4731
 7012TIP3    H245232   3.366   0.357   8.999 -0.3072 -4.6675  0.0498
 7013TIP3   OH245233   6.371   3.498  10.628 -0.0679 -0.3101 -0.1989
 7013TIP3    H145234   6.432   3.563  10.663 -0.8203 -0.0663  0.6853
 7013TIP3    H245235   6.360   3.523  10.536 -0.4553  0.9043  0.1650
 7014TIP3   OH245236   0.075   3.234  11.656  0.2394  0.0299  0.4223
 7014TIP3    H145237   0.153   3.211  11.708 -0.2149 -1.2867  0.5667
 7014TIP3    H245238   0.108   3.290  11.586  1.3764 -0.7285  0.3224
 7015TIP3   OH245239   6.746   0.199   8.195 -0.0235 -0.1359 -0.5800
 7015TIP3    H145240   6.825   0.196   8.248  0.8628  0.6892 -1.8044
 7015TIP3    H245241   6.674   0.201   8.258  0.8296 -2.3594  0.5622
 7016TIP3   OH245242   2.570   4.316  11.364  0.4323  0.6197 -0.3733
 7016TIP3    H145243   2.559   4.236  11.417 -0.6102  1.0675  0.1138
 7016TIP3    H245244   2.591   4.284  11.277 -1.3587 -0.2635 -0.5252
 7017TIP3   OH245245   3.221   2.003  10.166  0.3829  0.0089  0.2778
 7017TIP3    H145246   3.314   2.020  10.154  0.6829 -1.3922  0.4960
 7017TIP3    H245247   3.180   2.039  10.087  1.1877  0.0063 -0.1488
 7018TIP3   OH245248   2.216   0.103   9.147 -0.2921  0.1014 -0.3365
 7018TIP3    H145249   2.216   0.185   9.197  2.0811  1.4879 -2.3199
 7018TIP3    H245250   2.282   0.049   9.189 -1.0903 -0.3774  0.3255
 7019TIP3   OH245251   6.309   0.894   9.805 -0.0340  0.0004  0.0172
 7019TIP3    H145252   6.283   0.823   9.863 -0.3926  0.5878  0.5780
 7019TIP3    H245253   6.373   0.854   9.745  0.0746 -0.6880  0.5875
 7020TIP3   OH245254   5.105   2.824  10.814 -0.1158 -0.3293  1.0266
 7020TIP3    H145255   5.073   2.742  10.851  0.4087 -0.9932  0.0432
 7020TIP3    H245256   5.117   2.806  10.721  2.8567 -0.0754  1.2488
 7021TIP3   OH245257   2.981   5.839   9.412  0.2953 -0.6642  0.1516
 7021TIP3    H145258   2.994   5.803   9.500  1.2654  0.4804  0.5066
 7021TIP3    H245259   3.042   5.913   9.407  0.3373 -0.7748 -1.5280
 7022TIP3   OH245260   6.459   5.422  10.774  0.3251 -0.2369 -0.1898
 7022TIP3    H145261   6.474   5.423  10.869 -1.4726 -1.6630  0.1699
 7022TIP3    H245262   6.535   5.378  10.738  0.7044 -0.3049  0.6713
 7023TIP3   OH245263   0.219   3.004  10.448  0.0746  0.4237 -0.0162
 7023TIP3    H145264   0.190   2.945  10.518 -1.0381 -1.6600 -2.0849
 7023TIP3    H245265   0.311   2.981  10.434 -0.4424 -1.1620 -1.0425
 7024TIP3   OH245266   3.539   5.368   9.633  0.2821 -0.0134  0.0372
 7024TIP3    H145267   3.634   5.360   9.622  0.0742 -1.1999 -1.2151
 7024TIP3    H245268   3.528   5.398   9.723  1.8576  0.6158  0.0639
 7025TIP3   OH245269   3.439   4.306   8.027  0.7208  0.0247  0.3865
 7025TIP3    H145270   3.437   4.230   8.085  1.2604 -1.4886 -1.4661
 7025TIP3    H245271   3.527   4.343   8.040  1.3000 -1.0369 -0.2901
 7026TIP3   OH245272   6.273   0.630   8.659 -0.3978  0.0387  0.6272
 7026TIP3    H145273   6.229   0.599   8.580 -0.7043  1.3428  0.2559
 7026TIP3    H245274   6.313   0.713   8.633  1.5085 -0.6493  1.2117
 7027TIP3   OH245275   4.382   4.774   8.694 -0.1607  0.3843 -0.0191
 7027TIP3    H145276   4.325   4.741   8.763 -0.1256  0.4206  0.0271
 7027TIP3    H245277   4.384   4.869   8.708 -0.3220  0.4136 -0.1986
 7028TIP3   OH245278   5.731   1.051   9.225  0.0549 -0.0723 -0.7428
 7028TIP3    H145279   5.686   1.108   9.287 -0.3115 -0.5767 -0.5303
 7028TIP3    H245280   5.666   0.985   9.202  1.2527 -2.0811  1.1997
 7029TIP3   OH245281   0.788   0.593   9.085 -0.4416  0.5782 -0.4566
 7029TIP3    H145282   0.824   0.520   9.035  0.6060  0.9932 -0.3397
 7029TIP3    H245283   0.865   0.641   9.115 -1.0393  0.3321  1.5960
 7030TIP3   OH245284   3.882   0.204   9.187 -0.5580  0.5652  0.3158
 7030TIP3    H145285   3.796   0.188   9.148  0.6474 -2.5746 -1.4765
 7030TIP3    H245286   3.898   0.126   9.240  1.2081  1.0415  0.5196
 7031TIP3   OH245287   4.813   5.655   8.724 -0.5904  0.1736  0.2564
 7031TIP3    H145288   4.753   5.702   8.781 -0.2876  1.5647 -0.5287
 7031TIP3    H245289   4.898   5.697   8.738 -0.0659 -0.8840  0.3563
 7032TIP3   OH245290   1.649   3.037  11.033  0.3047 -0.0361 -0.1045
 7032TIP3    H145291   1.629   2.967  11.096  0.6206  0.7025  0.8363
 7032TIP3    H245292   1.637   3.118  11.083  2.9726  0.5233 -0.2187
 7033TIP3   OH245293   0.318   2.115  10.851 -0.2933 -0.1523  0.1892
 7033TIP3    H145294   0.409   2.113  10.822 -0.1898 -0.0469  0.5033
 7033TIP3    H245295   0.318   2.070  10.935 -0.5362 -0.1752  0.1774
 7034TIP3   OH245296   4.226   1.491  10.312 -0.3549  0.1136 -0.0147
 7034TIP3    H145297   4.300   1.487  10.251 -0.0733 -1.0523  0.3849
 7034TIP3    H245298   4.182   1.573  10.291  0.4140  0.2852 -1.0044
 7035TIP3   OH245299   1.187   3.047   9.971 -0.5881  0.2648 -0.1856
 7035TIP3    H145300   1.114   3.100  10.002 -0.7077 -0.0150  0.0153
 7035TIP3    H245301   1.147   2.964   9.944 -0.0535 -1.0190  2.5965
 7036TIP3   OH245302   5.196   4.947  10.294 -0.0169 -0.8992  0.1223
 7036TIP3    H145303   5.185   5.029  10.247  1.7512 -1.0537 -0.6689
 7036TIP3    H245304   5.204   4.972  10.386  0.1812 -0.2063 -0.0815
 7037TIP3   OH245305   5.060   1.134   9.118  0.3094 -0.5700 -0.1403
 7037TIP3    H145306   5.102   1.169   9.196 -0.0816 -0.2118 -0.0853
 7037TIP3    H245307   4.974   1.105   9.148 -1.6071  3.4232 -1.1535
 7038TIP3   OH245308   4.129   6.725  16.402  0.2789 -0.2195  0.3010
 7038TIP3    H145309   4.135   6.803  16.346 -0.2405 -0.7673 -0.5203
 7038TIP3    H245310   4.078   6.662  16.351  0.2081 -0.9011  1.1939
 7039TIP3   OH245311   0.792   2.109   8.309 -0.4461 -0.2431 -0.6408
 7039TIP3    H145312   0.828   2.046   8.371 -1.0948  0.0854  0.0911
 7039TIP3    H245313   0.857   2.179   8.305 -0.8457  0.2067  0.4442
 7040TIP3   OH245314   3.720   5.154  10.255  0.5245  0.2732  0.8344
 7040TIP3    H145315   3.762   5.211  10.319  0.3359  0.9067  0.3981
 7040TIP3    H245316   3.792   5.121  10.201  0.8524 -1.2858  2.1392
 7041TIP3   OH245317   4.015   4.770   9.121 -0.3717 -0.0393  0.3284
 7041TIP3    H145318   4.030   4.676   9.136 -0.4803  0.2345  2.3752
 7041TIP3    H245319   3.930   4.773   9.077 -0.1782 -0.9147 -0.1407
 7042TIP3   OH245320   4.892   0.197  10.431 -0.1317  0.3815  0.2958
 7042TIP3    H145321   4.826   0.219  10.366  1.4313 -3.9283 -3.2515
 7042TIP3    H245322   4.846   0.146  10.497 -0.6414 -2.6618 -2.1826
 7043TIP3   OH245323   6.228   0.684   9.560  0.1517 -0.5720  0.1643
 7043TIP3    H145324   6.186   0.752   9.507  0.7152  0.1272  0.6066
 7043TIP3    H245325   6.322   0.704   9.554  0.2907 -1.0801  0.6191
 7044TIP3   OH245326   5.420   4.993   9.739  0.5835 -0.2198  0.2149
 7044TIP3    H145327   5.437   5.087   9.739  1.0081 -0.2738  2.1563
 7044TIP3    H245328   5.506   4.953   9.729  0.7044 -0.4075  1.8596
 7045TIP3   OH245329   0.805   2.863   8.001  0.3239 -0.8668  0.1202
 7045TIP3    H145330   0.852   2.843   8.081  0.9449  0.6884  0.1826
 7045TIP3    H245331   0.854   2.819   7.931  1.9854  0.7965  0.1725
 7046TIP3   OH245332   2.673   5.025   9.241  0.0590 -0.1397 -0.1395
 7046TIP3    H145333   2.722   5.083   9.299  0.0898 -0.5528  0.2567
 7046TIP3    H245334   2.605   5.080   9.203 -1.0266 -0.2306  1.5790
 7047TIP3   OH245335   2.981   1.509   9.080  0.1648  0.0545  0.3437
 7047TIP3    H145336   3.002   1.477   9.168  0.1415 -0.5875  0.1225
 7047TIP3    H245337   3.041   1.460   9.023 -0.1618  0.1070 -0.0415
 7048TIP3   OH245338   5.900   6.317   8.162  0.0635  0.0500 -0.1512
 7048TIP3    H145339   5.954   6.323   8.083 -2.4616  0.5685 -1.9370
 7048TIP3    H245340   5.863   6.229   8.159 -1.2829  0.5975 -0.4567
 7049TIP3   OH245341   4.381   6.219   9.574 -0.4957 -0.4649 -0.3196
 7049TIP3    H145342   4.386   6.187   9.664 -0.2602  1.4472  0.3927
 7049TIP3    H245343   4.472   6.229   9.547 -0.5661 -1.1356 -0.8247
 7050TIP3   OH245344   3.428   0.246   9.300  0.5542 -0.1126 -0.0063
 7050TIP3    H145345   3.483   0.309   9.348  1.8064 -1.5926  0.6038
 7050TIP3    H245346   3.483   0.167   9.293 -1.2165 -1.4045 -0.0676
 7051TIP3   OH245347   6.741   2.726   7.879 -0.1926 -0.3115  0.6604
 7051TIP3    H145348   6.791   2.752   7.957  0.1916 -0.9177  0.6240
 7051TIP3    H245349   6.714   2.809   7.839 -1.9209 -0.0013  2.3907
 7052TIP3   OH245350   6.677   3.328  11.342  0.9319  0.0601 -0.5281
 7052TIP3    H145351   6.692   3.235  11.323  0.6358 -0.2882  0.8471
 7052TIP3    H245352   6.753   3.355  11.393  0.8821  0.5114 -0.6854
 7053TIP3   OH245353   6.172   6.603   8.428  0.6420 -0.2788  0.4093
 7053TIP3    H145354   6.213   6.689   8.431 -2.3747  1.6659 -4.1104
 7053TIP3    H245355   6.223   6.554   8.363  0.0052 -0.4099  0.0015
 7054TIP3   OH245356   1.616   5.921   8.586 -0.4106 -0.3472 -0.5678
 7054TIP3    H145357   1.534   5.956   8.552 -0.0802  0.5626 -0.4641
 7054TIP3    H245358   1.591   5.839   8.629 -1.4006  0.2964  0.1410
 7055TIP3   OH245359   3.505   2.763   8.520  0.0324  0.4565  0.3171
 7055TIP3    H145360   3.596   2.754   8.493 -0.2128  0.6143 -0.5962
 7055TIP3    H245361   3.509   2.773   8.615  0.9703  0.5510  0.2780
 7056TIP3   OH245362   0.851   4.743   8.155  0.2716 -0.4653 -0.1036
 7056TIP3    H145363   0.851   4.796   8.075 -2.0379 -0.7979 -0.3780
 7056TIP3    H245364   0.765   4.757   8.194  1.2907 -0.4239  2.3014
 7057TIP3   OH245365   0.432   3.884   9.640  0.3356 -0.2850 -0.4674
 7057TIP3    H145366   0.444   3.939   9.717 -0.0504  0.7635 -1.1263
 7057TIP3    H245367   0.516   3.840   9.628  0.6869  0.2410  0.0318
 7058TIP3   OH245368   4.300   4.099   8.624 -0.1243 -0.1131  0.2681
 7058TIP3    H145369   4.218   4.142   8.599  0.4383  0.7365 -0.1668
 7058TIP3    H245370   4.355   4.170   8.658  0.5185 -0.6291  0.3183
 7059TIP3   OH245371   5.068   5.781   9.347 -0.0167  0.2014 -0.0444
 7059TIP3    H145372   5.145   5.829   9.315 -0.0943  0.8320  0.6638
 7059TIP3    H245373   5.002   5.792   9.278  0.8652 -1.2864 -1.1653
 7060TIP3   OH245374   4.232   3.123   8.951 -0.2620 -0.2430 -0.0123
 7060TIP3    H145375   4.290   3.197   8.931  0.5113 -0.8549 -0.0991
 7060TIP3    H245376   4.246   3.107   9.045 -3.0688  1.9318  0.8988
 7061TIP3   OH245377   6.028   3.145   7.780 -0.2181 -0.2679  0.0989
 7061TIP3    H145378   6.029   3.217   7.716  0.6174 -0.7901 -0.4950
 7061TIP3    H245379   6.050   3.187   7.863 -0.1688  0.2378 -0.1644
 7062TIP3   OH245380   0.505   1.615  10.624 -0.1117 -0.2234 -0.5317
 7062TIP3    H145381   0.589   1.630  10.667 -1.0329 -1.0190  1.7176
 7062TIP3    H245382   0.448   1.684  10.659 -0.6276 -0.2309 -1.3364
 7063TIP3   OH245383   2.346   0.089  10.183 -0.3600  0.0810 -0.1040
 7063TIP3    H145384   2.372  -0.001  10.203 -2.2914 -0.3819  0.6045
 7063TIP3    H245385   2.408   0.144  10.232 -0.7341 -0.9309  1.5855
 7064TIP3   OH245386   0.799   1.868   8.960  0.3948 -0.1239  0.2012
 7064TIP3    H145387   0.816   1.774   8.974 -0.0351 -0.3351 -0.5942
 7064TIP3    H245388   0.884   1.905   8.938  0.4817 -0.4382 -0.0044
 7065TIP3   OH245389   3.639   4.944   9.215  0.4677  0.4326  0.4584
 7065TIP3    H145390   3.659   4.996   9.292 -3.6430  0.8822  1.4875
 7065TIP3    H245391   3.613   5.009   9.149  2.8090 -0.0180 -1.0095
 7066TIP3   OH245392   2.036   3.727  10.693 -0.1891 -0.3277  0.1431
 7066TIP3    H145393   1.983   3.721  10.773  0.1553 -0.0695  0.3934
 7066TIP3    H245394   2.123   3.697  10.720  0.2268  0.8599  0.1517
 7067TIP3   OH245395   4.404   2.982  10.017 -0.7819  0.3791  0.1530
 7067TIP3    H145396   4.411   3.038  10.094 -1.4851  0.1283  0.4144
 7067TIP3    H245397   4.441   2.898  10.045 -1.5622  0.1123  0.4136
 7068TIP3   OH245398   4.977   0.600   8.833 -0.0316  0.4757  0.4751
 7068TIP3    H145399   4.904   0.598   8.895  0.1062 -0.0245  0.6224
 7068TIP3    H245400   5.053   0.621   8.886  0.2429 -0.8689  0.6414
 7069TIP3   OH245401   0.463   1.205   9.902  0.0842 -0.1939  0.0917
 7069TIP3    H145402   0.408   1.267   9.951  0.8383  0.0894  0.5997
 7069TIP3    H245403   0.449   1.228   9.810  0.1675  0.5681  0.2658
 7070TIP3   OH245404   0.708   2.514   9.903  0.4170  0.6613  1.3460
 7070TIP3    H145405   0.771   2.460   9.951 -0.2010 -0.7321  0.6665
 7070TIP3    H245406   0.651   2.450   9.860 -0.4633  1.8843  0.6509
 7071TIP3   OH245407   6.389   0.527   9.797 -0.2640  0.5128 -0.3598
 7071TIP3    H145408   6.353   0.516   9.709 -0.6433 -0.9729 -0.0538
 7071TIP3    H245409   6.466   0.582   9.786  0.3772 -0.6132 -1.8087
 7072TIP3   OH245410   4.109   3.990  10.378 -0.2139 -0.0884  0.5512
 7072TIP3    H145411   4.076   4.025  10.295 -2.3887 -1.9985  0.5122
 7072TIP3    H245412   4.119   4.067  10.434 -0.2290  1.0680 -0.9644
 7073TIP3   OH245413   0.632   1.206   9.476  0.2927 -0.3606 -0.1133
 7073TIP3    H145414   0.653   1.245   9.391  0.8074 -0.9860 -0.2794
 7073TIP3    H245415   0.685   1.126   9.479  0.5476 -0.1566  0.9443
 7074TIP3   OH245416   1.485   2.540  10.771 -0.2063  0.7332 -0.0178
 7074TIP3    H145417   1.560   2.495  10.731 -0.3850  1.2369 -0.9448
 7074TIP3    H245418   1.409   2.502  10.727 -0.4374  0.9731  0.1728
 7075TIP3   OH245419   2.878   0.531  11.297  0.2742  0.2638  0.1825
 7075TIP3    H145420   2.892   0.608  11.242  0.7788  0.3150  0.3835
 7075TIP3    H245421   2.845   0.464  11.236  0.3145  0.4830 -0.0834
 7076TIP3   OH245422   2.173   3.867   9.451  0.3400 -0.0959 -0.0667
 7076TIP3    H145423   2.101   3.876   9.513 -0.0793  0.8480 -0.6615
 7076TIP3    H245424   2.168   3.777   9.420 -1.0320  0.1444 -0.6059
 7077TIP3   OH245425   6.151   2.813   9.278 -0.3022  0.1124  0.3316
 7077TIP3    H145426   6.205   2.834   9.202 -2.3500 -0.1406 -1.3218
 7077TIP3    H245427   6.164   2.719   9.291  0.8606  0.3555  0.9886
 7078TIP3   OH245428   5.476   0.773   9.534 -0.7274  0.2778 -0.1701
 7078TIP3    H145429   5.490   0.687   9.495 -0.2633 -0.2166  1.0387
 7078TIP3    H245430   5.564   0.806   9.552 -0.9276  0.4908  0.4537
 7079TIP3   OH245431   1.309   0.119   9.571 -0.1793 -0.4810 -0.1160
 7079TIP3    H145432   1.333   0.027   9.559  0.7446 -0.5255  1.6890
 7079TIP3    H245433   1.215   0.117   9.587  0.0953 -1.3748  1.6815
 7080TIP3   OH245434   4.368   1.966  10.488  0.1564 -0.2928  0.0243
 7080TIP3    H145435   4.404   2.054  10.484 -0.9588  0.1253 -1.7701
 7080TIP3    H245436   4.278   1.975  10.457 -0.0086 -2.0464 -0.1150
 7081TIP3   OH245437   4.102   1.727  10.254 -0.0862 -0.5529  0.0312
 7081TIP3    H145438   4.078   1.811  10.214 -1.2246 -0.6828  0.4096
 7081TIP3    H245439   4.145   1.679  10.183  0.1167  0.1500 -0.3351
 7082TIP3   OH245440   1.589   2.146   8.497  0.7376 -0.5671 -1.0092
 7082TIP3    H145441   1.639   2.106   8.426  1.0679 -0.1611 -1.0106
 7082TIP3    H245442   1.518   2.193   8.453  0.0811 -1.5023 -0.9835
 7083TIP3   OH245443   5.072   5.761   8.814  0.0713 -0.3436 -0.6488
 7083TIP3    H145444   5.132   5.714   8.873  0.8381 -1.4721 -2.2529
 7083TIP3    H245445   5.063   5.847   8.854  0.1782 -1.1925  1.3693
 7084TIP3   OH245446   4.606   2.315  10.262  0.0067  0.4192  0.0498
 7084TIP3    H145447   4.642   2.399  10.294  1.4629  0.0959 -0.6483
 7084TIP3    H245448   4.573   2.335  10.175 -0.6276  0.4879  0.2986
 7085TIP3   OH245449   0.399   0.848   8.137  0.3012 -0.4288 -0.0048
 7085TIP3    H145450   0.334   0.790   8.177 -0.4978  0.3973 -0.0889
 7085TIP3    H245451   0.413   0.811   8.050 -3.0219  1.4918 -1.5746
 7086TIP3   OH245452   5.217   4.049  10.313 -0.3946 -1.1615 -0.0956
 7086TIP3    H145453   5.226   4.054  10.218  0.9108  0.3997  0.0542
 7086TIP3    H245454   5.148   4.111  10.334  0.2894 -0.4223  0.0497
 7087TIP3   OH245455   4.183   4.307   8.837  0.6726  0.2726 -0.3598
 7087TIP3    H145456   4.217   4.383   8.884  0.9871 -0.0648 -0.0450
 7087TIP3    H245457   4.092   4.300   8.867  0.8705  0.0573  0.2038
 7088TIP3   OH245458   2.002   1.538   9.199  0.4428  0.5113 -0.2983
 7088TIP3    H145459   2.085   1.493   9.218 -0.5091 -1.7055 -1.0381
 7088TIP3    H245460   1.958   1.543   9.284 -0.1326 -1.5591 -0.4151
 7089TIP3   OH245461   1.778   1.822   9.040  0.8344 -0.0410 -0.0835
 7089TIP3    H145462   1.799   1.807   9.132  1.6950 -0.7048 -0.3848
 7089TIP3    H245463   1.860   1.852   9.001  0.3891  0.5718 -0.5702
 7090TIP3   OH245464   1.798   4.050   9.777 -0.8599 -0.1043  0.0488
 7090TIP3    H145465   1.837   4.108   9.841  0.0884 -0.3171 -0.3193
 7090TIP3    H245466   1.794   3.965   9.820 -0.4934 -0.1829 -0.0726
 7091TIP3   OH245467   2.714   0.811   8.139  1.0161  0.4713  0.0621
 7091TIP3    H145468   2.692   0.890   8.090  2.7786  0.7182 -0.4190
 7091TIP3    H245469   2.810   0.808   8.138  0.9993 -1.7301 -0.0236
 7092TIP3   OH245470   0.403   6.607   7.666 -0.1059  0.0980  0.3061
 7092TIP3    H145471   0.448   6.525   7.685  0.6283  0.7031  1.3063
 7092TIP3    H245472   0.467   6.659   7.618  0.3534  1.0135  1.8455
 7093TIP3   OH245473   1.771   3.286  10.279 -0.1261  0.2999  0.2818
 7093TIP3    H145474   1.691   3.310  10.326 -0.6743 -1.2600  0.2085
 7093TIP3    H245475   1.759   3.321  10.191 -1.0630 -0.5309  0.0650
 7094TIP3   OH245476   2.168   5.736  10.785  0.2287 -0.1212  0.1176
 7094TIP3    H145477   2.073   5.737  10.770  0.2622  0.4071 -0.0833
 7094TIP3    H245478   2.182   5.803  10.851  0.6146  0.7927 -0.8565
 7095TIP3   OH245479   1.777   1.139  10.442  0.0432 -0.1287  0.5826
 7095TIP3    H145480   1.818   1.209  10.391  1.3664 -1.6698 -0.5856
 7095TIP3    H245481   1.694   1.122  10.397  0.9332 -1.0776 -0.7955
 7096TIP3   OH245482   2.881   3.360   8.349 -0.0384 -0.3997  0.1611
 7096TIP3    H145483   2.923   3.441   8.379 -0.0726 -0.4900  0.4550
 7096TIP3    H245484   2.913   3.348   8.260  0.7202 -0.5812  0.4580
 7097TIP3   OH245485   6.684   3.381   9.945 -0.7843  0.0638  0.5145
 7097TIP3    H145486   6.684   3.289   9.916  1.2248  0.1588  0.0822
 7097TIP3    H245487   6.708   3.376  10.038 -1.1277  0.1227  0.6058
 7098TIP3   OH245488   3.316   0.398   9.860 -1.1334  0.7624  0.1614
 7098TIP3    H145489   3.253   0.339   9.901  1.5017 -1.8346  0.7839
 7098TIP3    H245490   3.342   0.353   9.779  0.4722  1.3594  0.3089
 7099TIP3   OH245491   0.946   5.987   8.224  0.2020 -0.2056 -0.2133
 7099TIP3    H145492   1.021   6.034   8.187  0.1297  1.1558  1.2709
 7099TIP3    H245493   0.918   5.928   8.154  1.8867  0.1363 -1.2323
 7100TIP3   OH245494   1.525   0.964   9.658  0.3085 -0.3851 -0.0697
 7100TIP3    H145495   1.596   0.996   9.602  1.5583 -2.1641  0.3972
 7100TIP3    H245496   1.568   0.902   9.717 -1.5849 -1.2287  0.4920
 7101TIP3   OH245497   1.911   2.530   9.116  0.4076 -0.1928 -0.1431
 7101TIP3    H145498   1.873   2.558   9.033 -0.8445 -0.8144  0.2063
 7101TIP3    H245499   1.983   2.471   9.090 -0.1337 -0.5913 -0.7916
 7102TIP3   OH245500   4.998   1.295   9.705  0.0030 -0.0653 -0.1355
 7102TIP3    H145501   5.003   1.199   9.703 -0.5218 -0.1088  0.5111
 7102TIP3    H245502   4.927   1.314   9.765  1.5811  0.7703  1.5633
 7103TIP3   OH245503   3.740   6.599  10.731  0.5039 -0.0565  0.3352
 7103TIP3    H145504   3.674   6.562  10.789 -0.0086  0.4099  0.0633
 7103TIP3    H245505   3.759   6.685  10.768  0.7090 -0.0526  0.2228
 7104TIP3   OH245506   0.888   6.594   8.239  0.3395  0.4479  0.1096
 7104TIP3    H145507   0.920   6.599   8.329  0.3491  1.5971  0.0584
 7104TIP3    H245508   0.940   6.660   8.191 -1.0507  1.3011 -0.2888
 7105TIP3   OH245509   4.542   5.763  11.375  0.0911  0.5376  0.4266
 7105TIP3    H145510   4.637   5.769  11.370  0.0569 -0.0310 -1.3728
 7105TIP3    H245511   4.509   5.826  11.311 -0.7426  0.4639  0.7611
 7106TIP3   OH245512   0.895   1.562   8.367 -0.2933 -0.4052 -0.1390
 7106TIP3    H145513   0.840   1.574   8.290  0.7335  2.5623 -0.5729
 7106TIP3    H245514   0.837   1.578   8.441 -0.1976  2.6269 -0.5887
 7107TIP3   OH245515   0.059   4.825   8.119 -0.2413 -0.1294 -0.7104
 7107TIP3    H145516   0.016   4.740   8.116 -0.6501 -0.1193  2.0667
 7107TIP3    H245517   0.150   4.807   8.098 -0.1695 -1.4363  0.5437
 7108TIP3   OH245518   0.069   2.937   9.231  0.3923  1.0688  0.0905
 7108TIP3    H145519   0.024   2.909   9.151  0.1542  2.1694 -0.1796
 7108TIP3    H245520   0.009   2.914   9.302  0.9474 -0.6318  0.0389
 7109TIP3   OH245521   3.452   2.909   9.095 -0.0263  0.0480  0.4577
 7109TIP3    H145522   3.482   2.997   9.115 -0.3135  0.7449 -1.9189
 7109TIP3    H245523   3.390   2.888   9.165 -0.4839  2.0060  0.6717
 7110TIP3   OH245524   0.349   0.766  10.437 -0.5623  0.0779 -0.5733
 7110TIP3    H145525   0.359   0.811  10.521 -0.2695 -2.0689  0.6121
 7110TIP3    H245526   0.284   0.698  10.454  0.5572 -1.3164 -1.6582
 7111TIP3   OH245527   0.786   2.637  10.984 -0.2044 -0.2187  0.2818
 7111TIP3    H145528   0.725   2.711  10.984  1.6465  1.3798  0.4945
 7111TIP3    H245529   0.762   2.587  11.062 -1.4243  0.1940  0.1946
 7112TIP3   OH245530   5.197   0.691   8.977 -0.4268  0.1223  0.1340
 7112TIP3    H145531   5.180   0.782   8.953  0.7558  0.1170 -0.7969
 7112TIP3    H245532   5.234   0.697   9.066 -2.2492  0.3552  0.9196
 7113TIP3   OH245533   2.693   2.450   9.148  0.0705  0.0695  0.2057
 7113TIP3    H145534   2.649   2.531   9.172  0.1314  0.5743 -1.3206
 7113TIP3    H245535   2.636   2.409   9.084  0.5569 -0.5815  0.1751
 7114TIP3   OH245536   6.158   2.784   9.638 -0.0709 -0.0752  0.2548
 7114TIP3    H145537   6.214   2.862   9.631 -0.8015  0.5708  1.3239
 7114TIP3    H245538   6.198   2.732   9.708 -1.1149  0.6790  1.4403
 7115TIP3   OH245539   0.899   4.661  11.347  0.0331  0.5231  0.3957
 7115TIP3    H145540   0.846   4.646  11.426 -0.0823  0.0052  0.2232
 7115TIP3    H245541   0.897   4.755  11.335  0.1376  0.6216  1.0759
 7116TIP3   OH245542   0.066   0.423   7.618  0.5610 -0.1155  0.5103
 7116TIP3    H145543   0.004   0.365   7.573  0.2586  0.6691 -0.1219
 7116TIP3    H245544   0.135   0.365   7.648 -0.0268 -0.8887  0.4194
 7117TIP3   OH245545   0.489   4.012   9.919  0.0060 -0.0172 -0.3793
 7117TIP3    H145546   0.570   3.962   9.920  0.3449  0.5221 -0.3514
 7117TIP3    H245547   0.479   4.044  10.008 -1.4995 -2.0411  0.2596
 7118TIP3   OH245548   2.039   3.207  10.758  0.2534  0.1114 -0.0120
 7118TIP3    H145549   2.118   3.154  10.758 -1.0682 -1.9877 -0.8971
 7118TIP3    H245550   2.001   3.194  10.845  0.7803  0.9765  0.3522
 7119TIP3   OH245551   6.441   3.758   8.624 -0.0600 -0.2131  0.1591
 7119TIP3    H145552   6.415   3.815   8.551  0.3660 -1.3879 -0.9567
 7119TIP3    H245553   6.504   3.810   8.674  0.0992  0.4037 -0.6651
 7120TIP3   OH245554   2.891   4.278   9.625 -0.1903  0.1053  0.2951
 7120TIP3    H145555   2.824   4.253   9.688  0.7910  1.8727  2.1321
 7120TIP3    H245556   2.952   4.204   9.623 -1.1094 -0.6559  0.1374
 7121TIP3   OH245557   2.221   4.471  10.228 -0.4204  0.3533  0.4581
 7121TIP3    H145558   2.225   4.470  10.324 -0.6702 -0.6767  0.4632
 7121TIP3    H245559   2.291   4.413  10.200 -1.0183 -0.1902  0.0488
 7122TIP3   OH245560   4.528   0.896   9.392  0.0532  0.3620  0.3831
 7122TIP3    H145561   4.525   0.929   9.302 -0.0150 -1.3569 -0.2933
 7122TIP3    H245562   4.595   0.949   9.435  0.0560  1.2471 -0.6666
 7123TIP3   OH245563   3.633   3.228   8.756  0.0018  0.0341 -0.4646
 7123TIP3    H145564   3.701   3.176   8.801 -0.2568  0.0042 -0.1097
 7123TIP3    H245565   3.631   3.191   8.668 -0.3652 -0.7434 -0.1372
 7124TIP3   OH245566   1.135   5.456  10.327  0.0067 -0.3202  0.3770
 7124TIP3    H145567   1.204   5.441  10.262  0.9168 -0.8709  1.4136
 7124TIP3    H245568   1.181   5.448  10.411 -1.0262  0.9177  1.0780
 7125TIP3   OH245569   0.502   5.892  10.342  0.0705 -0.2616  0.2931
 7125TIP3    H145570   0.433   5.831  10.369  0.0486 -0.6203 -0.5533
 7125TIP3    H245571   0.534   5.929  10.424 -0.3509 -0.9391  0.7759
 7126TIP3   OH245572   6.456   3.465   9.235  0.1510  0.3858 -0.0568
 7126TIP3    H145573   6.543   3.480   9.272  0.2561  1.2648 -0.6181
 7126TIP3    H245574   6.448   3.370   9.229  0.6991  0.2756  0.8557
 7127TIP3   OH245575   1.748   4.634  10.868  0.0394 -0.2512 -0.1656
 7127TIP3    H145576   1.805   4.559  10.851 -0.4797 -0.8093  0.5087
 7127TIP3    H245577   1.768   4.660  10.958 -0.5250 -0.2417 -0.0385
 7128TIP3   OH245578   4.424   2.656  10.419  0.3469 -0.1637 -0.0020
 7128TIP3    H145579   4.382   2.584  10.371 -3.7910  0.9090  1.5787
 7128TIP3    H245580   4.457   2.614  10.499  1.3296 -0.8491 -0.7388
 7129TIP3   OH245581   2.696   3.518   9.912  0.5125 -0.2391  0.6735
 7129TIP3    H145582   2.618   3.495   9.962 -0.0845  1.8160  0.7509
 7129TIP3    H245583   2.739   3.585   9.964 -0.7334  2.8517 -1.9341
 7130TIP3   OH245584   5.358   5.271  10.296  0.1045 -0.0781  0.3415
 7130TIP3    H145585   5.328   5.361  10.302  1.0635  0.3598 -1.0268
 7130TIP3    H245586   5.280   5.221  10.274 -0.2147  0.6014 -0.0904
 7131TIP3   OH245587   2.399   6.107   8.946  0.5922  0.4317 -0.6248
 7131TIP3    H145588   2.427   6.051   8.873  0.0267  0.3437 -0.7799
 7131TIP3    H245589   2.478   6.118   9.000  0.9238  0.2049 -1.0598
 7132TIP3   OH245590   2.955   3.262  10.670  0.0254  0.4888  0.2875
 7132TIP3    H145591   2.984   3.337  10.722  3.1357  0.0915 -0.6946
 7132TIP3    H245592   3.035   3.222  10.638 -1.6618 -0.8496 -2.6854
 7133TIP3   OH245593   0.298   6.534   9.093  0.7578  0.2482 -0.4248
 7133TIP3    H145594   0.388   6.500   9.094  0.2003 -1.3608 -1.0086
 7133TIP3    H245595   0.301   6.611   9.150  2.4392  0.0652 -0.1993
 7134TIP3   OH245596   1.354   1.917   8.182  0.0118  0.4565 -0.3880
 7134TIP3    H145597   1.397   1.871   8.110 -0.7444  3.1679 -2.7806
 7134TIP3    H245598   1.261   1.897   8.170 -0.0905  0.6161  0.1135
 7135TIP3   OH245599   2.262   0.631   9.769 -0.5653  0.1092  0.1572
 7135TIP3    H145600   2.357   0.626   9.767 -0.4932  1.4786 -1.3800
 7135TIP3    H245601   2.243   0.724   9.781 -1.7221 -0.2675  1.4414
 7136TIP3   OH245602   0.750   2.477   7.752 -0.1414 -0.1984  0.1583
 7136TIP3    H145603   0.720   2.488   7.842 -0.3067 -0.1102  0.0921
 7136TIP3    H245604   0.802   2.555   7.734  2.2715 -1.4741  1.1273
 7137TIP3   OH245605   3.753   1.170   9.146  0.2931  0.1843 -0.7773
 7137TIP3    H145606   3.709   1.199   9.066  0.2015 -0.7244 -1.0770
 7137TIP3    H245607   3.840   1.141   9.117 -0.5278 -2.3574 -1.0044
 7138TIP3   OH245608   4.257   2.643  10.852 -0.3150 -0.1177  0.3270
 7138TIP3    H145609   4.311   2.669  10.926  0.6075 -1.1143  0.0330
 7138TIP3    H245610   4.249   2.548  10.860 -0.0288 -0.2734 -0.9356
 7139TIP3   OH245611   3.739   4.566   9.474 -0.6331 -0.2078  0.4051
 7139TIP3    H145612   3.737   4.546   9.567 -0.5068 -0.0148  0.4509
 7139TIP3    H245613   3.654   4.537   9.441 -0.5256 -0.6355  0.5029
 7140TIP3   OH245614   5.356   2.480   8.352  0.2987 -0.5940 -0.1481
 7140TIP3    H145615   5.341   2.386   8.362  0.5012 -0.6437 -0.3041
 7140TIP3    H245616   5.381   2.509   8.440  2.4379 -1.0947 -0.5140
 7141TIP3   OH245617   3.807   6.459   8.705 -0.8131 -0.3867  0.3477
 7141TIP3    H145618   3.897   6.490   8.714 -1.0433  0.0894  1.1341
 7141TIP3    H245619   3.795   6.446   8.611  0.3732 -1.3803  0.3189
 7142TIP3   OH245620   3.490   4.696   9.297  0.5544  0.3117  0.3612
 7142TIP3    H145621   3.501   4.625   9.234  0.2134 -0.6860  1.4215
 7142TIP3    H245622   3.524   4.773   9.250  2.6555 -0.8321 -0.1490
 7143TIP3   OH245623   0.117   5.220   8.811  0.3175 -0.0825 -0.3233
 7143TIP3    H145624   0.201   5.176   8.799 -0.0741 -1.1938  0.7377
 7143TIP3    H245625   0.054   5.166   8.763 -0.0235 -0.1614  0.2014
 7144TIP3   OH245626   3.925   0.686   7.972  0.1966  0.8027  0.5271
 7144TIP3    H145627   3.898   0.748   8.039  0.4390  2.3567 -0.7390
 7144TIP3    H245628   3.992   0.733   7.921  0.7376 -0.6766 -0.2016
 7145TIP3   OH245629   4.093   3.429   9.956 -0.2687  0.5663  0.3577
 7145TIP3    H145630   4.119   3.515   9.924  2.4584 -0.7562 -1.3525
 7145TIP3    H245631   4.102   3.435  10.051  2.9740  1.3681  0.1052
 7146TIP3   OH245632   1.128   0.388  11.140 -0.0350  0.1411 -0.4570
 7146TIP3    H145633   1.136   0.483  11.133  1.2162 -0.0309 -1.8555
 7146TIP3    H245634   1.186   0.364  11.212  0.4230  0.3595 -0.7450
 7147TIP3   OH245635   2.649   5.556   9.816 -0.0782  0.1975 -0.2108
 7147TIP3    H145636   2.720   5.614   9.842  0.2902  0.0449 -0.8452
 7147TIP3    H245637   2.574   5.585   9.867  0.1510  1.1044 -0.3718
 7148TIP3   OH245638   0.377   0.628  10.812  0.1885  0.1433  0.7084
 7148TIP3    H145639   0.324   0.550  10.829  1.9197 -1.4806 -0.8760
 7148TIP3    H245640   0.420   0.646  10.895 -1.7089  0.6562  1.6322
 7149TIP3   OH245641   1.037   5.376  11.147  0.1272 -0.4072 -0.2598
 7149TIP3    H145642   1.127   5.373  11.180 -0.2946 -2.2466  0.8300
 7149TIP3    H245643   1.025   5.467  11.120  1.6967  0.3485  1.3697
 7150TIP3   OH245644   2.054   1.048   8.090  0.3391 -0.5050 -0.1127
 7150TIP3    H145645   2.051   1.057   8.185  1.1729 -1.9107  0.0800
 7150TIP3    H245646   1.979   0.992   8.068 -0.5280  0.7449 -0.4386
 7151TIP3   OH245647   1.375   6.604  10.553  0.1602 -0.8834 -0.1599
 7151TIP3    H145648   1.297   6.659  10.549 -1.0265 -2.5696 -1.9084
 7151TIP3    H245649   1.442   6.654  10.505 -0.9370 -0.9738 -1.8792
 7152TIP3   OH245650   4.853   1.193  10.190 -0.7839  0.0762  0.1363
 7152TIP3    H145651   4.803   1.219  10.267 -1.0801 -0.8918  0.2916
 7152TIP3    H245652   4.790   1.145  10.135  0.0085 -1.4429  0.4874
 7153TIP3   OH245653   3.142   5.186   8.915  0.1588  0.2100  0.4979
 7153TIP3    H145654   3.200   5.256   8.946  4.0398 -0.8606 -3.2917
 7153TIP3    H245655   3.166   5.175   8.823 -2.4155 -4.0840  0.1000
 7154TIP3   OH245656   3.897   0.880   8.608 -0.3916  0.3162 -0.2578
 7154TIP3    H145657   3.871   0.901   8.698  2.0817 -1.2461  0.9118
 7154TIP3    H245658   3.877   0.787   8.598  0.2224  0.2543 -1.0010
 7155TIP3   OH245659   1.606   0.818  11.074 -0.0048  0.1563  0.4751
 7155TIP3    H145660   1.554   0.833  11.153 -0.9723 -2.3934  0.4179
 7155TIP3    H245661   1.695   0.806  11.106  0.1496  1.9254  0.8384
 7156TIP3   OH245662   4.987   4.394  11.435 -0.3011 -0.2158 -0.0612
 7156TIP3    H145663   4.899   4.356  11.440 -0.3004 -0.6066 -2.1155
 7156TIP3    H245664   4.971   4.487  11.418 -0.2859  0.4353  3.0014
 7157TIP3   OH245665   2.342   4.555   9.543  0.0835  0.0377  0.8068
 7157TIP3    H145666   2.346   4.460   9.532 -1.0874  0.1577 -1.0950
 7157TIP3    H245667   2.360   4.590   9.455  0.1036  1.5686  1.3864
 7158TIP3   OH245668   5.904   2.934  11.144 -0.1405  0.2725 -0.3400
 7158TIP3    H145669   5.864   3.016  11.173 -1.8927 -0.5413 -0.3027
 7158TIP3    H245670   5.943   2.897  11.224 -0.6662  0.3733 -0.0255
 7159TIP3   OH245671   0.425   4.576   8.781  0.2076  0.1268 -0.3820
 7159TIP3    H145672   0.411   4.493   8.827 -0.3770  0.9242  0.9503
 7159TIP3    H245673   0.339   4.597   8.745 -0.1968  1.1382  1.0623
 7160TIP3   OH245674   0.640   4.391   9.102  0.4457 -0.0497 -0.2874
 7160TIP3    H145675   0.560   4.393   9.155  0.4033  0.1314 -0.3600
 7160TIP3    H245676   0.630   4.312   9.048  0.6535 -0.4365  0.2258
 7161TIP3   OH245677   1.143   6.502   9.834 -0.1065  0.1540 -0.1242
 7161TIP3    H145678   1.066   6.447   9.848 -0.8786  1.5344  1.4617
 7161TIP3    H245679   1.152   6.551   9.916  2.4137  0.1142 -0.3104
 7162TIP3   OH245680   4.751   4.647  11.533  0.6258  0.1255 -0.0696
 7162TIP3    H145681   4.797   4.673  11.453  0.4013  0.5406 -0.0697
 7162TIP3    H245682   4.695   4.575  11.505 -0.1260  0.8534 -0.5109
 7163TIP3   OH245683   2.189   4.777   8.977 -0.1362 -0.2155 -0.0130
 7163TIP3    H145684   2.273   4.758   8.936 -0.8004 -0.7259 -1.1823
 7163TIP3    H245685   2.211   4.808   9.065  1.2095 -1.8112  0.2517
 7164TIP3   OH245686   4.303   1.874   9.967 -0.3164 -0.3070  0.2270
 7164TIP3    H145687   4.254   1.795   9.947  1.0834 -1.0686 -0.3669
 7164TIP3    H245688   4.350   1.854  10.048  0.3489 -0.2542 -0.1319
 7165TIP3   OH245689   3.536   4.007   9.452  0.2222  0.1780  0.2677
 7165TIP3    H145690   3.552   3.986   9.360 -0.3637  0.6355  0.0549
 7165TIP3    H245691   3.490   4.091   9.450 -1.7686 -0.8302  0.8446
 7166TIP3   OH245692   3.900   1.197   8.819  0.2530  0.2136 -0.0138
 7166TIP3    H145693   3.872   1.127   8.878  0.5408 -0.0557 -0.1945
 7166TIP3    H245694   3.912   1.272   8.877 -0.3856  0.2110  0.1298
 7167TIP3   OH245695   4.562   3.377   9.703  0.0987 -0.7737 -0.4423
 7167TIP3    H145696   4.500   3.443   9.670  0.1305 -0.2191  0.5722
 7167TIP3    H245697   4.632   3.428   9.743 -1.4574 -1.2656  3.4098
 7168TIP3   OH245698   3.482   4.045   8.879 -0.2147 -0.1345 -0.3346
 7168TIP3    H145699   3.523   4.120   8.922 -1.1511  0.1474  0.0779
 7168TIP3    H245700   3.472   4.071   8.788 -0.3143  0.1380 -0.2430
 7169TIP3   OH245701   2.090   0.354   9.543  0.2106  0.2719 -0.3845
 7169TIP3    H145702   2.112   0.272   9.587 -0.5456 -0.0963 -0.6745
 7169TIP3    H245703   1.999   0.370   9.567  0.1542  0.6874 -0.8575
 7170TIP3   OH245704   2.036   3.764  10.148 -0.2428 -0.4576 -0.2767
 7170TIP3    H145705   2.035   3.734  10.239  2.0054 -0.8410 -0.3184
 7170TIP3    H245706   2.082   3.694  10.100  0.5453  0.7170 -1.2997
 7171TIP3   OH245707   5.064   5.276  10.876 -0.1518 -0.3658 -0.3665
 7171TIP3    H145708   5.148   5.229  10.866 -0.5221 -0.5899 -3.1914
 7171TIP3    H245709   4.998   5.206  10.877 -0.3770 -0.1676  1.4881
 7172TIP3   OH245710   1.637   5.589   8.938  0.5169 -0.1447 -0.0291
 7172TIP3    H145711   1.558   5.635   8.967  0.7255  0.0030  0.3009
 7172TIP3    H245712   1.707   5.622   8.994  0.8128 -0.2931 -0.3045
 7173TIP3   OH245713   0.405   2.333   8.121  0.3384  0.3517  0.5175
 7173TIP3    H145714   0.454   2.278   8.182 -0.1981 -1.4439 -0.6070
 7173TIP3    H245715   0.350   2.273   8.072 -0.7051  1.9660 -0.4059
 7174TIP3   OH245716   6.664   5.001  10.523  0.3220  0.3509 -0.5415
 7174TIP3    H145717   6.636   4.926  10.472 -1.1207  1.4702 -1.4612
 7174TIP3    H245718   6.590   5.020  10.581  2.4383 -1.8830  3.3610
 7175TIP3   OH245719   6.433   0.097   8.189  0.1422 -0.2020 -0.1555
 7175TIP3    H145720   6.461   0.149   8.114  1.2213 -0.2598  0.1819
 7175TIP3    H245721   6.363   0.041   8.155 -0.3464  0.7518 -0.7655
 7176TIP3   OH245722   6.609   0.908   9.947  0.1014 -0.0528 -0.5898
 7176TIP3    H145723   6.575   0.849   9.880  0.2538  1.3321 -1.9299
 7176TIP3    H245724   6.530   0.943   9.989  0.0115 -1.8769  0.8820
 7177TIP3   OH245725   5.554   2.304   8.958 -0.6741 -0.0048  0.5177
 7177TIP3    H145726   5.562   2.246   9.034  1.9264 -0.8487 -0.3149
 7177TIP3    H245727   5.600   2.384   8.984  0.0671 -0.2284 -0.0794
 7178TIP3   OH245728   3.927   3.105   9.679 -0.0059 -0.3488  0.0106
 7178TIP3    H145729   3.930   3.179   9.618 -1.5464 -0.1527  0.1502
 7178TIP3    H245730   3.963   3.032   9.628 -0.7039 -0.0502 -0.9433
 7179TIP3   OH245731   6.544   2.392  10.982 -0.0397  0.1053  0.1896
 7179TIP3    H145732   6.473   2.352  10.932 -1.6470  0.8242  1.7713
 7179TIP3    H245733   6.533   2.486  10.969 -0.5723  0.3244  1.8908
 7180TIP3   OH245734   3.628   1.497  10.190 -0.3613  0.0725 -0.2410
 7180TIP3    H145735   3.597   1.442  10.262 -0.1533  0.2265 -0.0303
 7180TIP3    H245736   3.718   1.519  10.214  0.1698 -0.9506 -1.1858
 7181TIP3   OH245737   5.220   3.823   8.902  0.4788 -0.1540  0.1106
 7181TIP3    H145738   5.192   3.785   8.985  1.3478 -0.2686  0.3642
 7181TIP3    H245739   5.142   3.868   8.868 -1.2617 -3.8291 -1.2589
 7182TIP3   OH245740   0.771   1.790   9.901 -0.0276 -0.2253  0.1445
 7182TIP3    H145741   0.742   1.709   9.861 -0.0841  0.2308 -0.7636
 7182TIP3    H245742   0.863   1.774   9.925 -0.5014 -1.0882  1.4622
 7183TIP3   OH245743   2.371   2.312   9.741 -0.0355 -0.1170  0.2129
 7183TIP3    H145744   2.300   2.329   9.804  1.1247  2.3507  1.0063
 7183TIP3    H245745   2.442   2.277   9.794  0.8485  1.6997  0.3190
 7184TIP3   OH245746   5.918   0.879   8.517 -0.2505  0.8219 -0.4164
 7184TIP3    H145747   5.993   0.920   8.561  1.1819  0.8986 -2.7499
 7184TIP3    H245748   5.855   0.950   8.508  0.5617  1.5146 -0.8518
 7185TIP3   OH245749   0.602   4.290   8.480 -0.0765  0.5860  0.2592
 7185TIP3    H145750   0.525   4.239   8.505 -0.5200  1.1318  0.0261
 7185TIP3    H245751   0.587   4.376   8.519 -1.4820  1.9275 -2.9473
 7186TIP3   OH245752   5.915   6.452  10.134 -0.4653 -0.0400  0.4186
 7186TIP3    H145753   5.908   6.376  10.191  0.9299 -0.2672  0.3097
 7186TIP3    H245754   6.007   6.476  10.137 -0.5462  0.5287 -0.9953
 7187TIP3   OH245755   0.018   0.084   8.668 -0.2316  0.7577  0.3830
 7187TIP3    H145756   0.030   0.132   8.750  1.7445 -0.7345  1.0599
 7187TIP3    H245757   0.107   0.072   8.635 -0.8252 -0.6592 -0.7924
 7188TIP3   OH245758   4.504   0.839   8.956  0.1152 -0.0604  0.0916
 7188TIP3    H145759   4.583   0.861   8.907 -0.6441 -0.2589 -1.2926
 7188TIP3    H245760   4.491   0.911   9.017 -0.3442  1.5595 -1.8371
 7189TIP3   OH245761   4.445   2.908   9.434  0.1883 -0.4345  0.7447
 7189TIP3    H145762   4.501   2.954   9.496  0.8705  0.3406 -0.4223
 7189TIP3    H245763   4.454   2.816   9.457  2.5768 -0.4127  0.1173
 7190TIP3   OH245764   1.809   0.161   9.040  0.9301 -0.9811 -0.1975
 7190TIP3    H145765   1.813   0.234   9.102 -1.2898 -0.6245 -0.4172
 7190TIP3    H245766   1.770   0.089   9.089  0.7206 -1.2153 -0.7026
 7191TIP3   OH245767   0.978   6.270   9.926 -0.1342 -0.3518 -0.1151
 7191TIP3    H145768   0.971   6.294  10.019 -0.5071 -0.3627 -0.1398
 7191TIP3    H245769   0.949   6.179   9.922 -0.2953 -0.2946 -0.2682
 7192TIP3   OH245770   6.126   2.029   8.776  0.2104 -0.2929  0.4615
 7192TIP3    H145771   6.197   1.969   8.754  0.3021 -0.3438  0.8772
 7192TIP3    H245772   6.099   2.002   8.864 -0.7480 -0.6783  0.0625
 7193TIP3   OH245773   4.434   5.663  10.454 -0.2663  0.0722 -0.2266
 7193TIP3    H145774   4.418   5.736  10.514 -0.8946 -0.8164  0.7177
 7193TIP3    H245775   4.485   5.702  10.382  0.0014  1.2824  0.5862
 7194TIP3   OH245776   6.301   2.478   8.205 -0.1732 -0.6143 -0.6873
 7194TIP3    H145777   6.281   2.467   8.113  1.5713 -2.1343 -0.9572
 7194TIP3    H245778   6.300   2.389   8.241 -1.0534 -0.0363  0.8203
 7195TIP3   OH245779   4.755   1.263   8.551  0.3646  0.3862 -0.2978
 7195TIP3    H145780   4.770   1.327   8.621  0.3446  0.1154 -0.0436
 7195TIP3    H245781   4.689   1.304   8.495 -0.7081 -0.0143  0.6480
 7196TIP3   OH245782   5.125   5.366   9.455  0.1742 -0.0656 -0.1959
 7196TIP3    H145783   5.191   5.307   9.418  0.4122 -1.1526  1.8230
 7196TIP3    H245784   5.060   5.376   9.385  2.2054  0.6916 -2.0848
 7197TIP3   OH245785   2.238   0.559   9.504 -0.5432  0.8959 -0.4354
 7197TIP3    H145786   2.244   0.552   9.599  0.8908 -0.9396 -0.6135
 7197TIP3    H245787   2.155   0.517   9.481 -0.0022 -0.3824 -0.1156
 7198TIP3   OH245788   5.805   1.166   8.563  0.2342 -0.2246 -0.0076
 7198TIP3    H145789   5.852   1.233   8.513  0.2222 -0.7299 -0.7217
 7198TIP3    H245790   5.716   1.169   8.528  0.2130 -0.5456  0.0110
 7199TIP3   OH245791   5.453   5.272   9.698  0.3736 -0.7399  0.1213
 7199TIP3    H145792   5.420   5.315   9.619 -0.6421  1.6286  1.7341
 7199TIP3    H245793   5.507   5.337   9.741 -0.2040 -1.4722  2.0646
 7200TIP3   OH245794   3.993   5.476   9.616 -0.3454  0.1224 -0.3620
 7200TIP3    H145795   4.000   5.510   9.705  0.3813  0.4909 -0.5492
 7200TIP3    H245796   4.070   5.420   9.605 -1.8182 -2.1196  0.1335
 7201TIP3   OH245797   4.248   4.577   9.508  0.2487  0.3814  0.3010
 7201TIP3    H145798   4.274   4.600   9.419  2.0142 -0.1089  0.6548
 7201TIP3    H245799   4.156   4.552   9.500  0.3547  0.3945 -1.3776
 7202TIP3   OH245800   5.695   4.620   9.610  0.0752  0.1340 -0.0133
 7202TIP3    H145801   5.698   4.716   9.620 -0.4944  0.2939 -1.2923
 7202TIP3    H245802   5.735   4.587   9.691 -0.3680  1.4316  0.7616
 7203TIP3   OH245803   2.905   1.093   8.718  0.1242  0.1502 -0.2934
 7203TIP3    H145804   2.820   1.078   8.678  1.0193 -1.0821 -1.8540
 7203TIP3    H245805   2.966   1.099   8.645  1.1137  3.7192  0.5891
 7204TIP3   OH245806   0.992   4.885   9.253  0.0212  0.3169 -0.4942
 7204TIP3    H145807   0.994   4.888   9.348  1.7220 -0.5478 -0.4711
 7204TIP3    H245808   0.944   4.804   9.233 -0.6451  0.6802 -0.3944
 7205TIP3   OH245809   0.824   4.178   8.357 -0.0322 -0.0862  0.1378
 7205TIP3    H145810   0.752   4.210   8.411  0.0535 -0.0421  0.2281
 7205TIP3    H245811   0.829   4.241   8.284  0.2618  0.2218  0.4175
 7206TIP3   OH245812   1.532   4.986   7.925 -0.6274 -0.2453  0.4179
 7206TIP3    H145813   1.483   4.979   8.007 -0.1775 -2.1730  0.5704
 7206TIP3    H245814   1.588   4.908   7.924 -1.5026 -0.9396 -2.2726
 7207TIP3   OH245815   2.670   6.546  10.859 -0.6422  0.1483  0.2162
 7207TIP3    H145816   2.757   6.573  10.829 -0.4946 -0.3726  0.1619
 7207TIP3    H245817   2.614   6.623  10.843  0.2358  1.2937  2.2736
 7208TIP3   OH245818   0.031   3.342   8.552  0.4836 -0.0847  0.2537
 7208TIP3    H145819   0.005   3.383   8.635  0.8410  0.5667  0.0523
 7208TIP3    H245820   0.025   3.248   8.569 -0.3213  0.0391  0.7434
 7209TIP3   OH245821   1.314   1.288   9.286 -0.8374  0.2720 -0.3406
 7209TIP3    H145822   1.235   1.235   9.297  0.2041 -1.6025 -1.4094
 7209TIP3    H245823   1.301   1.335   9.204 -0.8425 -0.0076 -0.4985
 7210TIP3   OH245824   2.938   4.899   8.802 -0.3881 -0.8263  0.2701
 7210TIP3    H145825   2.889   4.915   8.883 -0.2842 -1.3383  0.4387
 7210TIP3    H245826   2.921   4.976   8.748  2.6722  1.5234  2.2965
 7211TIP3   OH245827   5.268   2.394  10.624  0.1597  0.0104  0.7258
 7211TIP3    H145828   5.305   2.442  10.549  0.3268 -0.9988  0.1335
 7211TIP3    H245829   5.264   2.303  10.594  2.5456 -0.8835  2.7806
 7212TIP3   OH245830   1.507   5.705  10.395  0.1686 -0.1839  0.3280
 7212TIP3    H145831   1.574   5.642  10.367 -1.2971 -1.0196 -1.5345
 7212TIP3    H245832   1.466   5.734  10.314 -0.1712  2.1289  1.2517
 7213TIP3   OH245833   5.571   4.870  10.161 -0.2779  0.3852  0.2489
 7213TIP3    H145834   5.587   4.848  10.253 -0.6962  0.8206  0.4355
 7213TIP3    H245835   5.616   4.802  10.112  1.5623  1.1778  0.7408
 7214TIP3   OH245836   1.533   1.096  11.541 -0.1553 -0.0877  0.6222
 7214TIP3    H145837   1.576   1.179  11.560 -1.5097  0.4347  1.5693
 7214TIP3    H245838   1.603   1.031  11.544  1.2722  1.1944 -2.0292
 7215TIP3   OH245839   1.019   5.408  10.041 -0.2752 -0.6439  0.5441
 7215TIP3    H145840   1.079   5.481  10.026 -1.7016  0.3814 -0.4288
 7215TIP3    H245841   1.076   5.332  10.054  1.2287 -0.0249 -1.8790
 7216TIP3   OH245842   2.662   0.933   8.553 -0.5773 -0.5281 -0.5045
 7216TIP3    H145843   2.605   1.010   8.556  1.4057  1.0386 -0.9632
 7216TIP3    H245844   2.672   0.906   8.645 -0.6008  0.3074 -0.2512
 7217TIP3   OH245845   3.599   2.457  10.178  0.1300 -0.3745 -0.2240
 7217TIP3    H145846   3.504   2.466  10.173  0.1425  0.2694  0.4763
 7217TIP3    H245847   3.633   2.539  10.142  0.4358 -0.7128 -0.7284
 7218TIP3   OH245848   4.759   2.504  11.094 -0.1370 -0.0101 -0.0077
 7218TIP3    H145849   4.741   2.509  11.188 -0.8110  0.0707 -0.1364
 7218TIP3    H245850   4.713   2.579  11.057  0.3065  0.0812 -0.3804
 7219TIP3   OH245851   4.400   1.096   9.640  0.2656  0.3056  0.2736
 7219TIP3    H145852   4.454   1.171   9.616  0.8925 -0.7503 -1.8686
 7219TIP3    H245853   4.455   1.044   9.699  1.3921 -0.3951 -1.3220
 7220TIP3   OH245854   0.937   1.740   9.279  0.0812 -0.3546 -0.2946
 7220TIP3    H145855   1.014   1.743   9.223  0.8784 -0.6238  0.7405
 7220TIP3    H245856   0.877   1.681   9.234  1.0896 -1.3392 -0.4033
 7221TIP3   OH245857   1.106   5.532   9.227  0.3564  0.3003  0.2153
 7221TIP3    H145858   1.070   5.502   9.311  2.0161 -2.4155  0.0991
 7221TIP3    H245859   1.179   5.589   9.253 -1.7133  2.9880  0.4734
 7222TIP3   OH245860   5.098   4.687  10.283 -0.1925  0.1134  0.6985
 7222TIP3    H145861   5.125   4.778  10.292  1.1084 -0.1980  0.1109
 7222TIP3    H245862   5.137   4.658  10.201  0.8132 -1.4533  1.6899
 7223TIP3   OH245863   1.595   6.349   8.610 -0.1982  0.5938 -0.1773
 7223TIP3    H145864   1.599   6.418   8.676  2.1835  0.6999 -0.3371
 7223TIP3    H245865   1.574   6.395   8.529  0.4523  1.0263 -0.1139
 7224TIP3   OH245866   3.150   6.540   9.830  0.0383 -0.1709 -0.2862
 7224TIP3    H145867   3.171   6.478   9.759  0.9849 -0.7585  0.4841
 7224TIP3    H245868   3.097   6.490   9.891 -1.1781  0.4732 -0.7819
 7225TIP3   OH245869   2.105   0.889  10.635  0.6897 -0.4780 -0.1310
 7225TIP3    H145870   2.014   0.890  10.606  0.8869  3.5757 -1.1974
 7225TIP3    H245871   2.115   0.805  10.679 -3.8140 -0.7253  0.9306
 7226TIP3   OH245872   0.070   4.939   9.430  0.1713 -0.0820  0.2982
 7226TIP3    H145873   0.020   5.012   9.466  0.0885 -0.4407  0.9216
 7226TIP3    H245874   0.006   4.886   9.383  0.3247  0.5274 -0.6231
 7227TIP3   OH245875   2.314   0.892  11.282 -0.0495 -0.1690  0.4466
 7227TIP3    H145876   2.292   0.953  11.353 -0.2539 -0.2517  0.4532
 7227TIP3    H245877   2.358   0.819  11.327 -0.2615 -0.2640  0.4980
 7228TIP3   OH245878   5.535   0.580   8.021  0.0902 -0.4747  0.0013
 7228TIP3    H145879   5.625   0.609   8.035  0.1498 -0.4212 -0.4972
 7228TIP3    H245880   5.482   0.657   8.041  0.2571  0.0440 -1.4938
 7229TIP3   OH245881   5.444   3.239   9.795 -0.2350 -0.0537  0.2477
 7229TIP3    H145882   5.397   3.307   9.746 -0.7042  0.2552  1.1046
 7229TIP3    H245883   5.515   3.212   9.736 -0.5574  0.5667 -0.4489
 7230TIP3   OH245884   3.807   0.791   9.157 -0.1272 -0.4811  0.1957
 7230TIP3    H145885   3.804   0.696   9.145  1.5297 -0.6025  0.5684
 7230TIP3    H245886   3.805   0.803   9.252 -0.4049 -0.1232  0.1480
 7231TIP3   OH245887   4.930   6.401  10.790  0.2091 -0.3004  0.1835
 7231TIP3    H145888   4.872   6.386  10.865  0.0308 -1.4879 -0.1736
 7231TIP3    H245889   4.987   6.324  10.789  1.7215  0.7643  0.4403
 7232TIP3   OH245890   2.034   5.417   9.026 -0.0165  0.2306  0.6237
 7232TIP3    H145891   1.980   5.406   8.947 -0.3445  0.8984  0.7513
 7232TIP3    H245892   2.123   5.396   8.997 -0.1366  0.4454  0.0809
 7233TIP3   OH245893   0.472   3.776   8.083 -0.4545  0.2190 -0.0169
 7233TIP3    H145894   0.543   3.736   8.032  0.6803  0.1141  1.5803
 7233TIP3    H245895   0.412   3.703   8.101  0.2530 -0.2124  0.6303
 7234TIP3   OH245896   4.678   1.455   8.346  0.6291  0.0906 -0.1772
 7234TIP3    H145897   4.663   1.373   8.298 -0.2782  0.7530 -1.0471
 7234TIP3    H245898   4.599   1.466   8.399  1.4934 -0.4864  1.3268
 7235TIP3   OH245899   3.146   1.346   8.930 -0.4912 -0.3812  0.5003
 7235TIP3    H145900   3.149   1.343   8.834  1.0067  0.9834  0.4528
 7235TIP3    H245901   3.208   1.278   8.957 -0.2710 -0.1982  0.4650
 7236TIP3   OH245902   4.306   2.982  10.840  0.8165 -0.9142  0.1818
 7236TIP3    H145903   4.325   3.050  10.776  1.0127 -0.9884  0.1586
 7236TIP3    H245904   4.392   2.959  10.876  0.6608 -0.5733  0.7750
 7237TIP3   OH245905   3.031   1.180  10.237 -0.4761  0.4159  0.3771
 7237TIP3    H145906   3.098   1.121  10.202  0.9692  1.9806  0.3805
 7237TIP3    H245907   3.056   1.267  10.206 -4.0565  0.8314 -1.9253
 7238TIP3   OH245908   5.201   5.676   8.581  0.1224 -0.1816 -0.3484
 7238TIP3    H145909   5.285   5.692   8.625  0.7191  1.7947 -2.0562
 7238TIP3    H245910   5.135   5.699   8.647  0.9691  0.6032  0.2446
 7239TIP3   OH245911   0.469   0.741   7.908  0.0729 -0.1060  0.2592
 7239TIP3    H145912   0.532   0.680   7.945  0.2927 -0.5439 -0.8226
 7239TIP3    H245913   0.402   0.686   7.868  0.8591  0.2904 -1.7424
 7240TIP3   OH245914   4.705   4.157   8.989 -0.1591 -0.2239 -0.5104
 7240TIP3    H145915   4.697   4.212   8.911  0.6995 -0.3794 -0.7087
 7240TIP3    H245916   4.703   4.068   8.957  1.0438 -0.2882 -0.4551
 7241TIP3   OH245917   2.972   1.098   9.307 -0.2759  0.6745 -0.0939
 7241TIP3    H145918   2.893   1.110   9.359  0.2555  2.4994  0.3877
 7241TIP3    H245919   3.043   1.091   9.372  0.0036 -0.7584 -0.5198
 7242TIP3   OH245920   4.020   4.776  10.718 -0.4133  0.2082  0.0454
 7242TIP3    H145921   3.960   4.849  10.708 -1.2750 -0.3476  0.9827
 7242TIP3    H245922   3.977   4.703  10.672 -1.2723 -0.6176  2.0603
 7243TIP3   OH245923   6.088   0.638  11.745 -0.1976  0.3387  0.2304
 7243TIP3    H145924   6.088   0.643  11.650 -1.2716  1.5611  0.2646
 7243TIP3    H245925   6.109   0.726  11.774 -0.3344  0.0918  1.1258
 7244TIP3   OH245926   2.306   3.329   9.319  0.0513  0.0681  0.0298
 7244TIP3    H145927   2.258   3.337   9.401 -0.8078 -0.7120 -0.3715
 7244TIP3    H245928   2.394   3.361   9.339 -0.3767  0.6630  1.0249
 7245TIP3   OH245929   5.509   2.894   8.883  0.1937  0.2742 -0.0461
 7245TIP3    H145930   5.545   2.829   8.944  0.2486  0.2209 -0.1337
 7245TIP3    H245931   5.522   2.978   8.926  0.3068  0.2439 -0.0188
 7246TIP3   OH245932   5.559   2.181  10.647 -0.0596 -0.2337  0.5411
 7246TIP3    H145933   5.568   2.120  10.720 -0.5370 -0.7076  0.2133
 7246TIP3    H245934   5.464   2.186  10.632 -0.0345  0.6669  0.6272
 7247TIP3   OH245935   3.472   3.652   9.886  0.2838 -0.3100  0.5486
 7247TIP3    H145936   3.485   3.625   9.795 -0.9708 -0.0142  0.2660
 7247TIP3    H245937   3.514   3.738   9.891 -0.3521  0.0453  0.0143
 7248TIP3   OH245938   2.204   5.564   9.455  0.3113  0.1718 -0.4432
 7248TIP3    H145939   2.176   5.650   9.486  0.9676 -0.1774  1.2441
 7248TIP3    H245940   2.283   5.544   9.506  1.3621 -0.5710 -2.2388
 7249TIP3   OH245941   0.600   3.821  10.893  0.0887  0.6956  0.4997
 7249TIP3    H145942   0.617   3.807  10.986 -0.4110 -0.5024  0.4279
 7249TIP3    H245943   0.508   3.795  10.882  0.4552 -0.2014 -0.5230
 7250TIP3   OH245944   6.115   4.275   7.968 -0.0684 -0.4792  0.1948
 7250TIP3    H145945   6.134   4.329   7.892  2.3323  0.5294  1.4033
 7250TIP3    H245946   6.201   4.248   8.000 -1.0929 -2.6441  1.3359
 7251TIP3   OH245947   4.700   4.027   9.693  0.0187  0.4846 -0.0211
 7251TIP3    H145948   4.628   4.082   9.661  0.2237  1.0918  0.5426
 7251TIP3    H245949   4.711   4.053   9.784 -0.2514 -0.9011  0.4258
 7252TIP3   OH245950   1.127   4.410   8.160 -0.2918  0.4164 -0.0864
 7252TIP3    H145951   1.045   4.402   8.209 -0.9246  2.1784 -0.7633
 7252TIP3    H245952   1.165   4.492   8.191  1.0304 -0.1774 -0.0825
 7253TIP3   OH245953   1.073   4.198   8.517  0.2215 -0.2542 -0.8569
 7253TIP3    H145954   1.001   4.179   8.458 -0.7919 -2.0197  0.8311
 7253TIP3    H245955   1.116   4.114   8.530 -0.0624 -0.1147  1.4481
 7254TIP3   OH245956   1.992   1.131   8.968  0.3069  0.2779 -0.4130
 7254TIP3    H145957   1.949   1.176   8.896 -1.0807  0.5309  0.5349
 7254TIP3    H245958   1.929   1.135   9.040  1.6297 -0.0086  0.8016
 7255TIP3   OH245959   5.976   4.821   9.785  0.4950 -0.5669  0.2048
 7255TIP3    H145960   5.931   4.739   9.807 -1.2130  0.8098  2.1041
 7255TIP3    H245961   6.020   4.847   9.866  0.1148  0.9348 -0.0491
 7256TIP3   OH245962   1.833   1.524   8.971 -0.0806  0.5275  0.3005
 7256TIP3    H145963   1.899   1.534   9.039 -0.0124 -0.0669  0.3226
 7256TIP3    H245964   1.882   1.504   8.892 -0.2089  0.4661  0.2354
 7257TIP3   OH245965   4.422   3.591   8.204  0.4484  0.3578  0.0316
 7257TIP3    H145966   4.479   3.604   8.280  1.8021 -0.4067 -0.8121
 7257TIP3    H245967   4.346   3.544   8.239  2.4573 -2.8720  0.4783
 7258TIP3   OH245968   2.563   6.235   9.303  0.0805 -0.2111  0.1166
 7258TIP3    H145969   2.649   6.211   9.339  1.3974 -0.9093 -3.1502
 7258TIP3    H245970   2.524   6.152   9.278 -0.3139  0.2987 -0.9981
 7259TIP3   OH245971   1.030   0.457  10.886  0.1580  0.3542  0.5584
 7259TIP3    H145972   1.074   0.387  10.934 -0.7233  0.5535  1.7015
 7259TIP3    H245973   1.034   0.533  10.945 -2.1903  0.2184  0.9571
 7260TIP3   OH245974   3.552   2.471  10.611  0.0702  0.1505  0.0556
 7260TIP3    H145975   3.504   2.461  10.693 -1.2502 -1.2327 -0.8279
 7260TIP3    H245976   3.535   2.389  10.563 -1.0727  1.8034 -2.5643
 7261TIP3   OH245977   2.102   0.262   8.089  0.2316 -0.0167  0.0734
 7261TIP3    H145978   2.098   0.348   8.130  0.0951 -0.5600  1.2239
 7261TIP3    H245979   2.192   0.233   8.101  1.4053  1.4941 -3.6170
 7262TIP3   OH245980   1.554   0.691  10.127 -0.2938  0.0116  0.2670
 7262TIP3    H145981   1.474   0.676  10.178  0.6962  0.5333  2.0229
 7262TIP3    H245982   1.524   0.685  10.036 -2.3089  0.0416  0.8641
 7263TIP3   OH245983   4.968   0.440   8.608  0.0070  0.2637 -0.3135
 7263TIP3    H145984   5.033   0.377   8.637 -0.0207  0.1722 -0.4531
 7263TIP3    H245985   4.954   0.497   8.684  1.3224  1.1842 -0.7241
 7264TIP3   OH245986   6.706   3.812   9.083  0.3499  0.3567  0.0096
 7264TIP3    H145987   6.782   3.853   9.042  0.5999  0.0377  0.1494
 7264TIP3    H245988   6.703   3.849   9.171 -0.1611  1.0081 -0.2716
 7265TIP3   OH245989   6.232   5.908  18.511  0.2536 -0.0557 -0.1607
 7265TIP3    H145990   6.210   5.826  18.555 -0.9872  0.3087 -0.0897
 7265TIP3    H245991   6.311   5.887  18.460  0.6434 -0.9665  0.7768
 7266TIP3   OH245992   1.336   6.301   9.445 -0.2846  0.1182  0.0050
 7266TIP3    H145993   1.335   6.214   9.485 -0.4709 -0.1429 -0.5470
 7266TIP3    H245994   1.250   6.309   9.404  0.6840 -0.6075 -2.3467
 7267TIP3   OH245995   3.672   3.754   7.975  0.6729  0.5895 -0.3014
 7267TIP3    H145996   3.693   3.694   8.047  0.4223  1.3187  0.3917
 7267TIP3    H245997   3.601   3.809   8.009  0.5096  0.9078 -1.1268
 7268TIP3   OH245998   3.899   5.661  10.264  0.0920  0.1953 -0.1671
 7268TIP3    H145999   3.811   5.628  10.283 -0.5462  0.3160 -2.5851
 7268TIP3    H246000   3.890   5.756  10.274  0.2777  0.1198  0.7574
 7269TIP3   OH246001   2.512   4.543  10.182 -0.0481  0.1398 -0.1406
 7269TIP3    H146002   2.526   4.584  10.097 -0.6431 -0.4806 -0.5448
 7269TIP3    H246003   2.474   4.457  10.162  1.2788 -0.6945  0.6568
 7270TIP3   OH246004   3.199   4.045  10.046  0.2469  0.3939 -0.0200
 7270TIP3    H146005   3.197   4.136  10.016 -1.6247 -0.0039 -1.2932
 7270TIP3    H246006   3.117   4.034  10.095 -1.3967 -1.5025 -2.9404
 7271TIP3   OH246007   3.826   4.975  10.684 -0.2415 -0.3235  0.5148
 7271TIP3    H146008   3.757   4.959  10.620 -0.3731  2.2243 -0.0788
 7271TIP3    H246009   3.790   5.043  10.741  0.6064 -1.1867  2.1614
 7272TIP3   OH246010   6.382   3.353  10.140 -0.4241  0.1338  0.0598
 7272TIP3    H146011   6.313   3.348  10.074  0.2934  0.7126 -0.7706
 7272TIP3    H246012   6.396   3.447  10.153  0.4108  0.0353 -0.0293
 7273TIP3   OH246013   3.187   3.241  11.002  0.0332  0.0077  0.1753
 7273TIP3    H146014   3.239   3.200  11.071  1.4923 -0.5694 -1.1962
 7273TIP3    H246015   3.234   3.221  10.921 -0.8027  1.9028 -0.8622
 7274TIP3   OH246016   3.704   1.747   8.479  0.6435  0.0356  0.1602
 7274TIP3    H146017   3.674   1.837   8.493  0.1049 -0.2025  0.6013
 7274TIP3    H246018   3.623   1.695   8.480  0.9487 -0.4473 -0.1231
 7275TIP3   OH246019   4.309   1.865   8.797 -0.0849 -0.0459 -0.3625
 7275TIP3    H146020   4.260   1.920   8.857  1.0686 -1.0898  1.6427
 7275TIP3    H246021   4.367   1.926   8.751  0.4594  0.5584  1.0772
 7276TIP3   OH246022   1.330   5.377  11.198  1.0574  0.3067  0.4505
 7276TIP3    H146023   1.328   5.289  11.236  0.4302 -0.4423 -1.2164
 7276TIP3    H246024   1.419   5.385  11.162  1.2983  0.5945  1.0908
 7277TIP3   OH246025   3.123   3.354  11.542 -0.2089  0.3137  0.5594
 7277TIP3    H146026   3.204   3.342  11.493 -0.4532  0.2886  0.1628
 7277TIP3    H246027   3.152   3.382  11.629  0.2414 -0.1530  0.5620
 7278TIP3   OH246028   2.827   0.909  10.955  0.1102  0.0418  0.8497
 7278TIP3    H146029   2.911   0.881  10.917 -0.4243 -1.1204  0.4726
 7278TIP3    H246030   2.786   0.960  10.885  1.1542  1.9895  1.5918
 7279TIP3   OH246031   2.436   2.798   8.945 -0.1815 -0.0003  0.1724
 7279TIP3    H146032   2.498   2.730   8.970 -0.0141  0.2474  0.4401
 7279TIP3    H246033   2.377   2.756   8.883 -0.6197 -0.6340  1.0082
 7280TIP3   OH246034   4.485   5.270   8.444  0.0429 -0.1982  0.4775
 7280TIP3    H146035   4.503   5.191   8.494 -0.2030 -0.1568  0.6333
 7280TIP3    H246036   4.564   5.323   8.453  1.2323 -1.4739 -1.6760
 7281TIP3   OH246037   0.306   2.900   9.433 -0.5123 -0.5501 -0.2205
 7281TIP3    H146038   0.249   2.877   9.507  1.4158  0.2778  1.6542
 7281TIP3    H246039   0.248   2.946   9.372 -1.7945  0.7961  1.8482
 7282TIP3   OH246040   5.130   2.013   9.473  0.1634  0.3415 -0.0886
 7282TIP3    H146041   5.046   2.037   9.511  0.0842 -0.4489  0.2585
 7282TIP3    H246042   5.142   2.073   9.400 -2.2875 -1.5961 -2.2957
 7283TIP3   OH246043   5.491   4.428   8.713 -0.3909  0.4674  0.5982
 7283TIP3    H146044   5.506   4.495   8.647 -1.0361 -0.1902 -0.2383
 7283TIP3    H246045   5.426   4.467   8.772 -1.3787  0.3136 -0.3386
 7284TIP3   OH246046   2.266   6.061   9.465  0.3748 -1.0621  0.1234
 7284TIP3    H146047   2.220   6.121   9.407  0.3246 -0.0101  1.2109
 7284TIP3    H246048   2.353   6.050   9.426  0.2202 -0.6543 -0.3372
 7285TIP3   OH246049   3.306   1.821  10.361 -0.0860 -0.2122 -0.3389
 7285TIP3    H146050   3.267   1.882  10.298  2.6360 -0.4251 -2.4521
 7285TIP3    H246051   3.325   1.875  10.438 -0.2407  0.9602 -1.0935
 7286TIP3   OH246052   0.923   0.259   9.215  0.3768  0.4160 -0.3060
 7286TIP3    H146053   0.988   0.329   9.222  0.5158  0.1945  0.9358
 7286TIP3    H246054   0.871   0.267   9.296  1.2826 -1.7644  0.5600
 7287TIP3   OH246055   1.325   3.667   8.935 -0.1567 -0.3882  0.2329
 7287TIP3    H146056   1.231   3.653   8.939 -0.0617 -1.8468 -1.6566
 7287TIP3    H246057   1.337   3.756   8.969 -2.3727  0.4036 -0.8657
 7288TIP3   OH246058   0.091   0.395   9.402 -0.3020 -0.4023 -0.0497
 7288TIP3    H146059   0.127   0.395   9.491 -0.1521 -2.2826 -0.0802
 7288TIP3    H246060   0.124   0.476   9.363 -0.4230  0.4912  1.6102
 7289TIP3   OH246061   3.436   4.109   8.618  0.3194 -0.4179  0.9790
 7289TIP3    H146062   3.527   4.136   8.607  0.2931 -0.8447 -0.4686
 7289TIP3    H246063   3.388   4.156   8.549 -0.5957 -0.0583  1.8369
 7290TIP3   OH246064   5.392   4.130   8.669 -0.0391 -0.2709 -0.0738
 7290TIP3    H146065   5.339   4.205   8.644  0.9454  0.2869 -0.5256
 7290TIP3    H246066   5.463   4.128   8.605  0.9580 -0.4971  1.0119
 7291TIP3   OH246067   1.885   3.495  10.831  0.0815 -0.9005 -0.3737
 7291TIP3    H146068   1.868   3.456  10.745  1.9357  1.1488 -1.7775
 7291TIP3    H246069   1.812   3.556  10.844 -0.3350 -1.3936 -0.3686
 7292TIP3   OH246070   5.360   4.528  10.931  0.0423 -0.6752  0.1230
 7292TIP3    H146071   5.299   4.454  10.932  1.1427 -1.6079  1.0045
 7292TIP3    H246072   5.430   4.502  10.991 -0.0771  1.5486  1.3589
 7293TIP3   OH246073   6.516   4.518   8.834  0.2159 -0.0015  0.3101
 7293TIP3    H146074   6.503   4.604   8.872 -0.4736  1.4529 -2.8996
 7293TIP3    H246075   6.430   4.493   8.799  1.2494  0.1300 -2.6759
 7294TIP3   OH246076   2.105   2.140   7.649  0.4492 -0.3759  0.4328
 7294TIP3    H146077   2.147   2.077   7.708 -0.8053 -0.6311  1.0772
 7294TIP3    H246078   2.048   2.087   7.593  0.7915 -0.0095 -0.2819
 7295TIP3   OH246079   4.190   0.542  10.068 -0.1301 -0.2371 -0.1165
 7295TIP3    H146080   4.221   0.630  10.092 -0.1184 -0.5557  1.1198
 7295TIP3    H246081   4.182   0.545   9.973  1.1550  0.6903 -0.2315
 7296TIP3   OH246082   0.580   1.589   9.459 -0.1921 -0.2931 -0.0243
 7296TIP3    H146083   0.510   1.638   9.414  0.6012 -0.4253 -1.4788
 7296TIP3    H246084   0.536   1.544   9.530 -1.1745  1.5473  0.6076
 7297TIP3   OH246085   5.937   4.543   9.788 -0.2969  0.2167 -0.1475
 7297TIP3    H146086   5.948   4.459   9.832 -1.5766 -0.2547 -0.7026
 7297TIP3    H246087   6.020   4.558   9.743  0.3613 -0.1724  0.9146
 7298TIP3   OH246088   6.049   0.192   8.817  0.0959  0.3700 -0.0947
 7298TIP3    H146089   5.990   0.232   8.881  1.3633 -0.0296  1.4167
 7298TIP3    H246090   5.997   0.126   8.773 -0.2894 -0.9174  2.1473
 7299TIP3   OH246091   0.342   1.807   9.488  0.2016  0.4354  0.2749
 7299TIP3    H146092   0.265   1.855   9.458 -1.0375 -1.9607 -0.6448
 7299TIP3    H246093   0.313   1.716   9.495  2.5939 -0.3460  1.2710
 7300TIP3   OH246094   5.201   3.333  11.049 -0.0087  0.2671 -0.0569
 7300TIP3    H146095   5.174   3.412  11.095  3.0997  0.7024  1.3144
 7300TIP3    H246096   5.120   3.294  11.017 -2.4136  0.4720  4.9003
 7301TIP3   OH246097   6.637   5.041   9.000  0.1400  0.2003  0.1688
 7301TIP3    H146098   6.634   5.127   8.959  0.4701 -0.4574 -1.2881
 7301TIP3    H246099   6.576   4.988   8.949 -0.6210 -0.2652  1.5056
 7302TIP3   OH246100   2.144   1.175  10.519  0.3556  0.2596 -0.0059
 7302TIP3    H146101   2.103   1.107  10.572 -0.5232  1.4042  0.8188
 7302TIP3    H246102   2.129   1.148  10.429 -0.2712 -0.4754  0.3123
 7303TIP3   OH246103   1.245   1.591  10.514 -0.1951  0.3254  0.2037
 7303TIP3    H146104   1.284   1.638  10.588  0.4581 -0.5136  0.4063
 7303TIP3    H246105   1.312   1.593  10.446  0.8051 -2.2277  0.9896
 7304TIP3   OH246106   6.291   2.293  10.860  0.1617  0.1453 -0.3449
 7304TIP3    H146107   6.281   2.300  10.765 -0.3858  0.6881 -0.2519
 7304TIP3    H246108   6.302   2.199  10.875 -1.3594 -0.1327 -0.8045
 7305TIP3   OH246109   0.357   2.512  10.139  0.1747 -0.4349 -0.1488
 7305TIP3    H146110   0.417   2.572  10.183 -1.4289 -0.5139  2.3114
 7305TIP3    H246111   0.371   2.427  10.182  0.0220 -1.0631 -1.2732
 7306TIP3   OH246112   2.228   0.317  11.182 -1.0061 -0.0579  0.4093
 7306TIP3    H146113   2.235   0.245  11.244 -2.6602 -0.4139  0.2367
 7306TIP3    H246114   2.316   0.353  11.177 -0.7765 -0.1131  2.8262
 7307TIP3   OH246115   3.454   1.697   9.496  0.2639 -0.1962 -1.0263
 7307TIP3    H146116   3.398   1.628   9.459  1.2111 -1.6619  0.1595
 7307TIP3    H246117   3.402   1.732   9.569  1.0652 -1.9952  0.4812
 7308TIP3   OH246118   0.882   6.628   8.954  0.6325  0.0576 -0.2066
 7308TIP3    H146119   0.843   6.651   9.038  0.6061 -0.5297 -0.0506
 7308TIP3    H246120   0.940   6.701   8.933 -0.1468  0.6809 -0.1844
 7309TIP3   OH246121   2.989   3.425   9.887 -0.0135 -0.2963 -0.3464
 7309TIP3    H146122   2.952   3.429   9.799  1.0682 -0.1618 -0.8037
 7309TIP3    H246123   2.933   3.482   9.940 -0.6352 -0.3410 -0.9506
 7310TIP3   OH246124   6.165   5.168   8.929 -0.3083 -0.0276 -0.1948
 7310TIP3    H146125   6.225   5.094   8.916  0.1063  0.3915 -0.7056
 7310TIP3    H246126   6.183   5.196   9.019  0.3571  0.1649 -0.3778
 7311TIP3   OH246127   1.036   4.050  10.829 -0.6052  0.2053 -0.1178
 7311TIP3    H146128   0.975   3.978  10.813 -1.1983  0.3179  1.3895
 7311TIP3    H246129   0.982   4.129  10.823 -0.1271  0.4756 -0.9785
 7312TIP3   OH246130   2.985   0.053   9.042  0.5276  0.4715 -0.1364
 7312TIP3    H146131   3.068   0.075   8.999  1.6282  0.7718  2.0195
 7312TIP3    H246132   2.960  -0.031   9.003  1.9463  0.2747 -0.6954
 7313TIP3   OH246133   0.908   6.087   9.394  0.0800 -0.2073  0.0560
 7313TIP3    H146134   0.867   6.007   9.427  2.1535 -1.1490  0.4850
 7313TIP3    H246135   0.956   6.060   9.316  0.1488  0.8037 -0.2777
 7314TIP3   OH246136   6.353   5.571  10.556  0.1691 -0.2187 -0.1845
 7314TIP3    H146137   6.401   5.653  10.543 -0.8550  0.8610  2.3385
 7314TIP3    H246138   6.390   5.534  10.636 -2.5111  0.2316  1.3687
 7315TIP3   OH246139   1.067   2.182   8.289  0.1038 -0.1586 -0.0097
 7315TIP3    H146140   1.075   2.143   8.202 -0.4386 -1.6345  0.5641
 7315TIP3    H246141   1.128   2.132   8.343 -1.3413 -0.9197  0.9724
 7316TIP3   OH246142   6.192   0.089   7.978  0.6511 -0.5563 -0.2532
 7316TIP3    H146143   6.110   0.068   7.935  1.0888 -0.2713 -1.2396
 7316TIP3    H246144   6.217   0.008   8.023  0.0409 -0.7639 -0.2872
 7317TIP3   OH246145   3.461   4.254   9.435  0.7554 -0.1693 -0.2391
 7317TIP3    H146146   3.420   4.322   9.489  0.4452  0.1575 -0.8785
 7317TIP3    H246147   3.547   4.289   9.412  1.1489 -0.5722  0.5380
 7318TIP3   OH246148   2.099   5.795   9.803  0.5339  0.1185  0.6858
 7318TIP3    H146149   2.124   5.853   9.875  1.0516  0.6581  0.0830
 7318TIP3    H246150   2.151   5.715   9.817  0.2899  0.0434  1.1641
 7319TIP3   OH246151   4.119   1.789   8.287 -0.2246  0.4366 -0.0661
 7319TIP3    H146152   4.026   1.799   8.265 -0.2162 -0.2304 -0.4313
 7319TIP3    H246153   4.145   1.707   8.244  0.2870  0.1060  0.8467
 7320TIP3   OH246154   1.128   5.286  11.630 -0.0842 -0.0295 -0.0853
 7320TIP3    H146155   1.206   5.238  11.602  0.1716  0.8630 -0.9472
 7320TIP3    H246156   1.121   5.359  11.568 -2.2790 -0.7470 -0.7636
 7321TIP3   OH246157   3.493   3.056  10.369 -0.1565  0.4698  0.3466
 7321TIP3    H146158   3.471   3.034  10.278  0.0632  0.0962  0.3832
 7321TIP3    H246159   3.503   3.151  10.368 -1.4945  0.6390  0.2741
 7322TIP3   OH246160   6.263   3.062  10.585  0.0265 -0.1608  0.1507
 7322TIP3    H146161   6.249   3.009  10.506  0.3441  0.6129 -0.4467
 7322TIP3    H246162   6.226   3.010  10.656  1.0018 -1.5403 -0.2972
 7323TIP3   OH246163   0.524   1.724  10.352 -0.1520 -0.2107 -0.4898
 7323TIP3    H146164   0.502   1.677  10.432  0.1648  1.5680  0.6954
 7323TIP3    H246165   0.617   1.745  10.361 -0.1237  0.0466 -1.2993
 7324TIP3   OH246166   3.871   1.133   8.454 -0.0333 -0.0734 -0.1865
 7324TIP3    H146167   3.934   1.155   8.524 -1.4202 -1.1645  1.4974
 7324TIP3    H246168   3.840   1.046   8.477 -3.5160  1.1122  0.1546
 7325TIP3   OH246169   0.134   4.174   8.081 -0.4141  0.4082  0.2131
 7325TIP3    H146170   0.125   4.090   8.035  0.9034  0.6271 -0.4945
 7325TIP3    H246171   0.175   4.151   8.164 -2.6326  0.0347  1.2671
 7326TIP3   OH246172   5.945   1.387   9.006  0.0577  0.2374  0.1919
 7326TIP3    H146173   5.969   1.336   9.083 -0.3825 -0.5963 -0.2058
 7326TIP3    H246174   5.922   1.321   8.940  0.0348  0.9410 -0.5202
 7327TIP3   OH246175   1.417   4.891   8.514 -0.0246 -0.0214  0.1336
 7327TIP3    H146176   1.331   4.848   8.517  0.6330 -1.6955 -2.1911
 7327TIP3    H246177   1.440   4.891   8.421  2.6570  0.0878  0.7279
 7328TIP3   OH246178   1.798   4.695   8.443 -0.3109 -0.6883  0.7916
 7328TIP3    H146179   1.757   4.753   8.379 -1.9417 -1.1652  1.3379
 7328TIP3    H246180   1.892   4.702   8.426 -0.6529 -0.2419 -1.1419
 7329TIP3   OH246181   4.906   3.581   9.172  0.5568  0.2802  0.0051
 7329TIP3    H146182   4.895   3.640   9.247 -0.9044 -0.2647  0.2345
 7329TIP3    H246183   4.825   3.588   9.123  0.7700 -0.7769 -0.5274
 7330TIP3   OH246184   6.046   4.686   9.495  0.1520 -0.6095  0.3899
 7330TIP3    H146185   6.002   4.608   9.460 -0.6944  0.2230 -0.4406
 7330TIP3    H246186   5.977   4.752   9.499  0.9104  0.1629  0.9184
 7331TIP3   OH246187   1.144   4.156  10.523 -0.1790  0.0087  0.3252
 7331TIP3    H146188   1.128   4.228  10.462  0.4193  0.7635  1.0313
 7331TIP3    H246189   1.063   4.105  10.523 -0.1310 -0.1048 -1.2183
 7332TIP3   OH246190   3.304   4.098   9.731  0.0862 -0.1411 -0.0167
 7332TIP3    H146191   3.281   4.161   9.800  2.8995 -1.6824  2.6179
 7332TIP3    H246192   3.375   4.141   9.683  0.1190 -0.1950 -0.0170
 7333TIP3   OH246193   3.919   1.449   8.935  0.6922  0.0624 -0.3119
 7333TIP3    H146194   3.921   1.516   8.867  0.4793 -0.2914 -0.6709
 7333TIP3    H246195   3.985   1.477   8.998  0.2278  0.8950 -0.1839
 7334TIP3   OH246196   0.039   3.177  10.315 -0.1105  0.0196  0.0767
 7334TIP3    H146197   0.062   3.249  10.374 -2.0395 -0.8226  1.9919
 7334TIP3    H246198   0.074   3.099  10.359 -1.9411 -0.6748  0.3825
 7335TIP3   OH246199   1.345   1.762   8.625  1.1823 -0.2792 -0.1411
 7335TIP3    H146200   1.377   1.794   8.709 -1.4874 -0.7072  1.1247
 7335TIP3    H246201   1.309   1.676   8.644  1.3100 -0.7566 -1.9154
 7336TIP3   OH246202   5.760   2.354  11.759  0.2328  0.0406 -0.1617
 7336TIP3    H146203   5.733   2.426  11.816 -2.9737 -0.9965 -0.1608
 7336TIP3    H246204   5.726   2.378  11.673  1.1642 -0.4315 -0.6713
 7337TIP3   OH246205   2.465   0.760   8.824 -0.3248  0.1141  0.0388
 7337TIP3    H146206   2.428   0.709   8.752  0.5892 -0.4794 -0.0256
 7337TIP3    H246207   2.392   0.774   8.884 -0.8933 -0.1230 -0.5814
 7338TIP3   OH246208   3.945   4.845  11.086 -0.2514  0.2203  0.2824
 7338TIP3    H146209   4.015   4.845  11.021 -0.7257 -0.3744 -0.2340
 7338TIP3    H246210   3.963   4.922  11.140 -1.0533  2.0109 -1.8451
 7339TIP3   OH246211   4.923   0.872  10.164  0.2337 -0.1962 -0.5869
 7339TIP3    H146212   4.880   0.884  10.079  0.5927  0.0089 -0.7388
 7339TIP3    H246213   4.894   0.947  10.216  1.6023  0.7758 -1.1805
 7340TIP3   OH246214   2.595   5.711   9.264 -0.1515  0.4032 -0.6058
 7340TIP3    H146215   2.501   5.715   9.244 -0.0339  0.9648 -1.0825
 7340TIP3    H246216   2.615   5.618   9.269 -1.1243  0.2353  1.4115
 7341TIP3   OH246217   3.087   0.997   8.910 -0.3800  0.4045 -0.0144
 7341TIP3    H146218   3.173   1.040   8.909  0.3806 -1.0263 -1.1364
 7341TIP3    H246219   3.044   1.028   8.830  0.0194 -0.5745 -0.6273
 7342TIP3   OH246220   5.479   6.120   8.449  0.5756 -0.1203 -0.5646
 7342TIP3    H146221   5.445   6.155   8.367  0.1174  2.6672  0.7039
 7342TIP3    H246222   5.568   6.092   8.427  0.5575  0.7931 -1.9608
 7343TIP3   OH246223   1.633   5.181  10.442 -0.0870  0.0706 -0.0722
 7343TIP3    H146224   1.616   5.211  10.352  1.2768 -0.4163 -0.5171
 7343TIP3    H246225   1.653   5.088  10.433 -1.8101 -0.4467  0.9977
 7344TIP3   OH246226   6.117   4.449   9.228  0.3329  0.0428  0.2681
 7344TIP3    H146227   6.078   4.413   9.307  0.0827 -1.3814 -0.4708
 7344TIP3    H246228   6.178   4.516   9.259 -2.0473  1.7981  1.5070
 7345TIP3   OH246229   2.973   4.683  11.642 -0.0763  0.2017  0.2305
 7345TIP3    H146230   3.069   4.686  11.636 -0.1580  0.5993 -1.2693
 7345TIP3    H246231   2.951   4.594  11.614 -0.2049  0.5698 -0.8955
 7346TIP3   OH246232   0.485   3.984   8.432  0.2281 -0.1875  0.1476
 7346TIP3    H146233   0.577   3.985   8.407 -0.0999 -0.5283 -1.1518
 7346TIP3    H246234   0.469   3.894   8.463 -0.0316 -0.6368 -1.1950
 7347TIP3   OH246235   0.270   0.561   7.782  0.3067 -0.6541 -0.3983
 7347TIP3    H146236   0.254   0.482   7.834 -3.1532  0.2063  0.0895
 7347TIP3    H246237   0.192   0.570   7.727  1.9321  0.8666 -2.6363
 7348TIP3   OH246238   1.349   3.907   9.631  0.0082  0.2801 -0.4718
 7348TIP3    H146239   1.253   3.907   9.641 -0.1399 -1.3277 -1.6135
 7348TIP3    H246240   1.376   3.819   9.659  1.2815  0.9776  0.6260
 7349TIP3   OH246241   5.330   2.426   9.142 -0.0643 -0.1330 -0.4596
 7349TIP3    H146242   5.364   2.510   9.111 -0.0630  0.5068  1.1273
 7349TIP3    H246243   5.240   2.423   9.110 -0.1815  0.6622 -0.2328
 7350TIP3   OH246244   4.430   3.691  11.036 -0.1329  0.0877 -0.0263
 7350TIP3    H146245   4.361   3.752  11.063 -0.0463  0.2191 -0.1069
 7350TIP3    H246246   4.414   3.613  11.090  0.4288  0.5772  0.8643
 7351TIP3   OH246247   0.903   1.093   9.684 -0.0515 -0.6674  0.0360
 7351TIP3    H146248   0.973   1.028   9.677 -0.2843 -0.8184 -1.2244
 7351TIP3    H246249   0.835   1.049   9.736  0.6640 -0.6200  1.0288
 7352TIP3   OH246250   4.452   6.534   9.570 -0.4576  0.6681 -0.2869
 7352TIP3    H146251   4.518   6.497   9.629 -1.3322  1.1754  1.0604
 7352TIP3    H246252   4.478   6.503   9.483  0.2288 -1.0781  0.4789
 7353TIP3   OH246253   1.359   1.751  10.696  0.0566  0.4735  0.3739
 7353TIP3    H146254   1.453   1.746  10.717  0.6463 -0.8010 -2.2637
 7353TIP3    H246255   1.322   1.800  10.770  2.7830  1.1095  1.4710
 7354TIP3   OH246256   5.697   1.879   8.720 -0.6290 -0.2517  0.4566
 7354TIP3    H146257   5.697   1.809   8.785 -2.8213  1.2808  2.2393
 7354TIP3    H246258   5.747   1.843   8.647 -0.3122 -3.0517  1.9075
 7355TIP3   OH246259   4.258   0.760   8.826  0.3805 -0.2535  0.0848
 7355TIP3    H146260   4.348   0.767   8.857 -0.2988  0.8147  2.0087
 7355TIP3    H246261   4.226   0.851   8.825 -0.9897 -0.7001  0.5298
 7356TIP3   OH246262   0.866   4.624   9.642  0.2125 -0.2982  0.3618
 7356TIP3    H146263   0.895   4.535   9.625  0.8903 -0.3201  1.5105
 7356TIP3    H246264   0.947   4.673   9.659 -0.2008  0.3584  0.4893
 7357TIP3   OH246265   1.540   3.190  10.817  0.1921  0.1816  0.3653
 7357TIP3    H146266   1.580   3.127  10.876  1.8020 -0.5731 -1.4599
 7357TIP3    H246267   1.535   3.146  10.732 -0.8766  1.6645 -0.4079
 7358TIP3   OH246268   6.212   4.701  10.364  0.1465  0.5510  0.1311
 7358TIP3    H146269   6.172   4.713  10.450 -1.3771  3.1152 -0.8075
 7358TIP3    H246270   6.155   4.750  10.305  1.8478 -0.0717 -2.1515
 7359TIP3   OH246271   6.513   6.539   9.914  0.2476  0.0952  0.2009
 7359TIP3    H146272   6.546   6.619   9.954  0.9496 -0.0541 -0.0699
 7359TIP3    H246273   6.579   6.516   9.849 -0.8251  0.2833 -0.9918
 7360TIP3   OH246274   5.891   0.359  10.407 -0.0385  0.2045  0.3905
 7360TIP3    H146275   5.820   0.304  10.439 -1.3769  0.8424 -1.3511
 7360TIP3    H246276   5.891   0.436  10.463  0.4922 -0.6033  1.5297
 7361TIP3   OH246277   0.735   3.139   7.988  0.3833 -0.4256 -0.0982
 7361TIP3    H146278   0.730   3.130   8.083  1.5175 -0.1176  0.0113
 7361TIP3    H246279   0.767   3.054   7.958 -1.4370 -1.0473 -0.3776
 7362TIP3   OH246280   6.693   0.968   7.526 -0.2153 -0.0092 -1.1312
 7362TIP3    H146281   6.598   0.974   7.536 -0.0091  0.5903  0.9415
 7362TIP3    H246282   6.707   0.963   7.431 -2.3163 -0.4834 -1.4659
 7363TIP3   OH246283   2.785   5.498   9.307 -0.5228  0.0532 -0.0440
 7363TIP3    H146284   2.784   5.561   9.378  2.3577 -1.1173  1.2077
 7363TIP3    H246285   2.872   5.507   9.268 -1.3412 -0.6686 -2.2162
 7364TIP3   OH246286   5.536   3.690   8.520 -0.2704  0.2807  0.2871
 7364TIP3    H146287   5.470   3.751   8.556  1.4522  1.3627  1.7837
 7364TIP3    H246288   5.596   3.675   8.593  1.7196  0.1362 -1.3039
 7365TIP3   OH246289   0.229   5.365  11.147 -0.0937 -0.2764  0.6010
 7365TIP3    H146290   0.295   5.360  11.077 -0.8909 -2.1703 -0.0999
 7365TIP3    H246291   0.278   5.397  11.223  1.2558 -0.0611 -0.3095
 7366TIP3   OH246292   1.892   4.007  10.478 -0.0326  0.1964  0.2056
 7366TIP3    H146293   1.851   3.954  10.547 -1.6746 -0.4133 -1.1862
 7366TIP3    H246294   1.964   3.952  10.447 -0.5140 -0.3937  0.1090
 7367TIP3   OH246295   4.114   4.044   8.166 -0.2367  0.2532  0.3762
 7367TIP3    H146296   4.041   3.998   8.125 -1.3920  0.0821  2.5015
 7367TIP3    H246297   4.182   3.977   8.175 -0.6020 -0.1400  0.2706
 7368TIP3   OH246298   3.340   2.990  10.110  0.3097  0.2931 -0.6049
 7368TIP3    H146299   3.390   2.925  10.061 -0.3832 -0.5421 -0.2318
 7368TIP3    H246300   3.355   3.072  10.063  3.9982  0.6347  0.8609
 7369TIP3   OH246301   6.061   4.059  11.518 -0.5570 -0.2414 -0.0759
 7369TIP3    H146302   6.105   4.079  11.600 -1.5621  0.5581  0.2937
 7369TIP3    H246303   6.026   3.970  11.531 -2.1969  0.5181  1.0637
 7370TIP3   OH246304   6.210   2.315  11.495 -0.1921 -0.5647 -0.1645
 7370TIP3    H146305   6.158   2.333  11.574  1.4834 -0.3960  0.9562
 7370TIP3    H246306   6.181   2.228  11.467 -0.4529 -0.8698  0.9671
 7371TIP3   OH246307   2.845   2.721  10.003 -0.7276 -0.3797 -0.6250
 7371TIP3    H146308   2.827   2.628   9.990  0.1910 -0.2974 -3.0707
 7371TIP3    H246309   2.761   2.764   9.985 -0.9247 -0.6682 -0.4090
 7372TIP3   OH246310   6.264   1.971   9.096 -0.2927  0.4169 -0.5004
 7372TIP3    H146311   6.213   2.044   9.131 -0.1137 -0.3756  1.5580
 7372TIP3    H246312   6.204   1.896   9.100  0.5755 -0.2466  0.6995
 7373TIP3   OH246313   3.255   0.867   9.295  0.2727  0.5418 -0.5067
 7373TIP3    H146314   3.163   0.847   9.310  0.3160  2.1772  2.8048
 7373TIP3    H246315   3.283   0.804   9.229 -2.8356 -0.9336 -0.5780
 7374TIP3   OH246316   4.040   6.108  10.018 -0.4014  0.4624 -0.3645
 7374TIP3    H146317   4.115   6.049  10.006 -1.7008 -1.5875  0.9829
 7374TIP3    H246318   4.063   6.158  10.097 -1.2143 -1.6571  1.3472
 7375TIP3   OH246319   1.166   5.468  11.406  0.4522  0.3662  0.2985
 7375TIP3    H146320   1.186   5.548  11.357  0.8079  0.3318  0.3837
 7375TIP3    H246321   1.219   5.400  11.365 -2.3551 -0.6204 -2.0198
 7376TIP3   OH246322   1.858   2.513   8.674  0.1964 -0.0033  0.0667
 7376TIP3    H146323   1.951   2.493   8.663 -0.2886 -1.6241 -1.6058
 7376TIP3    H246324   1.816   2.427   8.686 -1.1982  0.6196 -0.1882
 7377TIP3   OH246325   0.318   1.921   8.231  0.1653 -0.6452  0.0315
 7377TIP3    H146326   0.330   1.993   8.292  0.0524 -0.8724  0.3247
 7377TIP3    H246327   0.224   1.908   8.226  0.2285 -1.9830  1.4295
 7378TIP3   OH246328   4.079   4.048  10.900 -0.3089 -0.4355  0.5050
 7378TIP3    H146329   4.147   4.027  10.964 -0.1970 -2.8398 -0.3003
 7378TIP3    H246330   4.000   4.064  10.952  0.2533 -0.2697  1.3197
 7379TIP3   OH246331   2.697   4.193  11.162  0.3262  0.2860 -0.2998
 7379TIP3    H146332   2.670   4.101  11.158  1.0251  0.0522  0.2030
 7379TIP3    H246333   2.649   4.235  11.091  0.0548 -0.4834 -0.5834
 7380TIP3   OH246334   6.116   1.751  10.278  0.2287 -0.0380  0.0580
 7380TIP3    H146335   6.078   1.834  10.307 -0.7645 -0.1724 -0.7969
 7380TIP3    H246336   6.119   1.758  10.182  0.4642 -0.8500  0.0000
 7381TIP3   OH246337   2.195   1.339  11.260  0.6834 -0.1313 -0.4572
 7381TIP3    H146338   2.208   1.269  11.324  0.2572 -1.4158 -1.7260
 7381TIP3    H246339   2.113   1.381  11.287 -0.0782 -1.3737 -0.7815
 7382TIP3   OH246340   6.678   2.117  10.945 -0.1056 -0.1888  0.0001
 7382TIP3    H146341   6.701   2.182  11.011 -1.1156 -1.0711  1.2667
 7382TIP3    H246342   6.582   2.121  10.939 -0.4560 -3.0000  1.7477
 7383TIP3   OH246343   5.360   3.163  10.769  0.3317 -0.1858 -0.5348
 7383TIP3    H146344   5.271   3.174  10.802  0.3247  0.6907 -0.8190
 7383TIP3    H246345   5.373   3.068  10.767 -0.1875 -0.2987  0.5640
 7384TIP3   OH246346   0.146   1.788   8.529 -0.6319  0.4518 -0.5747
 7384TIP3    H146347   0.117   1.842   8.455  0.4321 -1.0535 -2.1570
 7384TIP3    H246348   0.075   1.724   8.541  0.1803 -0.7623 -1.8816
 7385TIP3   OH246349   2.510   2.563   9.954 -0.0000 -0.1696  0.0991
 7385TIP3    H146350   2.461   2.523   9.882 -1.1242 -0.2497  0.8757
 7385TIP3    H246351   2.528   2.652   9.924 -1.1824  0.0618  0.0305
 7386TIP3   OH246352   1.354   4.515   9.938 -0.1140  0.0005  0.2650
 7386TIP3    H146353   1.365   4.495   9.845 -1.9582  1.0245 -0.2274
 7386TIP3    H246354   1.412   4.590   9.953 -0.5395  0.4573 -0.3201
 7387TIP3   OH246355   0.656   4.065   9.223  0.4354  0.2296 -0.1581
 7387TIP3    H146356   0.657   4.109   9.137  2.7404 -1.5979 -1.1784
 7387TIP3    H246357   0.675   4.135   9.285  3.1816  0.9640 -1.6444
 7388TIP3   OH246358   6.747   4.115   8.610 -0.2950  0.3739  0.0906
 7388TIP3    H146359   6.714   4.096   8.698  1.0471 -0.2283  0.5091
 7388TIP3    H246360   6.696   4.189   8.579 -1.3563  0.0590  1.0474
 7389TIP3   OH246361   6.244   2.920  10.339 -0.2421  0.0344 -0.4527
 7389TIP3    H146362   6.218   2.953  10.253 -0.6457  1.5340  0.2176
 7389TIP3    H246363   6.339   2.926  10.339 -0.2752  0.5992 -0.5797
 7390TIP3   OH246364   0.999   5.924   8.482 -0.7196 -0.8845  0.6501
 7390TIP3    H146365   1.072   5.870   8.449 -2.4518 -2.5911 -0.6450
 7390TIP3    H246366   0.996   5.999   8.422  1.6276  0.7272  2.3812
 7391TIP3   OH246367   0.156   5.889   9.829  0.0526 -0.1035  0.4877
 7391TIP3    H146368   0.200   5.921   9.751  0.4959 -1.2956  0.2221
 7391TIP3    H246369   0.104   5.963   9.860  3.4821  2.0151  1.7837
 7392TIP3   OH246370   2.740   1.961  10.411 -0.6416 -0.1728 -0.2454
 7392TIP3    H146371   2.672   1.902  10.381 -1.6788  1.2086 -0.7050
 7392TIP3    H246372   2.813   1.947  10.350 -0.9044 -0.8917 -0.4027
 7393TIP3   OH246373   3.007   6.208   9.562 -0.2608  0.2958  0.1393
 7393TIP3    H146374   2.976   6.247   9.480  2.0590  1.8149 -0.1177
 7393TIP3    H246375   2.933   6.216   9.622 -1.4558  0.6843 -1.3355
 7394TIP3   OH246376   1.174   1.929   9.920  0.3633 -0.2581  0.2278
 7394TIP3    H146377   1.152   1.853   9.866 -0.1927 -0.3327  0.5438
 7394TIP3    H246378   1.101   1.990   9.907  1.3459  0.7207 -0.9017
 7395TIP3   OH246379   6.339   5.873   9.718  0.2107  0.7002 -0.2927
 7395TIP3    H146380   6.283   5.798   9.697  0.9491 -0.7689  2.4289
 7395TIP3    H246381   6.427   5.837   9.722  0.6445  1.7863  0.6513
 7396TIP3   OH246382   5.461   1.070   8.549  0.0473 -0.5371 -0.8262
 7396TIP3    H146383   5.444   1.057   8.643  1.6022  0.5310 -0.3512
 7396TIP3    H246384   5.470   1.165   8.540  0.5014 -0.6732 -1.9417
 7397TIP3   OH246385   6.712   5.024   8.676 -0.1802  0.0389 -0.1582
 7397TIP3    H146386   6.645   4.958   8.698  0.1111  0.0302  0.7415
 7397TIP3    H246387   6.721   5.018   8.581 -1.3799 -0.0428 -0.2823
 7398TIP3   OH246388   4.444   1.488  10.098 -0.3099 -0.5602  0.2070
 7398TIP3    H146389   4.520   1.543  10.075  0.3677 -1.0484  1.2140
 7398TIP3    H246390   4.472   1.399  10.077 -1.2076 -0.5991 -0.9045
 7399TIP3   OH246391   3.554   4.672  10.674 -0.0708 -0.2108  0.3694
 7399TIP3    H146392   3.639   4.650  10.712  0.8183  1.8907 -0.2525
 7399TIP3    H246393   3.516   4.587  10.651  2.4102 -1.1986 -0.5014
 7400TIP3   OH246394   5.758   4.402  10.717 -0.1872  0.2657  0.1953
 7400TIP3    H146395   5.732   4.444  10.798 -0.1703  0.0607  0.3078
 7400TIP3    H246396   5.799   4.320  10.745  1.8347  1.1908  0.1160
 7401TIP3   OH246397   1.810   2.693   9.326  0.4478  0.6072 -0.2160
 7401TIP3    H146398   1.822   2.782   9.295  0.7092  0.3052 -0.9987
 7401TIP3    H246399   1.872   2.641   9.275 -1.1837 -0.3431 -1.3086
 7402TIP3   OH246400   1.124   3.163   9.701 -0.0209  0.6282  0.4368
 7402TIP3    H146401   1.184   3.105   9.747 -0.7841  0.2835  1.0141
 7402TIP3    H246402   1.038   3.121   9.709  0.0717 -0.5816 -3.0601
 7403TIP3   OH246403   6.241   1.106  10.760  0.7175 -0.1363  0.3097
 7403TIP3    H146404   6.314   1.142  10.811  0.1512  1.5408 -0.0069
 7403TIP3    H246405   6.184   1.065  10.825  2.5179 -2.6856  0.4489
 7404TIP3   OH246406   1.613   6.129  10.713  0.3072 -0.0092 -0.4537
 7404TIP3    H146407   1.624   6.109  10.620  0.6176  1.2008 -0.6808
 7404TIP3    H246408   1.541   6.192  10.715  2.1118  2.1283 -0.1478
 7405TIP3   OH246409   4.604   1.753   8.747  0.0337 -0.0359  0.0904
 7405TIP3    H146410   4.527   1.778   8.696  0.5178  0.0794 -0.6003
 7405TIP3    H246411   4.577   1.673   8.792 -0.6486  0.2695  0.2468
 7406TIP3   OH246412   4.723   3.923   8.750  0.0676  0.6448 -0.2156
 7406TIP3    H146413   4.735   4.005   8.702  0.8542  0.0991 -0.9990
 7406TIP3    H246414   4.674   3.867   8.689  1.0604 -0.0499 -0.4113
 7407TIP3   OH246415   3.200   0.103   8.878 -0.0271  0.2232  0.1400
 7407TIP3    H146416   3.142   0.136   8.810 -0.2781 -0.9143 -0.2143
 7407TIP3    H246417   3.280   0.155   8.869  1.0381 -1.6868 -2.8707
 7408TIP3   OH246418   1.187   2.895  11.308 -0.6592 -0.6862  0.4152
 7408TIP3    H146419   1.242   2.818  11.326  2.5346  1.5590  1.1592
 7408TIP3    H246420   1.249   2.964  11.284 -3.2502  1.9322  0.6248
 7409TIP3   OH246421   4.200   4.461   8.603 -0.4721 -0.0170 -0.0230
 7409TIP3    H146422   4.197   4.390   8.667  1.7147  0.1705  0.3512
 7409TIP3    H246423   4.121   4.512   8.621  0.1391  0.1343  2.6668
 7410TIP3   OH246424   0.598   4.223  11.377  0.1886  0.1310  0.0958
 7410TIP3    H146425   0.605   4.144  11.430 -0.9181  0.9132  1.4960
 7410TIP3    H246426   0.608   4.295  11.439 -0.4893  1.0907 -0.8577
 7411TIP3   OH246427   1.250   4.659  11.160  0.1727  0.9318  0.2382
 7411TIP3    H146428   1.249   4.574  11.205 -1.8627 -0.1585 -1.6598
 7411TIP3    H246429   1.257   4.723  11.231  0.4214 -0.7721  1.8408
 7412TIP3   OH246430   2.018   6.005   9.172 -0.0313 -0.1798  0.4583
 7412TIP3    H146431   1.969   5.956   9.238 -1.2803 -1.2749 -1.1773
 7412TIP3    H246432   2.096   5.952   9.156 -0.0231 -0.2183  0.6207
 7413TIP3   OH246433   5.203   1.747  10.166  0.0312  0.0585 -0.1192
 7413TIP3    H146434   5.235   1.799  10.093 -2.3426 -0.4427 -1.6496
 7413TIP3    H246435   5.275   1.688  10.187  2.1021  2.6005  0.4351
 7414TIP3   OH246436   0.119   4.053   9.769  0.1077  0.0230 -0.0245
 7414TIP3    H146437   0.147   3.987   9.833 -2.1988 -0.8150  0.2265
 7414TIP3    H246438   0.024   4.060   9.783 -0.0865  1.5174 -1.8139
 7415TIP3   OH246439   3.329   4.253  10.261  0.8408 -0.9620  0.1996
 7415TIP3    H146440   3.277   4.333  10.267  0.0954 -1.5223  1.6778
 7415TIP3    H246441   3.419   4.283  10.262  0.5918 -0.1513  1.6796
 7416TIP3   OH246442   1.302   4.261   7.795 -0.3019  0.6055 -0.7793
 7416TIP3    H146443   1.250   4.192   7.755  0.7049 -0.0211 -1.0337
 7416TIP3    H246444   1.378   4.270   7.738  2.3646 -1.8766  2.0250
 7417TIP3   OH246445   2.621   4.267   9.118 -0.4528 -0.3673 -0.2098
 7417TIP3    H146446   2.688   4.291   9.054  0.1487 -0.8342  0.2221
 7417TIP3    H246447   2.667   4.271   9.203 -1.1220 -0.1559  0.1473
 7418TIP3   OH246448   1.606   4.846   9.473 -0.1400 -0.5229  0.3166
 7418TIP3    H146449   1.696   4.848   9.442 -0.7041 -0.8892 -1.4466
 7418TIP3    H246450   1.578   4.937   9.473 -0.5343 -0.5995 -1.6247
 7419TIP3   OH246451   6.697   2.649   9.920 -0.1476  0.6882  0.2951
 7419TIP3    H146452   6.678   2.675  10.010 -1.3340 -2.3474  1.0371
 7419TIP3    H246453   6.779   2.601   9.926 -0.3606  0.2584 -0.1864
 7420TIP3   OH246454   1.887   4.632  10.293 -0.3760 -0.3304 -0.6426
 7420TIP3    H146455   1.866   4.650  10.385 -0.8965  0.4036 -0.8897
 7420TIP3    H246456   1.850   4.545  10.277  0.4716 -0.8376  0.0643
 7421TIP3   OH246457   0.195   4.843  10.113 -0.9469  0.3831 -0.1139
 7421TIP3    H146458   0.186   4.808  10.024 -0.1812 -0.5854  0.1819
 7421TIP3    H246459   0.107   4.875  10.134 -1.0614  0.9534 -1.3444
 7422TIP3   OH246460   4.234   2.274  10.611 -0.0841  0.0372 -0.0893
 7422TIP3    H146461   4.299   2.277  10.541 -0.5991 -0.9663 -0.6176
 7422TIP3    H246462   4.187   2.357  10.603  0.0368  0.0427 -0.7606
 7423TIP3   OH246463   5.008   4.083   8.835  0.2622 -0.0703  0.0477
 7423TIP3    H146464   5.035   4.172   8.814  0.6304  0.4444  2.3475
 7423TIP3    H246465   4.965   4.051   8.756  1.3847  1.6178 -1.3160
 7424TIP3   OH246466   5.369   0.098   8.475  0.7599 -0.3276 -0.4223
 7424TIP3    H146467   5.393   0.114   8.566 -0.4146 -0.2500 -0.1142
 7424TIP3    H246468   5.453   0.093   8.429  1.3329  1.4459  0.3405
 7425TIP3   OH246469   4.572   3.011  10.873 -0.4747 -0.1738  0.2525
 7425TIP3    H146470   4.614   3.038  10.791 -1.1813  1.7847  0.4633
 7425TIP3    H246471   4.633   3.040  10.942 -1.1194  0.6664  0.4847
 7426TIP3   OH246472   6.743   1.410   8.613  0.6774 -0.3938 -0.4358
 7426TIP3    H146473   6.756   1.439   8.523 -0.1610 -0.7096 -0.6702
 7426TIP3    H246474   6.718   1.318   8.605 -0.9873 -0.0201 -0.0138
 7427TIP3   OH246475   0.662   1.000   9.777 -0.1387  0.3847 -0.4264
 7427TIP3    H146476   0.625   0.935   9.837  0.9443  1.3861  1.4384
 7427TIP3    H246477   0.658   0.959   9.691 -2.1679 -0.9539  0.2346
 7428TIP3   OH246478   1.666   0.731   8.873  0.2982  0.0643 -0.7311
 7428TIP3    H146479   1.599   0.679   8.829 -0.0097 -0.1890  0.0212
 7428TIP3    H246480   1.712   0.668   8.929  0.2066  0.5168 -0.1410
 7429TIP3   OH246481   2.729   1.792   9.017  0.0214  0.1004 -0.1302
 7429TIP3    H146482   2.782   1.782   8.938 -0.8973 -0.9922 -0.6474
 7429TIP3    H246483   2.723   1.704   9.053  0.6482  0.6242  1.3449
 7430TIP3   OH246484   2.947   4.058   8.359  0.3172 -0.0629  0.4433
 7430TIP3    H146485   2.883   4.045   8.289  0.3886 -1.2478  0.5712
 7430TIP3    H246486   3.005   4.126   8.326 -0.2655  0.1362 -0.2023
 7431TIP3   OH246487   1.372   4.142   9.249 -0.6560 -0.0134 -0.3734
 7431TIP3    H146488   1.301   4.161   9.311 -0.4865 -0.1025 -0.1494
 7431TIP3    H246489   1.444   4.111   9.304  0.3700  2.2378 -0.3159
 7432TIP3   OH246490   0.871   1.607   9.048 -0.5202  0.1852  0.1572
 7432TIP3    H146491   0.958   1.586   9.016 -0.7788  0.1698 -0.5487
 7432TIP3    H246492   0.854   1.540   9.114 -0.3347 -0.3320 -0.3088
 7433TIP3   OH246493   0.260   1.682   9.808  0.3175  0.2505 -0.1325
 7433TIP3    H146494   0.223   1.643   9.729  1.9892  0.5122 -1.1085
 7433TIP3    H246495   0.262   1.776   9.790 -2.1274  0.7027  1.5199
 7434TIP3   OH246496   1.021   2.834   9.949 -0.3631  0.2140  0.3163
 7434TIP3    H146497   0.937   2.808   9.911 -0.1300  0.2984 -0.2657
 7434TIP3    H246498   1.019   2.798  10.037 -0.4438 -0.9623 -0.1417
 7435TIP3   OH246499   0.351   6.578   8.086  0.1494  0.2734 -0.0555
 7435TIP3    H146500   0.439   6.575   8.123  0.2336  0.0070 -0.2766
 7435TIP3    H246501   0.352   6.513   8.016 -0.5752 -0.5899  0.7137
 7436TIP3   OH246502   2.787   0.629   8.499 -0.4482 -0.4557 -0.1692
 7436TIP3    H146503   2.856   0.658   8.439  0.0733 -0.4694  0.4191
 7436TIP3    H246504   2.787   0.694   8.569 -1.7454  0.1285 -0.6819
 7437TIP3   OH246505   5.635   4.119  11.203  0.0272 -1.2903  0.8258
 7437TIP3    H146506   5.710   4.137  11.259  0.7992  0.3223 -0.6388
 7437TIP3    H246507   5.669   4.062  11.134 -0.1967 -0.9400  0.4200
 7438TIP3   OH246508   5.748   5.727   8.498 -0.0404 -0.4135  0.0399
 7438TIP3    H146509   5.788   5.651   8.540 -0.4199  0.4974  2.1517
 7438TIP3    H246510   5.654   5.710   8.500 -0.0601 -0.4434 -0.6637
 7439TIP3   OH246511   3.826   0.590   8.642 -0.1163 -0.2535  0.3724
 7439TIP3    H146512   3.919   0.573   8.658 -0.1740 -0.6616  0.2669
 7439TIP3    H246513   3.784   0.569   8.725  0.1442  2.0984  1.1825
 7440TIP3   OH246514   0.943   1.347   8.102 -0.2237 -0.0814 -0.1278
 7440TIP3    H146515   0.862   1.390   8.129 -0.1304 -0.3859  0.6415
 7440TIP3    H246516   1.010   1.416   8.108  0.1622 -0.6026  2.3002
 7441TIP3   OH246517   5.307   0.632   9.707 -0.1952 -0.3490  0.3138
 7441TIP3    H146518   5.216   0.661   9.702 -0.6510 -1.2016  2.5623
 7441TIP3    H246519   5.352   0.685   9.641 -2.0926  0.9150 -0.0673
 7442TIP3   OH246520   3.954   4.574   8.604  0.4382  0.4703  0.3049
 7442TIP3    H146521   3.881   4.618   8.648 -0.3168 -1.0165  0.6157
 7442TIP3    H246522   3.990   4.640   8.545 -1.0733  1.2890  0.2526
 7443TIP3   OH246523   1.571   2.443  11.017 -0.2972 -0.0371 -0.0915
 7443TIP3    H146524   1.532   2.453  10.930 -0.9191 -0.1013  0.1721
 7443TIP3    H246525   1.521   2.503  11.073 -1.8938 -2.0687  0.8232
 7444TIP3   OH246526   1.446   4.368   8.600 -0.4416  0.0217 -0.2286
 7444TIP3    H146527   1.538   4.377   8.577  0.4099  1.1151  3.0907
 7444TIP3    H246528   1.444   4.299   8.666 -1.6500  1.4579  1.3030
 7445TIP3   OH246529   4.785   6.665   9.706  0.2431  1.0514  0.3063
 7445TIP3    H146530   4.825   6.748   9.680  1.9867  0.5350  1.2400
 7445TIP3    H246531   4.801   6.606   9.632  0.9471  0.9426  0.5378
 7446TIP3   OH246532   0.101   3.729  10.514  0.1983 -0.1492 -0.3502
 7446TIP3    H146533   0.184   3.732  10.561  0.1364 -1.3786 -0.1154
 7446TIP3    H246534   0.125   3.701  10.425  0.3907  2.7767 -1.3249
 7447TIP3   OH246535   0.589   0.542   9.612  0.2202  0.5006  0.2656
 7447TIP3    H146536   0.662   0.571   9.558 -0.8267  3.2255  0.1426
 7447TIP3    H246537   0.546   0.623   9.640 -0.9548 -0.8966  2.8627
 7448TIP3   OH246538   2.355   6.569   9.010 -0.4845  0.1652  0.0135
 7448TIP3    H146539   2.315   6.611   8.933 -0.9587 -0.0518  0.1370
 7448TIP3    H246540   2.339   6.476   8.997  1.9509 -0.1824 -1.0602
 7449TIP3   OH246541   4.687   0.268  10.266 -0.7411  0.1752  0.6262
 7449TIP3    H146542   4.701   0.285  10.173 -0.0598 -0.8125  0.5337
 7449TIP3    H246543   4.600   0.305  10.285 -1.1868 -0.2342 -0.5594
 7450TIP3   OH246544   2.868   0.079   8.077 -0.3096  0.2193 -0.2358
 7450TIP3    H146545   2.795   0.073   8.138 -0.3530 -1.2319 -0.3993
 7450TIP3    H246546   2.946   0.064   8.131 -0.3373 -0.9003 -0.4767
 7451TIP3   OH246547   0.200   3.675   7.869  0.2162  0.6100 -0.1731
 7451TIP3    H146548   0.266   3.622   7.914  2.2547  1.9208 -1.4481
 7451TIP3    H246549   0.138   3.611   7.834  2.4133 -0.9693 -1.4133
 7452TIP3   OH246550   6.623   2.833   9.050 -0.5305  0.6338 -0.0774
 7452TIP3    H146551   6.658   2.783   8.976  0.2151 -0.1101  0.7470
 7452TIP3    H246552   6.611   2.921   9.016 -0.8187  0.1569 -1.2641
 7453TIP3   OH246553   0.382   3.849   8.659 -0.2813 -0.1424  0.5338
 7453TIP3    H146554   0.334   3.789   8.717  0.6764 -0.5030  0.9693
 7453TIP3    H246555   0.428   3.792   8.598 -1.4137  0.2430 -0.7223
 7454TIP3   OH246556   5.168   4.175   9.669 -0.4434  0.3096  0.0325
 7454TIP3    H146557   5.108   4.101   9.678  0.0022 -0.1892 -0.9696
 7454TIP3    H246558   5.131   4.228   9.599 -0.5318  0.8235  0.4593
 7455TIP3   OH246559   5.702   4.786   8.508  0.1829 -0.4468  0.3125
 7455TIP3    H146560   5.667   4.835   8.582  0.8607 -0.4084  0.6072
 7455TIP3    H246561   5.742   4.853   8.452 -0.4207 -0.4602 -0.1527
 7456TIP3   OH246562   4.234   5.995  10.803 -0.2688  0.0923  0.0652
 7456TIP3    H146563   4.167   5.928  10.788  0.2355 -0.4548  0.2507
 7456TIP3    H246564   4.192   6.057  10.862 -0.2055 -0.9079  1.2046
 7457TIP3   OH246565   1.674   2.959   8.546  0.1831 -0.6786  0.3579
 7457TIP3    H146566   1.623   2.969   8.626 -0.6522 -2.0243  0.0179
 7457TIP3    H246567   1.677   2.865   8.531 -0.5321 -0.4041 -1.7472
 7458TIP3   OH246568   1.005   4.824  10.874 -0.4999 -0.5358 -0.1137
 7458TIP3    H146569   1.013   4.759  10.944 -1.1429  1.5384  2.0557
 7458TIP3    H246570   0.943   4.786  10.812  2.4757 -3.8122 -1.3270
 7459TIP3   OH246571   3.055   3.299   9.032  0.4491  0.4935 -0.1562
 7459TIP3    H146572   3.101   3.342   8.959 -0.7290 -1.6390 -2.2766
 7459TIP3    H246573   3.119   3.239   9.068  0.8052  1.0140  0.0935
 7460TIP3   OH246574   2.590   5.334   8.275  0.2970 -0.3301  0.2720
 7460TIP3    H146575   2.679   5.327   8.310  0.0821  2.0535  1.5247
 7460TIP3    H246576   2.575   5.252   8.229  2.9404 -1.0082  0.4930
 7461TIP3   OH246577   4.206   3.433   8.304  0.4379 -0.4611  0.1530
 7461TIP3    H146578   4.110   3.427   8.309  0.3214  0.7503 -0.2078
 7461TIP3    H246579   4.236   3.409   8.391  0.0265 -3.8195 -0.4928
 7462TIP3   OH246580   1.590   3.136   9.783  0.7601 -0.1258  0.2747
 7462TIP3    H146581   1.659   3.158   9.846  0.8066  0.0325  0.1662
 7462TIP3    H246582   1.529   3.081   9.833 -0.2886  1.6580  1.0651
 7463TIP3   OH246583   0.614   4.782   8.245  0.1089  0.4331 -0.2892
 7463TIP3    H146584   0.546   4.727   8.285  0.5652 -0.0261 -0.1283
 7463TIP3    H246585   0.662   4.818   8.319  0.5234  0.1321 -0.4080
 7464TIP3   OH246586   1.553   1.116   7.945 -0.7043  0.4206 -0.0947
 7464TIP3    H146587   1.478   1.058   7.931 -1.7128  1.0395  2.2403
 7464TIP3    H246588   1.604   1.073   8.014  1.1933 -0.0175 -1.6919
 7465TIP3   OH246589   4.259   3.556   9.146  0.3320 -0.1528  0.2697
 7465TIP3    H146590   4.302   3.635   9.115 -1.0773  0.6429  0.2577
 7465TIP3    H246591   4.319   3.485   9.123 -0.3464  0.4046 -3.8328
 7466TIP3   OH246592   4.675   3.506  10.422 -0.3743 -0.0842  0.0148
 7466TIP3    H146593   4.656   3.519  10.329  2.1956  0.0152 -0.5820
 7466TIP3    H246594   4.737   3.576  10.444 -0.3439 -0.5672  1.5996
 7467TIP3   OH246595   5.096   3.104  10.801  0.4669  0.0245 -0.1062
 7467TIP3    H146596   5.031   3.146  10.857 -0.4262 -0.0832 -1.0287
 7467TIP3    H246597   5.071   3.011  10.800  1.0507 -0.1440  0.0705
 7468TIP3   OH246598   0.268   5.253   9.347  0.2463 -0.5323  0.6714
 7468TIP3    H146599   0.236   5.273   9.259  1.0109 -0.2174  0.4577
 7468TIP3    H246600   0.305   5.165   9.340  0.2649 -0.5258  0.6890
 7469TIP3   OH246601   6.373   1.898   9.391 -0.1431  0.0324 -0.2577
 7469TIP3    H146602   6.299   1.908   9.332  0.4244  0.2729 -0.9365
 7469TIP3    H246603   6.338   1.922   9.477 -1.1490 -0.9893 -0.3611
 7470TIP3   OH246604   0.043   5.811   8.482  0.3567 -0.5729  0.1411
 7470TIP3    H146605   0.118   5.756   8.505  1.2776  0.5347 -0.1097
 7470TIP3    H246606   0.082   5.890   8.443 -0.9718 -0.3924 -0.9090
 7471TIP3   OH246607   0.364   2.131   9.262  0.0288 -0.5389  0.1483
 7471TIP3    H146608   0.398   2.060   9.208 -0.5228 -1.0543  0.4721
 7471TIP3    H246609   0.418   2.129   9.341  1.3099  0.6693 -0.6448
 7472TIP3   OH246610   4.149   6.446   9.350  0.0474  0.1266 -0.1508
 7472TIP3    H146611   4.167   6.414   9.438 -1.1421 -0.3045 -0.0382
 7472TIP3    H246612   4.155   6.541   9.356 -1.7258  0.2159  0.8335
 7473TIP3   OH246613   0.826   1.619   9.592 -0.2169 -0.1394  1.4724
 7473TIP3    H146614   0.740   1.642   9.558 -0.0666  0.5771  1.5653
 7473TIP3    H246615   0.819   1.526   9.614 -0.2085 -0.7565 -0.8777
 7474TIP3   OH246616   6.668   0.627   9.221 -0.1354  0.6196  0.2974
 7474TIP3    H146617   6.613   0.587   9.289 -0.9035  1.2122  0.0453
 7474TIP3    H246618   6.608   0.687   9.175 -1.1438 -3.2014 -4.1040
 7475TIP3   OH246619   0.337   4.037   9.381  0.1810  0.4651  0.0558
 7475TIP3    H146620   0.382   4.122   9.382  0.6334  0.2299 -0.0204
 7475TIP3    H246621   0.396   3.979   9.428 -1.1622  0.6919  2.1531
 7476TIP3   OH246622   1.509   0.383  10.749  0.4177 -0.2007  0.4899
 7476TIP3    H146623   1.494   0.475  10.769  0.9280 -0.3435  1.6269
 7476TIP3    H246624   1.446   0.362  10.681  1.0856  1.2971 -0.6476
 7477TIP3   OH246625   3.678   4.118  11.262 -0.4579  0.2495 -0.0345
 7477TIP3    H146626   3.767   4.091  11.285  0.1558  1.4817 -0.8182
 7477TIP3    H246627   3.630   4.114  11.344  0.5058  0.2451  0.5485
 7478TIP3   OH246628   3.114   2.760  10.000  0.5797 -0.6163  0.2113
 7478TIP3    H146629   3.025   2.727   9.995  0.0208  0.9233 -0.8255
 7478TIP3    H246630   3.127   2.781  10.092  0.0218 -1.2414  0.4354
 7479TIP3   OH246631   6.113   6.116  18.856 -0.2953  0.0528 -0.9643
 7479TIP3    H146632   6.095   6.191  18.799 -0.3063  1.0920  0.3542
 7479TIP3    H246633   6.208   6.118  18.868 -0.2394 -0.4363 -1.2948
 7480TIP3   OH246634   0.655   6.131   9.150  0.2912 -0.3071 -0.4640
 7480TIP3    H146635   0.620   6.089   9.228  1.8876 -2.0645 -0.6197
 7480TIP3    H246636   0.582   6.181   9.115 -0.2479  1.2167  2.5662
 7481TIP3   OH246637   0.128   2.461   8.857  0.3652  0.0606 -0.3774
 7481TIP3    H146638   0.204   2.508   8.891  0.1100  0.6021 -0.5355
 7481TIP3    H246639   0.154   2.431   8.770  0.2293  0.6804 -0.6347
 7482TIP3   OH246640   3.165   4.752  10.034  0.8031 -0.3779 -0.6688
 7482TIP3    H146641   3.100   4.822  10.036  0.3360 -0.8163 -0.1853
 7482TIP3    H246642   3.187   4.741   9.942 -0.5747 -0.9286 -0.9458
 7483TIP3   OH246643   6.218   0.743  10.558  0.0249  0.1935 -0.5848
 7483TIP3    H146644   6.237   0.729  10.651  2.8406  0.8331 -0.9770
 7483TIP3    H246645   6.166   0.666  10.532 -3.2363  1.2624  2.0109
 7484TIP3   OH246646   4.653   4.752  11.768  0.0428 -0.0048  0.7457
 7484TIP3    H146647   4.676   4.702  11.846  0.2754 -0.6535  0.2681
 7484TIP3    H246648   4.693   4.704  11.696  1.6155  1.7121  0.3919
 7485TIP3   OH246649   5.666   0.977   9.603 -0.3003  0.1627 -0.3094
 7485TIP3    H146650   5.625   1.048   9.553 -0.5211 -0.0517 -0.4361
 7485TIP3    H246651   5.655   1.004   9.694 -0.8907  0.0245 -0.3347
 7486TIP3   OH246652   3.489   5.031  10.333  0.3502 -0.0033 -0.0662
 7486TIP3    H146653   3.543   4.986  10.397  1.4504  0.2471 -0.7825
 7486TIP3    H246654   3.551   5.083  10.281 -0.8231  2.3399  0.6973
 7487TIP3   OH246655   4.399   4.489   8.416  0.0986 -0.7233  0.1875
 7487TIP3    H146656   4.335   4.472   8.486 -0.7686  0.5757 -0.2702
 7487TIP3    H246657   4.384   4.579   8.390 -0.4959 -1.5369 -2.6112
 7488TIP3   OH246658   4.808   2.810  10.281 -0.2834  0.2461 -0.4968
 7488TIP3    H146659   4.884   2.791  10.226  0.3152 -0.4205  0.5153
 7488TIP3    H246660   4.824   2.899  10.314 -0.3116  0.3873 -0.8593
 7489TIP3   OH246661   3.156   3.425   8.730  0.4549  0.2933 -0.5773
 7489TIP3    H146662   3.209   3.397   8.805 -0.3502  0.3248  0.0077
 7489TIP3    H246663   3.175   3.519   8.721  0.8673  0.2057 -0.6863
 7490TIP3   OH246664   6.541   4.031   8.118 -0.1695  0.0114 -0.0858
 7490TIP3    H146665   6.521   3.954   8.170  1.0396  0.8560  1.7131
 7490TIP3    H246666   6.600   4.000   8.050 -1.2664 -0.9891 -0.6133
 7491TIP3   OH246667   3.621   1.750  10.003 -0.0873 -0.1523 -0.8198
 7491TIP3    H146668   3.678   1.678   9.977 -1.6288 -1.9801  0.5220
 7491TIP3    H246669   3.635   1.760  10.097 -1.5161 -0.2808 -0.5606
 7492TIP3   OH246670   1.591   1.016   8.190  0.8586  0.6858 -0.0082
 7492TIP3    H146671   1.513   1.010   8.244  0.2489  0.7050 -0.8643
 7492TIP3    H246672   1.642   0.938   8.213  1.3541  1.4512  1.6713
 7493TIP3   OH246673   5.127   4.597   9.190  0.0371 -0.3570  0.4895
 7493TIP3    H146674   5.204   4.544   9.168 -0.8143 -1.0921 -0.8941
 7493TIP3    H246675   5.081   4.608   9.107 -0.1355  2.1193  0.8321
 7494TIP3   OH246676   3.187   0.957   9.805 -0.1522  0.1953 -0.5745
 7494TIP3    H146677   3.099   0.966   9.841  0.3867  1.5049  0.5169
 7494TIP3    H246678   3.195   0.865   9.782 -1.2242 -0.2878  0.8564
 7495TIP3   OH246679   3.193   4.795   9.779  0.0607  0.0194 -0.6327
 7495TIP3    H146680   3.265   4.856   9.796 -1.2535  2.1782 -2.3181
 7495TIP3    H246681   3.155   4.825   9.696 -1.9499 -1.8677 -0.4840
 7496TIP3   OH246682   5.808   0.631   8.082  0.6323  0.2243  0.2546
 7496TIP3    H146683   5.830   0.724   8.080  0.9670  0.1816  1.2225
 7496TIP3    H246684   5.807   0.609   8.175  0.9383 -0.8309  0.0203
 7497TIP3   OH246685   3.058   3.493   9.478  0.0142 -0.0755 -0.3592
 7497TIP3    H146686   3.138   3.526   9.438  0.3785  0.1417  0.5062
 7497TIP3    H246687   3.029   3.423   9.420  1.6502 -1.1631  0.0422
 7498TIP3   OH246688   2.009   4.293   8.507  0.1662  0.1576  0.5318
 7498TIP3    H146689   2.075   4.358   8.485  2.0818 -1.8144  0.1329
 7498TIP3    H246690   1.942   4.302   8.439  0.8510  1.0638 -0.0354
 7499TIP3   OH246691   2.417   1.528   8.507  0.1058  0.0418 -0.0851
 7499TIP3    H146692   2.512   1.520   8.510 -0.0331 -2.0548  2.5727
 7499TIP3    H246693   2.388   1.452   8.455 -0.1709 -0.7567  1.2014
 7500TIP3   OH246694   1.455   3.042   8.032 -0.1826  0.2043  0.0638
 7500TIP3    H146695   1.434   2.985   7.958 -1.6509  0.3216  0.3457
 7500TIP3    H246696   1.539   3.010   8.064  1.3617  1.1982 -2.6390
 7501TIP3   OH246697   3.734   3.072  10.027 -0.0281  0.0810 -0.2635
 7501TIP3    H146698   3.656   3.127  10.031 -1.6139 -2.0543  0.5937
 7501TIP3    H246699   3.735   3.038   9.937  0.7185  1.1295 -0.6712
 7502TIP3   OH246700   5.912   2.545   7.848  0.0322  0.3394 -0.2416
 7502TIP3    H146701   5.862   2.626   7.856  0.3059  0.4824  0.0558
 7502TIP3    H246702   5.846   2.476   7.842 -0.2004  0.5105  0.3088
 7503TIP3   OH246703   1.703   1.802   8.731 -0.0539  0.5082  0.4284
 7503TIP3    H146704   1.610   1.819   8.719  0.1704  0.7073 -1.2959
 7503TIP3    H246705   1.714   1.794   8.826 -1.9338 -0.2050  0.6274
 7504TIP3   OH246706   1.710   3.543   9.211  0.1099 -0.1411  0.0820
 7504TIP3    H146707   1.724   3.636   9.193 -1.8700 -0.1391 -1.8295
 7504TIP3    H246708   1.643   3.516   9.148  0.9058 -2.9712  0.3121
 7505TIP3   OH246709   2.666   6.618  10.089  0.1799 -0.1059 -0.4745
 7505TIP3    H146710   2.727   6.545  10.080  0.3872  0.1495 -1.2131
 7505TIP3    H246711   2.685   6.674  10.014 -0.2725  0.4882 -0.1497
 7506TIP3   OH246712   0.038   1.473  10.879 -0.1135  0.3427 -0.2401
 7506TIP3    H146713   0.089   1.485  10.959 -0.1911 -0.3344 -0.0864
 7506TIP3    H246714  -0.047   1.511  10.898  0.5624  2.2334 -0.7741
 7507TIP3   OH246715   2.305   6.044  10.534  0.0238  0.5674  0.1903
 7507TIP3    H146716   2.354   5.998  10.602  0.0398  1.7192  0.9807
 7507TIP3    H246717   2.371   6.083  10.477  0.0279  1.0278  0.5053
 7508TIP3   OH246718   0.115   3.891  11.042  0.4653  0.2288  0.5576
 7508TIP3    H146719   0.062   3.956  10.996  0.1236  0.0936  0.7535
 7508TIP3    H246720   0.185   3.870  10.981  0.8387  1.1147  0.6682
 7509TIP3   OH246721   2.335   5.204   9.917  0.1212  0.3031  0.3821
 7509TIP3    H146722   2.375   5.253   9.988 -1.1390  1.8561  0.0701
 7509TIP3    H246723   2.321   5.269   9.848 -0.5676 -0.7355 -0.4908
 7510TIP3   OH246724   2.918   2.010  10.630  0.1810  0.2690  0.2764
 7510TIP3    H146725   2.922   2.060  10.548  1.8977 -0.8322 -0.3663
 7510TIP3    H246726   2.841   1.955  10.621 -0.6390  1.3884  0.1753
 7511TIP3   OH246727   0.913   2.952   8.591 -0.2835  0.0492  0.3005
 7511TIP3    H146728   0.979   3.020   8.608  1.1898 -1.4634  0.8596
 7511TIP3    H246729   0.918   2.938   8.497  1.3258 -1.0918  0.5101
 7512TIP3   OH246730   5.918   1.052   9.464 -0.2091  0.6893 -0.0784
 7512TIP3    H146731   5.827   1.034   9.489  0.0134 -0.2020  0.1001
 7512TIP3    H246732   5.912   1.126   9.403 -1.0921  0.3321 -0.4337
 7513TIP3   OH246733   4.774   4.849  11.309 -0.6060 -0.0389  0.0437
 7513TIP3    H146734   4.694   4.797  11.320  1.2283 -3.1188 -0.0845
 7513TIP3    H246735   4.743   4.940  11.308 -4.1087 -1.0763 -0.2879
 7514TIP3   OH246736   4.877   3.730  10.045 -0.2102  0.1895 -0.1828
 7514TIP3    H146737   4.967   3.747  10.016 -0.2913  0.3535 -0.3365
 7514TIP3    H246738   4.837   3.683   9.972 -0.5150  0.8981 -0.4789
 7515TIP3   OH246739   3.010   4.747  10.451 -0.4101 -0.8298 -0.0580
 7515TIP3    H146740   2.962   4.795  10.519  0.0124 -0.3676 -0.0810
 7515TIP3    H246741   3.091   4.797  10.439  0.0627 -1.5791 -0.0496
 7516TIP3   OH246742   4.085   2.183   8.110 -0.0918  0.3643 -0.1699
 7516TIP3    H146743   4.177   2.156   8.115  0.5204  2.2063 -0.7616
 7516TIP3    H246744   4.071   2.236   8.188  0.1264  2.1794 -1.2920
 7517TIP3   OH246745   2.968   3.637   9.033 -0.5758  0.3269 -0.2082
 7517TIP3    H146746   3.056   3.601   9.032 -0.6340  0.1992 -0.9417
 7517TIP3    H246747   2.910   3.561   9.025 -0.6928  0.5615 -1.9131
 7518TIP3   OH246748   2.463   5.979   9.305  0.2897 -0.4294 -0.3556
 7518TIP3    H146749   2.381   5.956   9.262  0.0394 -0.9906  0.4089
 7518TIP3    H246750   2.510   5.896   9.312 -0.4744 -0.7229  2.1346
 7519TIP3   OH246751   5.006   2.025   8.750 -0.2309  0.4010 -0.7259
 7519TIP3    H146752   5.080   2.069   8.709 -2.2003  3.1922 -1.5897
 7519TIP3    H246753   4.946   2.005   8.678 -0.5770 -1.3972  0.0011
 7520TIP3   OH246754   2.413   2.314   9.326  0.2903  0.1227 -0.2781
 7520TIP3    H146755   2.318   2.315   9.324  0.2968  0.6851 -1.3363
 7520TIP3    H246756   2.439   2.302   9.234  1.2245  1.4965 -0.2292
 7521TIP3   OH246757   0.362   1.922  10.275 -0.1049  0.1120  0.5795
 7521TIP3    H146758   0.419   1.847  10.293  0.5709  0.7108  1.0215
 7521TIP3    H246759   0.324   1.904  10.189  0.4185 -0.5146  0.4729
 7522TIP3   OH246760   4.502   4.847  11.074  0.1334  0.2010 -0.5197
 7522TIP3    H146761   4.502   4.934  11.116  0.8616  0.4868 -1.0939
 7522TIP3    H246762   4.498   4.786  11.147  1.5603  0.6878 -0.0001
 7523TIP3   OH246763   2.624   5.528  10.366 -0.1483 -0.3794 -0.0118
 7523TIP3    H146764   2.642   5.556  10.456 -0.6393  1.5736 -0.4646
 7523TIP3    H246765   2.567   5.453  10.375 -2.2811  1.2901  1.3650
 7524TIP3   OH246766   3.173   0.282   9.440  0.5819  0.0288 -0.1024
 7524TIP3    H146767   3.235   0.265   9.369  0.7883  0.1557  0.0466
 7524TIP3    H246768   3.196   0.369   9.472  1.1906 -0.4580  0.8241
 7525TIP3   OH246769   3.763   5.062   9.425 -0.0056 -0.1707 -0.5282
 7525TIP3    H146770   3.806   5.124   9.485  0.4862 -0.9025 -0.1050
 7525TIP3    H246771   3.830   5.039   9.361  0.1593 -1.0785 -0.0507
 7526TIP3   OH246772   3.257   5.734   8.655  0.3064 -0.1754 -0.2361
 7526TIP3    H146773   3.167   5.748   8.624  0.3127  1.1305  0.2695
 7526TIP3    H246774   3.278   5.645   8.627 -0.8083 -0.1722 -1.1794
 7527TIP3   OH246775   5.584   2.239   8.059 -0.6779 -0.2443  0.3211
 7527TIP3    H146776   5.498   2.222   8.097 -0.4788 -1.5571  0.2199
 7527TIP3    H246777   5.623   2.153   8.046  1.1862  0.3332  1.5505
 7528TIP3   OH246778   3.901   0.960   8.976  0.3060  0.1855 -0.7425
 7528TIP3    H146779   3.839   0.904   9.024  0.4284  1.1128  0.5621
 7528TIP3    H246780   3.988   0.926   9.001  0.3577 -0.1088 -1.3067
 7529TIP3   OH246781   3.324   6.462  10.553 -0.6761 -0.7455 -0.0846
 7529TIP3    H146782   3.355   6.547  10.583 -0.2911 -1.0029  0.2582
 7529TIP3    H246783   3.398   6.425  10.504 -0.9566 -0.7440 -0.5135
 7530TIP3   OH246784   0.693   1.789  11.160  0.2232 -0.1631 -0.5442
 7530TIP3    H146785   0.784   1.762  11.173  0.7423  1.3536 -0.7469
 7530TIP3    H246786   0.648   1.763  11.241  1.2615  0.6857  0.3443
 7531TIP3   OH246787   6.070   6.559  11.054  0.2389 -0.4051 -0.5903
 7531TIP3    H146788   6.142   6.508  11.018  0.2242 -1.1109  0.3308
 7531TIP3    H246789   5.999   6.496  11.067 -0.5822  0.2858 -1.5288
 7532TIP3   OH246790   2.985   4.222  10.408  0.4031 -0.2687 -0.5015
 7532TIP3    H146791   2.938   4.296  10.446  1.2001  0.8664 -1.6379
 7532TIP3    H246792   3.052   4.199  10.473 -0.2606 -0.4381  0.1367
 7533TIP3   OH246793   6.348   3.209  11.278  0.4742 -0.1326 -0.0499
 7533TIP3    H146794   6.256   3.198  11.255  0.2610  0.4168  0.5391
 7533TIP3    H246795   6.385   3.121  11.269 -0.1268 -0.3758 -0.1913
 7534TIP3   OH246796   1.928   1.896   8.588  0.2590 -0.3247  0.0354
 7534TIP3    H146797   1.895   1.973   8.542  0.6764 -0.0314  0.2217
 7534TIP3    H246798   1.851   1.856   8.627  0.2155  0.8080  1.1533
 7535TIP3   OH246799   2.091   0.505   8.182  0.0642  0.1341 -0.2796
 7535TIP3    H146800   2.042   0.518   8.264  1.3486 -3.1638  1.1871
 7535TIP3    H246801   2.170   0.558   8.194 -0.8887  1.6821 -0.5667
 7536TIP3   OH246802   3.812   5.501   9.346 -0.4369  0.0170  0.1618
 7536TIP3    H146803   3.901   5.512   9.312 -0.8393  1.3339 -0.5377
 7536TIP3    H246804   3.820   5.432   9.412  1.4244  1.2026  1.2746
 7537TIP3   OH246805   5.993   5.114   8.079  0.1980  0.2392  0.9743
 7537TIP3    H146806   5.924   5.164   8.036  2.2100  1.5558 -0.8911
 7537TIP3    H246807   6.044   5.179   8.128  1.5969 -0.2495  0.2341
 7538TIP3   OH246808   5.994   1.710   7.736  0.4665 -0.1621 -0.5302
 7538TIP3    H146809   6.052   1.636   7.751  0.1067 -0.2132  0.7456
 7538TIP3    H246810   5.949   1.689   7.654  0.3901 -1.3565 -0.2061
 7539TIP3   OH246811   1.947   5.838  11.365 -0.3463  0.0887  0.5152
 7539TIP3    H146812   1.967   5.922  11.407  1.2285 -0.3153  0.6260
 7539TIP3    H246813   2.007   5.776  11.406  0.1349 -0.6390 -1.2086
 7540TIP3   OH246814   5.461   1.067  11.078 -0.1221  0.1066  0.1289
 7540TIP3    H146815   5.400   1.139  11.095  0.1376  0.0849  1.2618
 7540TIP3    H246816   5.440   1.038  10.989 -1.7675  0.1091  0.4817
 7541TIP3   OH246817   4.667   3.309   9.341 -0.3841 -0.8738  0.6688
 7541TIP3    H146818   4.740   3.304   9.278  0.0049  0.8846  0.9296
 7541TIP3    H246819   4.594   3.266   9.297 -0.5969  1.6774 -1.7227
 7542TIP3   OH246820   2.447   1.051  11.079  0.2565  0.5941  0.3107
 7542TIP3    H146821   2.537   1.069  11.107  0.7440  0.0100 -0.7928
 7542TIP3    H246822   2.415   0.986  11.140  1.6036 -1.3237 -0.9009
 7543TIP3   OH246823   1.261   0.915   9.122  0.1182  0.1178  0.0814
 7543TIP3    H146824   1.351   0.897   9.095  0.6070 -0.0769  1.7057
 7543TIP3    H246825   1.251   1.009   9.111  0.6768  0.2084  0.3103
 7544TIP3   OH246826   5.812   0.672   7.635 -0.0440  0.1820  0.1661
 7544TIP3    H146827   5.787   0.764   7.646 -1.9054 -0.2868  0.2072
 7544TIP3    H246828   5.907   0.674   7.630  0.0867  1.9246  1.9774
 7545TIP3   OH246829   1.217   0.717   9.313 -0.5146  0.5087  0.1036
 7545TIP3    H146830   1.168   0.748   9.389  1.5108  0.8525  1.3496
 7545TIP3    H246831   1.221   0.792   9.254  1.0793  1.4908  1.3850
 7546TIP3   OH246832   2.218   3.942   8.755 -0.3204  0.5226  0.8995
 7546TIP3    H146833   2.203   4.036   8.744  1.7520  0.9789  1.4811
 7546TIP3    H246834   2.310   3.935   8.782 -0.3680 -1.6914  0.7196
 7547TIP3   OH246835   4.292   2.371   8.734 -0.4193 -0.2108 -0.1407
 7547TIP3    H146836   4.285   2.465   8.720 -0.0889 -0.2434 -0.5611
 7547TIP3    H246837   4.230   2.352   8.804 -1.7100  0.0737 -1.1737
 7548TIP3   OH246838   4.605   0.945   8.195  0.2716  0.0103  0.1170
 7548TIP3    H146839   4.518   0.976   8.220 -0.2296  0.8411 -2.3805
 7548TIP3    H246840   4.589   0.859   8.155  0.6769 -0.0621  0.1019
 7549TIP3   OH246841   1.721   2.789   7.922 -1.0477  0.3361 -0.0220
 7549TIP3    H146842   1.788   2.857   7.922 -1.6691  1.0366  2.0650
 7549TIP3    H246843   1.762   2.714   7.879 -0.6530  2.2308 -3.2697
 7550TIP3   OH246844   5.535   0.114  10.260  0.7717  0.1532 -0.8795
 7550TIP3    H146845   5.603   0.048  10.254  1.6690  1.0853 -1.3328
 7550TIP3    H246846   5.580   0.193  10.288 -0.0747  0.8530 -1.4169
 7551TIP3   OH246847   1.174   0.768   7.978  0.0915 -0.2906  0.3246
 7551TIP3    H146848   1.087   0.795   8.006  0.4099  0.7972  0.2973
 7551TIP3    H246849   1.158   0.704   7.909 -0.6851 -0.3164  0.5183
 7552TIP3   OH246850   2.413   4.635   9.273  0.5716 -0.0455  0.0635
 7552TIP3    H146851   2.496   4.600   9.306  0.0970 -1.1859  0.0986
 7552TIP3    H246852   2.407   4.602   9.184  0.7945  1.1772 -0.4132
 7553TIP3   OH246853   2.280   3.697  10.849 -0.2124  0.1798 -0.0705
 7553TIP3    H146854   2.346   3.675  10.915  0.1422 -3.3286 -1.3476
 7553TIP3    H246855   2.331   3.720  10.771 -0.5170 -0.0736 -0.3506
 7554TIP3   OH246856   0.038   1.928  10.241 -0.0240 -0.1417  0.1139
 7554TIP3    H146857   0.083   2.009  10.218 -0.9706  0.2197 -0.5261
 7554TIP3    H246858   0.082   1.860  10.191 -0.9945  0.3932 -1.5490
 7555TIP3   OH246859   2.573   6.115   8.167  0.0663  0.4698  0.1814
 7555TIP3    H146860   2.493   6.125   8.219  0.2463  1.7085  0.2356
 7555TIP3    H246861   2.590   6.201   8.131  1.8308  0.4435  0.8288
 7556TIP3   OH246862   4.540   0.061   9.820  0.8027 -0.2991  0.3148
 7556TIP3    H146863   4.561  -0.032   9.813 -0.7585 -0.7001  0.5590
 7556TIP3    H246864   4.473   0.076   9.753  0.7461  0.5591  0.5459
 7557TIP3   OH246865   6.563   1.721  10.266  0.1956 -0.2729  0.0655
 7557TIP3    H146866   6.632   1.767  10.313  0.9311 -0.3100 -0.9571
 7557TIP3    H246867   6.485   1.733  10.320  1.0843 -0.6129  1.4699
 7558TIP3   OH246868   3.264   4.641   8.707 -0.3577 -0.1480  0.5659
 7558TIP3    H146869   3.350   4.609   8.680 -1.0037 -1.1629 -0.3644
 7558TIP3    H246870   3.241   4.588   8.783  0.1106  0.5905  1.2434
 7559TIP3   OH246871   2.177   5.260   8.120 -0.1049 -0.0486 -0.5363
 7559TIP3    H146872   2.083   5.276   8.114  0.0953  1.3302 -0.3979
 7559TIP3    H246873   2.187   5.202   8.195 -0.7367  0.9981  0.3924
 7560TIP3   OH246874   4.606   1.680   9.742  0.3049  0.4584  0.1886
 7560TIP3    H146875   4.533   1.619   9.750 -0.5882  1.4611 -0.1176
 7560TIP3    H246876   4.658   1.666   9.821 -1.0532  0.7927  1.1710
 7561TIP3   OH246877   2.707   1.116   9.487  0.5247  0.1741  0.6754
 7561TIP3    H146878   2.665   1.202   9.481 -0.3499 -0.3515 -1.5646
 7561TIP3    H246879   2.689   1.087   9.577 -4.6982 -0.3265 -0.2064
 7562TIP3   OH246880   3.618   6.685   8.371 -0.6477 -0.5607 -1.0147
 7562TIP3    H146881   3.523   6.682   8.377 -0.9160  3.8123  2.4900
 7562TIP3    H246882   3.637   6.770   8.332  1.6705  0.1860  1.4550
 7563TIP3   OH246883   0.859   6.432  10.806 -0.4298  0.5253  0.0934
 7563TIP3    H146884   0.819   6.485  10.875 -0.0250 -0.0752  0.8082
 7563TIP3    H246885   0.934   6.391  10.848 -1.4821 -1.6765 -0.0585
 7564TIP3   OH246886   5.087   3.261  10.324 -0.5323 -0.7948 -0.0312
 7564TIP3    H146887   5.134   3.344  10.314 -1.0951 -0.3400  0.9112
 7564TIP3    H246888   5.012   3.269  10.266 -0.4816 -0.7220 -0.0873
 7565TIP3   OH246889   1.227   2.035   8.751 -0.0368 -0.1947 -0.3225
 7565TIP3    H146890   1.206   2.127   8.767  0.2008 -0.2230  0.1598
 7565TIP3    H246891   1.321   2.028   8.764 -0.1950 -0.7017  0.6503
 7566TIP3   OH246892   3.197   6.022  10.153 -0.5938  0.3061  0.5778
 7566TIP3    H146893   3.187   6.044  10.060  0.3362  1.1412  0.6601
 7566TIP3    H246894   3.289   6.039  10.172 -0.7011 -0.1742  1.5793
 7567TIP3   OH246895   0.420   3.649  10.553 -0.0957 -0.1083 -0.4675
 7567TIP3    H146896   0.474   3.589  10.604 -0.0852  0.6852  0.4871
 7567TIP3    H246897   0.398   3.719  10.614 -0.0060  0.9282 -1.5868
 7568TIP3   OH246898   3.265   5.475  10.558  0.2317  0.0068 -0.7189
 7568TIP3    H146899   3.329   5.440  10.496  0.8070 -1.2558  0.5457
 7568TIP3    H246900   3.184   5.427  10.538  0.8758 -1.7503  0.6401
 7569TIP3   OH246901   2.023   3.323   8.376 -0.9090  0.4401  0.5436
 7569TIP3    H146902   1.949   3.269   8.350 -1.0753  1.3714 -1.0941
 7569TIP3    H246903   2.040   3.300   8.467 -1.7534 -1.4237  0.2602
 7570TIP3   OH246904   6.537   0.114   9.059 -0.2241 -0.1577  0.0931
 7570TIP3    H146905   6.503   0.093   9.146 -1.5015 -0.3147 -0.4284
 7570TIP3    H246906   6.472   0.079   8.998  0.1677  0.7805 -0.9064
 7571TIP3   OH246907   1.353   1.792  10.112 -0.0581 -0.0469  0.1285
 7571TIP3    H146908   1.287   1.853  10.079 -0.1378 -0.3827 -0.3438
 7571TIP3    H246909   1.405   1.769  10.035 -0.1267 -0.6954  0.2738
 7572TIP3   OH246910   5.301   0.747  11.145  0.0027  0.0652  0.8759
 7572TIP3    H146911   5.389   0.778  11.165  0.3402 -0.1573 -0.1948
 7572TIP3    H246912   5.312   0.654  11.126 -0.4674  0.0268  0.7823
 7573TIP3   OH246913   4.666   3.161  10.655 -0.0013 -0.1505  0.3170
 7573TIP3    H146914   4.640   3.098  10.588  1.2137 -1.0990  0.7094
 7573TIP3    H246915   4.735   3.213  10.613 -1.6220  1.5994 -0.3302
 7574TIP3   OH246916   1.402   2.880   8.334  0.0042 -0.1743 -0.2339
 7574TIP3    H146917   1.464   2.953   8.343 -0.6932  0.5323 -0.9752
 7574TIP3    H246918   1.412   2.851   8.243  0.2000 -0.9452  0.0259
 7575TIP3   OH246919   4.153   0.974   8.625 -0.0325  0.0728 -0.3320
 7575TIP3    H146920   4.062   0.955   8.603  0.4856  1.0803 -4.1919
 7575TIP3    H246921   4.155   1.069   8.635  0.4821 -0.0258  0.5686
 7576TIP3   OH246922   0.366   0.885  11.876  0.1598 -0.2719 -0.4419
 7576TIP3    H146923   0.398   0.846  11.795  0.6048  0.8123 -0.8059
 7576TIP3    H246924   0.427   0.956  11.895 -0.9146  0.5967 -0.0953
 7577TIP3   OH246925   5.052   4.912   9.991  0.3329  1.3347  0.3355
 7577TIP3    H146926   5.139   4.878  10.012  0.4507 -1.0929 -3.2995
 7577TIP3    H246927   5.068   4.987   9.933  0.0157  1.0806 -0.0876
 7578TIP3   OH246928   3.834   6.750   9.367  0.6655 -0.2113 -0.4674
 7578TIP3    H146929   3.802   6.716   9.450 -0.9798  1.5704 -0.3139
 7578TIP3    H246930   3.912   6.697   9.348 -0.7105 -2.8166  0.5985
 7579TIP3   OH246931   5.810   6.296   9.413  0.2887 -0.3717  0.5071
 7579TIP3    H146932   5.835   6.370   9.468 -2.6599  0.6715  0.5793
 7579TIP3    H246933   5.814   6.330   9.324 -0.1367 -0.4344  0.4654
 7580TIP3   OH246934   3.822   2.182  10.519  0.0182 -0.4757 -0.1071
 7580TIP3    H146935   3.900   2.234  10.537  0.1812 -1.0966  1.1234
 7580TIP3    H246936   3.847   2.125  10.446 -0.1673  1.1321 -1.4679
 7581TIP3   OH246937   2.466   3.637  11.049 -0.1132  0.3752 -0.0083
 7581TIP3    H146938   2.505   3.658  11.134 -0.7133 -1.8167  0.8667
 7581TIP3    H246939   2.541   3.623  10.991  0.3060  1.2549  0.3031
 7582TIP3   OH246940   4.770   6.181   8.598 -0.0465  0.1931  0.1610
 7582TIP3    H146941   4.817   6.264   8.609  0.0224  0.2659 -0.6136
 7582TIP3    H246942   4.689   6.206   8.553  0.0018 -0.1605 -0.1266
 7583TIP3   OH246943   5.864   6.733   8.332 -0.3169 -0.1747  0.0100
 7583TIP3    H146944   5.909   6.697   8.255  1.4044 -0.0276  0.9016
 7583TIP3    H246945   5.879   6.827   8.326  0.3677 -0.2189  0.8225
 7584TIP3   OH246946   2.507   5.326   8.707  1.0004 -0.1764 -0.6284
 7584TIP3    H146947   2.535   5.236   8.718  0.3418 -0.1923  1.3287
 7584TIP3    H246948   2.554   5.375   8.774 -0.7223  0.4096  0.2350
 7585TIP3   OH246949   2.089   3.045   8.167  0.5127  0.3558  0.2633
 7585TIP3    H146950   2.054   2.959   8.144  0.9751 -0.3600  2.0721
 7585TIP3    H246951   2.035   3.107   8.117 -1.6148 -0.8296  0.9524
 7586TIP3   OH246952   3.033   4.601  10.206  0.0967 -0.1253  0.5077
 7586TIP3    H146953   3.091   4.634  10.137 -0.6079 -0.4940 -0.2709
 7586TIP3    H246954   3.037   4.669  10.273  1.0312  0.1002  0.2521
 7587TIP3   OH246955   2.857   5.137   8.687  0.5934 -0.1512  0.1373
 7587TIP3    H146956   2.891   5.225   8.700  0.5335 -0.1670  0.4242
 7587TIP3    H246957   2.765   5.143   8.714  0.3606 -0.1060 -0.6349
 7588TIP3   OH246958   3.117   2.813   9.499 -0.9098 -0.1864  0.3199
 7588TIP3    H146959   3.108   2.864   9.580  2.6170  0.1372  0.6305
 7588TIP3    H246960   3.140   2.725   9.529  0.1287 -0.1366 -0.2886
 7589TIP3   OH246961   3.529   4.773   8.532  0.5499  0.6652  0.0693
 7589TIP3    H146962   3.481   4.711   8.477 -0.1533 -0.3662  1.7699
 7589TIP3    H246963   3.481   4.855   8.524  0.5935  0.5892 -1.0183
 7590TIP3   OH246964   0.313   0.735   9.541  0.1928 -0.2688  0.2723
 7590TIP3    H146965   0.304   0.659   9.598 -0.4911 -0.6469 -0.3281
 7590TIP3    H246966   0.354   0.802   9.596  2.2392 -1.5508  0.3755
 7591TIP3   OH246967   0.554   0.563  10.055  0.0897 -0.3427  0.3142
 7591TIP3    H146968   0.563   0.635  10.117  0.3913  1.5150 -1.7896
 7591TIP3    H246969   0.461   0.563  10.031  0.0412 -0.8326  0.4847
 7592TIP3   OH246970   1.165   4.616   9.649  0.3501  0.3653 -0.4950
 7592TIP3    H146971   1.188   4.523   9.657 -2.6495 -0.4248  0.7418
 7592TIP3    H246972   1.208   4.645   9.569  0.7402 -2.3317 -1.3793
 7593TIP3   OH246973   1.421   2.494   8.696 -0.3746 -0.3088  0.2586
 7593TIP3    H146974   1.461   2.572   8.734  0.1467  0.5018 -1.8236
 7593TIP3    H246975   1.326   2.511   8.699 -0.2549  0.5527 -0.4095
 7594TIP3   OH246976   4.670   0.238   9.623 -0.0457  0.0209 -0.0699
 7594TIP3    H146977   4.656   0.165   9.683  0.4024 -1.6040 -1.8442
 7594TIP3    H246978   4.588   0.287   9.626 -0.3993 -0.5910  1.0855
 7595TIP3   OH246979   4.890   2.215  11.443  0.3955  0.2196  0.1031
 7595TIP3    H146980   4.942   2.161  11.383  2.0783  0.9576  0.8308
 7595TIP3    H246981   4.891   2.168  11.526 -1.7102 -0.6692 -0.3230
 7596TIP3   OH246982   3.335   3.377   9.434 -0.3874  0.6616  0.3885
 7596TIP3    H146983   3.321   3.295   9.481  1.3470  1.2321  2.0439
 7596TIP3    H246984   3.422   3.367   9.394 -0.7613  1.1699 -0.5813
 7597TIP3   OH246985   5.344   2.620  10.765 -0.8533  0.1323  0.0773
 7597TIP3    H146986   5.283   2.554  10.732 -0.6893  0.5003 -0.9916
 7597TIP3    H246987   5.412   2.626  10.698  0.4970 -0.4232  1.3359
 7598TIP3   OH246988   0.162   3.870   9.961  0.3019  0.0228 -0.3775
 7598TIP3    H146989   0.078   3.827   9.971 -0.6920  1.9957  0.3258
 7598TIP3    H246990   0.222   3.801   9.933 -0.9144 -2.0357  1.7858
 7599TIP3   OH246991   3.912   6.714  10.164 -0.1116  0.8312 -0.0706
 7599TIP3    H146992   3.998   6.711  10.123 -0.6241 -2.1876 -1.1804
 7599TIP3    H246993   3.917   6.650  10.236 -1.2011  1.1691  0.3345
 7600TIP3   OH246994   4.300   4.104  10.157 -0.2346  0.0013  0.0526
 7600TIP3    H146995   4.209   4.129  10.143 -1.0593 -1.6377  2.0373
 7600TIP3    H246996   4.327   4.063  10.075 -0.8285  1.6373 -1.0067
 7601TIP3   OH246997   6.450   4.790  10.242  0.3626 -0.6842  0.0406
 7601TIP3    H146998   6.475   4.756  10.328 -0.3025 -0.8145  0.1830
 7601TIP3    H246999   6.357   4.770  10.233  0.3703 -0.4728 -0.6182
 7602TIP3   OH247000   6.584   3.075  11.428 -0.1396 -0.1258 -0.6008
 7602TIP3    H147001   6.526   3.016  11.381 -0.3878 -0.8660  0.5943
 7602TIP3    H247002   6.624   3.021  11.496 -0.4754  1.0944  0.6220
 7603TIP3   OH247003   4.403   1.873  10.223 -0.1916  0.1060  1.0796
 7603TIP3    H147004   4.473   1.939  10.226  0.8324 -0.9591  1.3312
 7603TIP3    H247005   4.338   1.905  10.286 -0.0492  1.2233  0.6902
 7604TIP3   OH247006   2.926   5.051  10.248 -0.0349  0.5595 -0.2421
 7604TIP3    H147007   2.927   4.960  10.219  0.5506  0.7504 -0.8619
 7604TIP3    H247008   2.985   5.096  10.187 -1.2694  1.5812 -0.7295
 7605TIP3   OH247009   1.141   1.428  10.259 -0.2612 -0.1657  0.0935
 7605TIP3    H147010   1.191   1.472  10.328  1.7684  1.1278 -2.0793
 7605TIP3    H247011   1.078   1.373  10.307  1.7637 -0.2034  2.9666
 7606TIP3   OH247012   4.468   3.948  10.655  0.4041  0.0190 -0.0327
 7606TIP3    H147013   4.373   3.942  10.670  0.5435 -0.2077  0.7825
 7606TIP3    H247014   4.475   3.993  10.570 -0.4121  1.4020  0.5935
 7607TIP3   OH247015   3.454   4.969   9.799  0.9932  0.5750 -0.3397
 7607TIP3    H147016   3.423   5.052   9.763 -0.0456  0.0739 -0.6318
 7607TIP3    H247017   3.549   4.977   9.797  0.9574  2.4164  1.1711
 7608TIP3   OH247018   5.069   4.176  10.047 -0.3929  0.1431  0.0863
 7608TIP3    H147019   5.027   4.216  10.123 -0.0233 -1.1965  1.0530
 7608TIP3    H247020   4.996   4.150   9.990 -0.6296  2.2886 -0.6767
 7609TIP3   OH247021   3.506   2.375   9.542  0.4402 -0.2281  0.2850
 7609TIP3    H147022   3.507   2.467   9.568  0.0614 -0.3593  0.7808
 7609TIP3    H247023   3.578   2.367   9.479  1.2542  0.1471  1.1503
 7610TIP3   OH247024   1.772   2.527  11.308 -0.1218 -0.3641 -0.6208
 7610TIP3    H147025   1.823   2.597  11.267  0.5654 -0.5893 -0.1681
 7610TIP3    H247026   1.683   2.561  11.313  0.3140  0.7006  0.1136
 7611TIP3   OH247027   4.445   0.328  10.375  0.7403 -0.0738  0.0227
 7611TIP3    H147028   4.433   0.339  10.470 -2.7843 -0.8233 -0.1974
 7611TIP3    H247029   4.399   0.402  10.336  3.4706  1.1343 -1.2370
 7612TIP3   OH247030   6.681   5.597   9.840 -0.2762 -0.6339  0.2453
 7612TIP3    H147031   6.653   5.668   9.781  0.2878 -0.2832  0.3869
 7612TIP3    H247032   6.751   5.553   9.792 -1.9165 -2.3821 -0.7039
 7613TIP3   OH247033   0.642   3.653   9.958 -0.0696 -0.0226 -0.2485
 7613TIP3    H147034   0.702   3.615   9.894  0.9837  0.1697  0.5805
 7613TIP3    H247035   0.673   3.743   9.969  0.8362 -0.5110  1.7124
 7614TIP3   OH247036   4.475   2.540  10.655  0.0988 -0.1666  0.4168
 7614TIP3    H147037   4.524   2.461  10.678  0.2310 -0.3218 -0.3694
 7614TIP3    H247038   4.425   2.561  10.734 -0.4499 -1.4262  0.4333
 7615TIP3   OH247039   3.671   0.210   8.570 -0.2854 -0.3890  0.2395
 7615TIP3    H147040   3.641   0.300   8.566 -2.4465 -1.0858 -1.6070
 7615TIP3    H247041   3.598   0.163   8.612  1.6337 -1.0633  3.1164
 7616TIP3   OH247042   4.957   6.750   9.117 -0.1549  0.0486 -0.3623
 7616TIP3    H147043   5.048   6.741   9.145 -0.3349 -0.8878 -0.0440
 7616TIP3    H247044   4.959   6.818   9.049  0.9813 -0.9007 -1.3067
 7617TIP3   OH247045   0.335   3.885  10.169 -0.5480 -0.7573  0.1571
 7617TIP3    H147046   0.363   3.797  10.146 -0.4462 -0.6370 -0.1903
 7617TIP3    H247047   0.277   3.911  10.097  3.3410  1.4012 -2.6037
 7618TIP3   OH247048   3.403   5.705  11.280  0.3813  0.7006 -0.2025
 7618TIP3    H147049   3.411   5.721  11.374 -0.7674 -1.7809  0.4162
 7618TIP3    H247050   3.317   5.739  11.257 -0.5254 -1.1495  0.3088
 7619TIP3   OH247051   5.162   6.268   8.695  0.4153 -0.1018 -0.4022
 7619TIP3    H147052   5.101   6.195   8.695  1.3544 -0.9223 -1.1097
 7619TIP3    H247053   5.195   6.272   8.605  3.0802 -1.1842  0.4204
 7620TIP3   OH247054   6.226   0.630  11.098  0.1467  0.2143  0.0681
 7620TIP3    H147055   6.212   0.696  11.166  2.2123 -0.1423  0.9216
 7620TIP3    H247056   6.295   0.668  11.043 -0.3744 -0.2040 -0.9018
 7621TIP3   OH247057   5.835   3.623  10.468  0.0344 -0.0227 -0.5581
 7621TIP3    H147058   5.883   3.541  10.460  0.8058  0.2374  0.9999
 7621TIP3    H247059   5.757   3.611  10.414 -0.6460 -2.3729  0.8136
 7622TIP3   OH247060   6.671   4.066  10.898  0.2341  0.1003  0.1273
 7622TIP3    H147061   6.613   4.072  10.973 -0.8118 -0.3627 -0.6104
 7622TIP3    H247062   6.724   4.145  10.901 -1.5298  1.3424 -0.0447
 7623TIP3   OH247063   6.489   6.505  10.574  0.5770 -0.0696 -0.5133
 7623TIP3    H147064   6.549   6.468  10.508  2.5426  1.2822  0.4126
 7623TIP3    H247065   6.541   6.507  10.654 -0.6070  1.5269  0.2552
 7624TIP3   OH247066   3.528   6.140   9.868 -0.1720 -0.1498 -0.0499
 7624TIP3    H147067   3.616   6.157   9.900  0.3763 -1.2061 -0.9385
 7624TIP3    H247068   3.521   6.190   9.787 -0.8739  0.9728  0.6759
 7625TIP3   OH247069   5.466   1.895  10.423 -0.0107 -0.4644  0.8476
 7625TIP3    H147070   5.417   1.966  10.382  0.7285  0.3059  1.2753
 7625TIP3    H247071   5.493   1.839  10.351 -0.1057  0.0023  0.4452
 7626TIP3   OH247072   6.556   4.305   9.746  0.3796 -0.1010 -0.4331
 7626TIP3    H147073   6.564   4.256   9.663 -2.7941  0.1296 -0.9843
 7626TIP3    H247074   6.539   4.395   9.719 -1.3722 -0.1480  0.4244
 7627TIP3   OH247075   6.140   0.849   9.359  0.1456  0.2233  0.4732
 7627TIP3    H147076   6.230   0.879   9.346 -0.0723  2.0619  2.7007
 7627TIP3    H247077   6.085   0.924   9.337 -0.7058 -0.0958  1.4259
 7628TIP3   OH247078   0.821   4.224  10.102 -0.8882 -0.0138 -0.0549
 7628TIP3    H147079   0.849   4.297  10.046  0.5529  0.4800  1.2430
 7628TIP3    H247080   0.726   4.235  10.110 -0.8009  1.2395 -0.5400
 7629TIP3   OH247081   0.618   6.691   9.870  0.0949  0.2765  0.5863
 7629TIP3    H147082   0.682   6.621   9.879 -0.5707 -0.3210  0.8450
 7629TIP3    H247083   0.543   6.649   9.828 -0.5971  0.6377  1.4189
 7630TIP3   OH247084   3.308   5.813   8.922 -0.2376  0.1125  0.5503
 7630TIP3    H147085   3.350   5.739   8.965 -1.2262 -0.0590  1.2562
 7630TIP3    H247086   3.307   5.790   8.829 -0.7192 -0.8519  0.7867
 7631TIP3   OH247087   6.320   2.002  10.944 -0.0056 -0.4128 -0.0103
 7631TIP3    H147088   6.282   1.918  10.968 -0.2947  0.1807  1.7544
 7631TIP3    H247089   6.335   1.996  10.849 -1.0013 -2.0324 -0.0955
 7632TIP3   OH247090   4.131   1.917   9.001 -0.3305 -0.2552  0.2512
 7632TIP3    H147091   4.092   2.003   9.013  1.1636  0.3428  1.0584
 7632TIP3    H247092   4.066   1.868   8.950 -0.3054  1.9854 -2.1225
 7633TIP3   OH247093   5.679   5.782   9.832  0.6372 -0.1725  0.4056
 7633TIP3    H147094   5.690   5.706   9.776  1.8368  0.1637  0.1485
 7633TIP3    H247095   5.765   5.795   9.873  0.0922  0.2511  1.4724
 7634TIP3   OH247096   5.565   1.267  10.042  0.1807 -0.2825 -0.2653
 7634TIP3    H147097   5.546   1.231   9.956 -0.4511  0.7102 -0.5642
 7634TIP3    H247098   5.661   1.267  10.049  0.2015 -1.2420 -0.5742
 7635TIP3   OH247099   0.902   0.798   8.045  0.2808 -0.6944  0.4505
 7635TIP3    H147100   0.904   0.893   8.035 -0.8082 -0.7258 -0.1571
 7635TIP3    H247101   0.810   0.774   8.033  0.6282 -1.8849  0.0338
 7636TIP3   OH247102   5.858   6.022  10.185  0.1890  0.2648  0.2749
 7636TIP3    H147103   5.885   5.948  10.240  0.5296 -0.9318 -1.4247
 7636TIP3    H247104   5.776   6.051  10.223 -0.5517 -1.7498  0.3441
 7637TIP3   OH247105   4.159   2.054  10.329 -0.2162 -0.4674  0.0713
 7637TIP3    H147106   4.168   2.136  10.281 -0.9960  0.5894  1.6327
 7637TIP3    H247107   4.093   2.005  10.281 -2.3620  1.3396  0.9473
 7638TIP3   OH247108   6.373   0.442  11.594  0.4108  0.4593 -0.2991
 7638TIP3    H147109   6.320   0.518  11.570  0.1117 -0.1704 -1.7440
 7638TIP3    H247110   6.438   0.436  11.525 -0.2220 -1.1915 -0.8042
 7639TIP3   OH247111   3.091   0.583   8.145 -0.2920 -0.2632  0.1502
 7639TIP3    H147112   3.044   0.536   8.075 -1.6691  0.7304  0.3647
 7639TIP3    H247113   3.184   0.571   8.124 -0.6301 -1.9457 -0.5283
 7640TIP3   OH247114   0.280   6.673  10.096  0.0770  1.0977  0.2054
 7640TIP3    H147115   0.254   6.697  10.007 -0.9288 -1.2577 -0.2222
 7640TIP3    H247116   0.210   6.615  10.126  1.9776 -0.8133  1.2667
 7641TIP3   OH247117   3.294   2.422  10.191  0.3181  0.0119  0.5766
 7641TIP3    H147118   3.281   2.371  10.271  1.3829  1.2459  1.5624
 7641TIP3    H247119   3.205   2.447  10.165 -0.1725 -1.7009  0.4677
 7642TIP3   OH247120   2.434   6.601  10.252 -0.1293 -0.4509  0.0311
 7642TIP3    H147121   2.466   6.557  10.330 -0.9730  1.9502  1.8550
 7642TIP3    H247122   2.512   6.619  10.200  0.4256 -2.1769  0.1926
 7643TIP3   OH247123   5.865   4.496  10.461 -0.0531  0.6560 -0.7718
 7643TIP3    H147124   5.933   4.549  10.503 -0.7566  0.5207  0.6028
 7643TIP3    H247125   5.818   4.456  10.534  1.0284 -2.6671 -1.6959
 7644TIP3   OH247126   3.592   6.237   9.619 -0.1936 -0.0599 -0.3008
 7644TIP3    H147127   3.542   6.304   9.572 -0.3639  0.8369  1.1090
 7644TIP3    H247128   3.675   6.279   9.640  0.4985 -0.9781 -1.1499
 7645TIP3   OH247129   2.881   4.442   9.914  0.0046  0.7284 -0.1497
 7645TIP3    H147130   2.819   4.373   9.893  1.4340 -0.8010  0.4144
 7645TIP3    H247131   2.876   4.451  10.009  0.4421  0.7816 -0.1275
 7646TIP3   OH247132   3.331   0.941   8.098  0.9927 -0.6888  0.0215
 7646TIP3    H147133   3.405   0.993   8.067  0.8974 -1.3989 -1.4785
 7646TIP3    H247134   3.367   0.854   8.114  0.9172 -0.4854  1.4330
 7647TIP3   OH247135   4.632   6.712  10.236  0.1381 -0.5172 -0.1569
 7647TIP3    H147136   4.647   6.742  10.146 -0.1817 -1.8742 -0.6854
 7647TIP3    H247137   4.614   6.793  10.285  0.5871  0.2754 -1.2427
 7648TIP3   OH247138   0.182   1.955   9.858 -0.1972  0.2208 -0.4871
 7648TIP3    H147139   0.107   1.896   9.866 -1.2518  1.7091  1.5386
 7648TIP3    H247140   0.154   2.020   9.793 -0.1183  0.0162 -0.7266
 7649TIP3   OH247141   4.181   3.193  11.766 -0.0344 -0.0925 -0.1516
 7649TIP3    H147142   4.091   3.185  11.797 -0.6847  0.1704 -1.8792
 7649TIP3    H247143   4.189   3.284  11.738 -0.0064 -0.6652 -2.1833
 7650TIP3   OH247144   3.855   1.100   9.751 -0.1116  0.4501 -0.3756
 7650TIP3    H147145   3.894   1.160   9.814  4.1925 -2.0392 -0.2498
 7650TIP3    H247146   3.925   1.083   9.688 -2.0912 -2.0838 -2.0860
 7651TIP3   OH247147   5.601   3.501  10.373 -0.0034 -0.2452  0.2602
 7651TIP3    H147148   5.612   3.537  10.285 -0.1790  1.2753  0.8295
 7651TIP3    H247149   5.534   3.555  10.413  0.9644 -0.0999  1.7498
 7652TIP3   OH247150   3.227   2.990   8.663  0.0091  0.4726  0.4290
 7652TIP3    H147151   3.219   2.942   8.745 -1.3996  1.5301  0.9468
 7652TIP3    H247152   3.137   3.004   8.634  0.4779  0.3870 -1.1562
 7653TIP3   OH247153   1.887   6.477   9.205 -0.3403 -0.8113  0.5773
 7653TIP3    H147154   1.954   6.415   9.175 -0.1299 -0.7434  0.9008
 7653TIP3    H247155   1.933   6.532   9.268 -0.1344  0.5815 -0.7218
 7654TIP3   OH247156   0.628   2.479   9.534 -0.1129 -0.2455 -0.2171
 7654TIP3    H147157   0.607   2.393   9.569 -0.8554  0.0920  0.1948
 7654TIP3    H247158   0.543   2.520   9.516 -0.0037  1.7977  3.0678
 7655TIP3   OH247159   2.130   3.111   9.220  0.0114  0.1443 -0.8299
 7655TIP3    H147160   2.168   3.166   9.288 -0.4742  0.1434 -0.5591
 7655TIP3    H247161   2.206   3.066   9.181  0.6872  2.4686 -2.4100
 7656TIP3   OH247162   2.596   4.575   9.869 -0.2060  0.5772 -0.8410
 7656TIP3    H147163   2.661   4.561   9.800  0.9722  0.8808  0.1532
 7656TIP3    H247164   2.595   4.670   9.882  0.0305  0.4819 -0.0511
 7657TIP3   OH247165   0.561   0.116  10.406  0.1112  0.1463  0.1344
 7657TIP3    H147166   0.641   0.067  10.389 -1.0133 -2.1213  1.0169
 7657TIP3    H247167   0.543   0.162  10.324  1.8946  0.1499 -0.3017
 7658TIP3   OH247168   4.239   2.965   9.754  0.2599 -0.1043 -0.2692
 7658TIP3    H147169   4.186   3.018   9.814 -2.5231 -2.8446 -0.0433
 7658TIP3    H247170   4.297   2.914   9.811  1.5863  1.2044 -0.3759
 7659TIP3   OH247171   4.597   4.748   9.220 -0.0803  0.2487 -0.6617
 7659TIP3    H147172   4.584   4.658   9.250  2.0519  0.3194  0.7523
 7659TIP3    H247173   4.565   4.748   9.130  2.6194 -2.8321 -1.8508
 7660TIP3   OH247174   4.981   4.668  11.343  0.1595 -0.0399 -0.2260
 7660TIP3    H147175   5.065   4.699  11.309  0.4175 -0.6167 -0.1218
 7660TIP3    H247176   4.918   4.734  11.315  0.8771  1.2297  1.0180
 7661TIP3   OH247177   2.171   2.104   8.423  0.2606  0.0063  0.8297
 7661TIP3    H147178   2.092   2.107   8.369 -1.1470  1.2192  2.7980
 7661TIP3    H247179   2.186   2.195   8.448  2.7938 -0.0792 -0.0926
 7662TIP3   OH247180   0.874   0.673   8.644  0.4984 -0.0947  0.5031
 7662TIP3    H147181   0.845   0.723   8.720  0.6961  0.0550  0.4810
 7662TIP3    H247182   0.870   0.581   8.672  2.3920  0.0514  1.3419
 7663TIP3   OH247183   5.495   3.116   8.698  0.4694 -0.0434 -0.0450
 7663TIP3    H147184   5.523   3.182   8.762 -2.2095 -0.0651  1.3083
 7663TIP3    H247185   5.507   3.033   8.743  1.3598 -0.3211 -0.7570
 7664TIP3   OH247186   1.630   2.036  10.114  0.0731  0.6095  0.1064
 7664TIP3    H147187   1.722   2.007  10.110 -0.6662 -2.1455  0.5622
 7664TIP3    H247188   1.595   2.019  10.027 -0.5153 -0.4999  0.5324
 7665TIP3   OH247189   1.038   2.655  10.882  0.0503 -0.4375  0.5917
 7665TIP3    H147190   0.958   2.639  10.932  0.4068  0.9757  1.6828
 7665TIP3    H247191   1.007   2.677  10.794 -0.6702 -1.3117  0.6088
 7666TIP3   OH247192   2.589   4.813  11.058  0.2294  0.3479  0.0954
 7666TIP3    H147193   2.658   4.866  11.019 -1.1514  2.4626  0.3521
 7666TIP3    H247194   2.550   4.870  11.125  0.3503 -1.9563  2.2765
 7667TIP3   OH247195   5.312   1.026   9.357  0.3070  0.1489 -0.0990
 7667TIP3    H147196   5.233   1.081   9.360  0.0003 -0.2746 -0.3551
 7667TIP3    H247197   5.311   0.979   9.440 -0.1631 -0.4680 -0.4390
 7668TIP3   OH247198   1.943   2.391   9.818 -0.2344  0.3863 -0.3039
 7668TIP3    H147199   1.897   2.458   9.869 -2.0893 -0.2307 -1.0942
 7668TIP3    H247200   1.955   2.430   9.731  0.4434  0.4013 -0.2125
 7669TIP3   OH247201   2.732   3.864   8.590  0.2769  0.0258 -0.2804
 7669TIP3    H147202   2.718   3.779   8.550 -1.0901  0.4815 -0.8197
 7669TIP3    H247203   2.807   3.851   8.648 -0.3890 -1.7340  0.2566
 7670TIP3   OH247204   4.071   1.958   8.591  0.0275 -0.5070  0.1339
 7670TIP3    H147205   4.105   1.876   8.554 -1.0042 -0.6940 -0.4504
 7670TIP3    H247206   4.019   1.930   8.666  0.7094 -0.2736  0.6946
 7671TIP3   OH247207   5.817   0.495   7.840 -0.2574 -0.7856 -0.6975
 7671TIP3    H147208   5.776   0.554   7.778 -0.8817 -1.0104 -0.5006
 7671TIP3    H247209   5.829   0.548   7.919 -1.3926 -1.0871 -0.3093
 7672TIP3   OH247210   4.713   2.420  11.393  0.5362 -0.1724 -0.0563
 7672TIP3    H147211   4.766   2.340  11.391  0.7540 -0.0216 -0.3940
 7672TIP3    H247212   4.749   2.470  11.466 -0.0616 -0.6929  0.6075
 7673TIP3   OH247213   6.303   3.479   9.016  1.1107  0.2503 -0.1281
 7673TIP3    H147214   6.343   3.489   9.103  1.5613  0.2511 -0.3305
 7673TIP3    H247215   6.329   3.392   8.987  0.7176  0.1370 -0.1415
 7674TIP3   OH247216   0.704   3.041   9.533 -0.1263  0.1385 -0.3557
 7674TIP3    H147217   0.705   2.948   9.510  0.7247  0.0440  0.0052
 7674TIP3    H247218   0.613   3.062   9.550 -0.1868 -0.9302  0.7279
 7675TIP3   OH247219   3.932   5.615   9.053  0.0124  0.1689  0.7007
 7675TIP3    H147220   3.949   5.709   9.065  0.4996 -0.0731  2.0879
 7675TIP3    H247221   3.972   5.573   9.129  0.9661 -1.3207 -0.5530
 7676TIP3   OH247222   2.230   5.835  10.059 -0.7110  0.3013  0.9869
 7676TIP3    H147223   2.253   5.743  10.071 -0.1906 -0.1741 -2.5336
 7676TIP3    H247224   2.314   5.881  10.063 -0.3712 -0.0057 -1.2215
 7677TIP3   OH247225   1.258   3.201   8.153 -0.2083 -0.4028  0.1402
 7677TIP3    H147226   1.328   3.158   8.104 -0.1378  0.2917 -0.3828
 7677TIP3    H247227   1.177   3.161   8.120 -0.2742  1.0757 -1.6475
 7678TIP3   OH247228   3.708   0.307  10.619 -0.8008  0.0785  0.1205
 7678TIP3    H147229   3.646   0.235  10.632 -0.7431  0.0677  0.3332
 7678TIP3    H247230   3.790   0.276  10.657 -0.3386 -0.3655 -1.1674
 7679TIP3   OH247231   2.313   5.363   8.944  0.0669 -0.0192 -0.0432
 7679TIP3    H147232   2.370   5.439   8.955 -0.6791  0.5982 -0.4128
 7679TIP3    H247233   2.345   5.320   8.864 -0.6610  0.9360 -0.8678
 7680TIP3   OH247234   2.128   2.683   9.991  0.1487 -0.0966  0.5621
 7680TIP3    H147235   2.151   2.607  10.045 -1.3516 -0.3998  0.8130
 7680TIP3    H247236   2.164   2.662   9.905 -0.1993 -1.0722  0.6409
 7681TIP3   OH247237   2.382   3.964  10.453  0.4163  0.2418  0.2812
 7681TIP3    H147238   2.458   4.011  10.420  0.6030  0.0807  0.4804
 7681TIP3    H247239   2.375   3.990  10.545 -0.2561  0.8892  0.0594
 7682TIP3   OH247240   3.282   0.676   9.801 -0.4958  0.4737 -0.6676
 7682TIP3    H147241   3.301   0.593   9.845  0.1982  0.6383 -0.6394
 7682TIP3    H247242   3.369   0.714   9.784 -0.8093  1.2120 -0.6421
 7683TIP3   OH247243   6.162   0.477   9.101 -0.3408 -0.0525 -0.3563
 7683TIP3    H147244   6.170   0.486   9.006  0.0776 -0.5109 -0.3682
 7683TIP3    H247245   6.252   0.479   9.133 -0.4941  0.5044  0.0767
 7684TIP3   OH247246   0.427   2.629   9.440  0.4545  0.3613 -0.6092
 7684TIP3    H147247   0.345   2.580   9.429 -0.0150  0.6055  1.4339
 7684TIP3    H247248   0.403   2.720   9.421  0.6162  0.2274 -1.4738
 7685TIP3   OH247249   0.811   0.997   9.364 -0.6259 -0.0460  0.9421
 7685TIP3    H147250   0.869   0.947   9.421 -1.8449 -1.6812  0.7976
 7685TIP3    H247251   0.842   0.977   9.275 -0.2672  0.5587  0.9245
 7686TIP3   OH247252   4.250   4.813   9.266  0.2114 -0.1996 -0.0524
 7686TIP3    H147253   4.171   4.791   9.217  0.7657 -1.2439 -0.5054
 7686TIP3    H247254   4.298   4.873   9.208 -1.0940  1.9923  1.0025
 7687TIP3   OH247255   0.426   1.357   7.603 -0.3781  0.3383  0.6421
 7687TIP3    H147256   0.506   1.308   7.584 -0.8283 -0.3906  0.5535
 7687TIP3    H247257   0.400   1.329   7.691  0.1697  1.5725  1.2144
 7688TIP3   OH247258   3.453   2.130   8.196  0.1622 -0.4158 -0.0359
 7688TIP3    H147259   3.439   2.041   8.229  0.7583 -0.3899  0.2980
 7688TIP3    H247260   3.548   2.141   8.196  0.2219 -0.5856 -2.2946
 7689TIP3   OH247261   5.448   5.305   9.399  0.5070 -0.0229 -0.6130
 7689TIP3    H147262   5.398   5.223   9.399  0.4441 -0.0308  1.3240
 7689TIP3    H247263   5.539   5.277   9.404  0.4329 -0.1020  3.0258
 7690TIP3   OH247264   5.411   6.454   8.061 -0.0342 -0.1526 -0.1712
 7690TIP3    H147265   5.386   6.546   8.074 -0.4362 -0.1878 -0.6522
 7690TIP3    H247266   5.432   6.448   7.968 -0.7762 -0.7204 -0.3181
 7691TIP3   OH247267   3.108   5.180   9.410 -0.0536  0.2565  0.3097
 7691TIP3    H147268   3.139   5.093   9.385  0.5658  0.0903  1.5922
 7691TIP3    H247269   3.141   5.193   9.499 -0.4925  1.6335  0.2975
 7692TIP3   OH247270   1.321   4.230  11.006 -0.1608  0.4442  0.2926
 7692TIP3    H147271   1.298   4.252  10.916 -1.3211  3.1781  1.1497
 7692TIP3    H247272   1.404   4.275  11.021 -0.7548  1.3201  1.0296
 7693TIP3   OH247273   2.492   6.036  18.759  0.0526 -0.3270 -0.4149
 7693TIP3    H147274   2.491   5.941  18.772  1.1989 -0.1824  1.0511
 7693TIP3    H247275   2.438   6.070  18.830  0.3225  0.1534 -0.4321
 7694TIP3   OH247276   0.195   6.308   9.930  0.1710 -0.1785  0.0111
 7694TIP3    H147277   0.112   6.260   9.925  0.4271 -0.6634  0.3143
 7694TIP3    H247278   0.226   6.293  10.019 -0.8591  2.4682  0.8987
 7695TIP3   OH247279   1.987   1.691   8.160  0.0183  0.2930 -0.1982
 7695TIP3    H147280   1.895   1.681   8.184 -0.4062  0.8150 -1.5193
 7695TIP3    H247281   2.022   1.601   8.160 -0.6924  0.0118 -0.4607
 7696TIP3   OH247282   3.143   0.703  10.138 -0.3192 -0.7012  0.3235
 7696TIP3    H147283   3.116   0.714  10.047  0.0381  0.5215  0.3376
 7696TIP3    H247284   3.200   0.626  10.137  3.6667  1.8894 -1.5061
 7697TIP3   OH247285   6.401   3.027   9.671 -0.1729 -0.2701  0.0593
 7697TIP3    H147286   6.307   3.046   9.679 -0.7603 -0.9278 -3.5661
 7697TIP3    H247287   6.432   3.089   9.605  2.3065  0.6996  1.9789
 7698TIP3   OH247288   5.145   6.357  10.560  0.2162 -0.2821  0.1091
 7698TIP3    H147289   5.073   6.324  10.613  1.4634 -1.0608  1.4073
 7698TIP3    H247290   5.113   6.355  10.470 -1.2067 -1.0153  0.6100
 7699TIP3   OH247291   3.390   0.685   8.167  0.0673 -0.0027 -0.0941
 7699TIP3    H147292   3.385   0.652   8.257 -2.8663 -0.1792 -0.2284
 7699TIP3    H247293   3.480   0.668   8.140  1.1828  0.5824  2.9758
 7700TIP3   OH247294   3.620   2.268   9.290  0.0027  0.0896 -0.0538
 7700TIP3    H147295   3.636   2.311   9.206 -0.9021  2.7535  1.0343
 7700TIP3    H247296   3.537   2.222   9.277  0.4576 -0.5270 -0.9308
 7701TIP3   OH247297   1.052   5.977  10.824  0.7342  0.4635  0.0574
 7701TIP3    H147298   1.119   5.924  10.783  0.9629  0.2482  0.6949
 7701TIP3    H247299   1.092   6.064  10.834  1.1125  0.2016  0.9028
 7702TIP3   OH247300   4.299   1.981   8.213  0.3765 -0.2761 -0.2399
 7702TIP3    H147301   4.296   2.043   8.286  0.4403  0.2581 -0.6788
 7702TIP3    H247302   4.242   1.909   8.239  0.5854 -0.2013  0.4345
 7703TIP3   OH247303   2.291   2.890   8.228 -0.1598 -0.2119  0.4968
 7703TIP3    H147304   2.209   2.933   8.200 -0.7529 -0.0900  2.2827
 7703TIP3    H247305   2.306   2.924   8.316  0.8771 -1.5702  0.8699
 7704TIP3   OH247306   1.021   2.799  11.497  0.1952 -0.5553  0.5398
 7704TIP3    H147307   0.976   2.735  11.442 -1.6677  0.2094  1.0767
 7704TIP3    H247308   1.080   2.846  11.437  2.2957 -3.2716  0.3035
 7705TIP3   OH247309   3.368   1.720   8.611  0.6427  0.4547  0.1153
 7705TIP3    H147310   3.398   1.693   8.525  0.2629 -1.9636  0.6650
 7705TIP3    H247311   3.438   1.692   8.671 -0.7868 -1.5830  0.9587
 7706TIP3   OH247312   1.652   2.023   9.619 -0.0368 -0.1726 -0.2630
 7706TIP3    H147313   1.665   2.106   9.666 -1.1265 -0.0307 -0.1752
 7706TIP3    H247314   1.649   2.048   9.527 -0.4176 -0.1007 -0.2330
 7707TIP3   OH247315   5.308   5.505   9.287 -0.1114 -0.1116 -0.5664
 7707TIP3    H147316   5.365   5.444   9.334  0.5184 -0.3920 -1.6563
 7707TIP3    H247317   5.240   5.529   9.351  1.0479  0.0064  0.6768
 7708TIP3   OH247318   2.433   4.055   9.141 -0.3280  0.1827 -0.0816
 7708TIP3    H147319   2.513   4.107   9.144 -0.9525  1.1221  1.5563
 7708TIP3    H247320   2.457   3.976   9.093  0.7855  1.7088 -2.2012
 7709TIP3   OH247321   1.924   0.479  10.554 -0.0458 -0.3364  1.0611
 7709TIP3    H147322   1.879   0.552  10.511 -1.4417 -0.5901  2.0336
 7709TIP3    H247323   2.002   0.465  10.500 -2.5629 -1.8881 -2.6001
 7710TIP3   OH247324   5.535   5.980   9.948  0.4688  0.4243 -0.5309
 7710TIP3    H147325   5.444   5.954   9.935  0.5821 -1.5619  1.9195
 7710TIP3    H247326   5.586   5.905   9.918  1.0939 -0.0064  1.5001
 7711TIP3   OH247327   1.699   1.261  10.727  0.7351  0.8728 -0.3043
 7711TIP3    H147328   1.747   1.338  10.696  0.7092  0.5918 -1.0782
 7711TIP3    H247329   1.683   1.210  10.647  0.1765  0.3916  0.1096
 7712TIP3   OH247330   2.981   4.449   8.543 -0.0159  0.0041  0.4667
 7712TIP3    H147331   2.941   4.369   8.575 -0.4043  0.5169  1.3028
 7712TIP3    H247332   3.004   4.497   8.622 -1.0164  1.3249 -0.0103
 7713TIP3   OH247333   0.551   1.768   8.907  0.5591 -0.4557 -0.4551
 7713TIP3    H147334   0.634   1.807   8.933  1.2809 -2.9876  1.5087
 7713TIP3    H247335   0.573   1.706   8.838  0.0117  0.0122 -1.0674
 7714TIP3   OH247336   1.970   4.476  10.782  0.2091  0.4069 -0.1391
 7714TIP3    H147337   2.023   4.439  10.853 -0.1646  1.5493  0.7617
 7714TIP3    H247338   2.034   4.494  10.712  0.5266 -1.0560 -0.2629
 7715TIP3   OH247339   1.778   4.468   8.004  0.2643 -0.2849  0.4853
 7715TIP3    H147340   1.784   4.372   8.011 -0.3965 -0.2721  1.5226
 7715TIP3    H247341   1.704   4.491   8.060  1.3758  0.9660  1.5134
 7716TIP3   OH247342   2.499   4.878   9.046 -0.5210 -0.0025 -0.2570
 7716TIP3    H147343   2.443   4.953   9.029 -0.2776  0.0058 -1.0376
 7716TIP3    H247344   2.481   4.855   9.138 -3.8838 -1.6938 -1.1730
 7717TIP3   OH247345   5.761   4.199   8.374  0.0040 -0.9540  0.2496
 7717TIP3    H147346   5.754   4.175   8.282 -1.3973 -1.9279  0.5837
 7717TIP3    H247347   5.814   4.130   8.414  1.1762 -0.1803  0.0671
 7718TIP3   OH247348   0.145   6.346   7.816 -0.3778 -0.4239 -0.0340
 7718TIP3    H147349   0.187   6.265   7.847  0.8858  1.1437  2.7065
 7718TIP3    H247350   0.171   6.353   7.724 -0.6211 -3.1356 -0.4017
 7719TIP3   OH247351   5.932   0.052   9.964 -0.1065 -0.2851  0.0810
 7719TIP3    H147352   5.849   0.097   9.947  0.8938  2.3283  1.5125
 7719TIP3    H247353   5.932   0.037  10.059  0.7241 -1.0132 -0.0171
 7720TIP3   OH247354   5.262   4.303  11.456 -0.8219 -0.8275  0.3325
 7720TIP3    H147355   5.239   4.269  11.543  0.3064  0.1265  1.0397
 7720TIP3    H247356   5.182   4.345  11.424 -0.7956  0.3304  1.6830
 7721TIP3   OH247357   5.189   4.793  11.212  0.2007 -0.3960  0.4078
 7721TIP3    H147358   5.144   4.858  11.158 -1.6244 -0.8371  1.3303
 7721TIP3    H247359   5.254   4.843  11.262  1.0840  0.1942 -1.2369
 7722TIP3   OH247360   1.365   0.555  11.249  0.0236  0.1271 -0.2021
 7722TIP3    H147361   1.329   0.469  11.270 -1.7101  0.6816 -0.7830
 7722TIP3    H247362   1.339   0.611  11.322  2.5936 -0.1335  1.0470
 7723TIP3   OH247363   2.635   5.648   8.871  0.0747 -0.2767 -0.3745
 7723TIP3    H147364   2.608   5.657   8.780 -2.9640 -0.0634  0.4511
 7723TIP3    H247365   2.647   5.738   8.902  0.9131 -0.3420 -0.4875
 7724TIP3   OH247366   0.755   5.593   8.837  0.3905  0.1951 -0.2667
 7724TIP3    H147367   0.662   5.609   8.823  0.7841  1.7256 -1.3801
 7724TIP3    H247368   0.760   5.557   8.926 -1.3354 -0.8479 -0.5488
 7725TIP3   OH247369   3.357   2.541   8.438 -0.3304  0.1065 -0.5648
 7725TIP3    H147370   3.431   2.488   8.467  0.7307  0.7745 -1.9306
 7725TIP3    H247371   3.386   2.631   8.451 -0.8639  0.3773 -1.1989
 7726TIP3   OH247372   1.721   1.785  10.256  0.2254 -0.0983 -0.2891
 7726TIP3    H147373   1.641   1.792  10.308  0.1564 -0.5077 -0.3415
 7726TIP3    H247374   1.790   1.770  10.320  0.3021  0.4925 -0.2212
 7727TIP3   OH247375   0.156   2.140  10.098 -0.2908 -0.6366 -0.4496
 7727TIP3    H147376   0.167   2.089  10.017 -1.6270  0.0967 -1.1225
 7727TIP3    H247377   0.090   2.206  10.076  1.3931  1.4286  0.3815
 7728TIP3   OH247378   3.347   6.332  10.867  0.3596 -0.6293  0.4097
 7728TIP3    H147379   3.317   6.251  10.908 -0.7758 -0.9791 -1.0324
 7728TIP3    H247380   3.298   6.401  10.910  1.9587 -0.5452  2.2648
 7729TIP3   OH247381   0.165   3.099   9.836  0.4368 -0.0183 -0.0102
 7729TIP3    H147382   0.202   3.150   9.907  1.5566  0.1428 -0.6967
 7729TIP3    H247383   0.206   3.013   9.844 -0.1270 -0.2879  0.0811
 7730TIP3   OH247384   0.351   5.705  10.468 -0.6162 -0.5827 -0.0871
 7730TIP3    H147385   0.332   5.729  10.559 -0.8236 -1.6790  0.1763
 7730TIP3    H247386   0.267   5.674  10.434 -0.1979 -1.7619 -0.1160
 7731TIP3   OH247387   5.973   5.739   8.897  0.2209  0.7025 -0.5841
 7731TIP3    H147388   6.041   5.803   8.920 -0.3969  0.8210  1.0780
 7731TIP3    H247389   5.927   5.777   8.823  0.3414  1.8463 -0.0883
 7732TIP3   OH247390   6.573   5.408  10.455 -0.1090 -0.4352 -0.0204
 7732TIP3    H147391   6.525   5.484  10.488 -1.6514 -1.0779 -0.7205
 7732TIP3    H247392   6.634   5.386  10.526  2.4725  3.1160 -0.8375
 7733TIP3   OH247393   3.840   2.064  10.279  0.7023 -0.3740  0.0407
 7733TIP3    H147394   3.779   2.007  10.232  0.8475 -0.3355 -0.1955
 7733TIP3    H247395   3.926   2.045  10.241  0.6200  0.7044 -0.7413
 7734TIP3   OH247396   2.956   4.592   9.385 -0.3721 -0.4108 -0.3917
 7734TIP3    H147397   2.964   4.502   9.353 -0.4100 -0.7675  0.5836
 7734TIP3    H247398   2.878   4.626   9.341 -1.8243 -1.6743  1.0942
 7735TIP3   OH247399   0.697   6.293  10.221 -0.1737 -0.2809 -0.4701
 7735TIP3    H147400   0.628   6.229  10.207 -0.7707 -0.4001  2.3548
 7735TIP3    H247401   0.652   6.377  10.226 -0.0383 -0.2461  0.4218
 7736TIP3   OH247402   3.790   2.307   8.104 -0.6647  0.3379  0.2560
 7736TIP3    H147403   3.874   2.316   8.060 -0.9546  1.6560 -0.0563
 7736TIP3    H247404   3.739   2.251   8.046  0.3526 -1.4664  1.0143
 7737TIP3   OH247405   4.152   2.836   8.917  0.4135  0.2819 -0.1604
 7737TIP3    H147406   4.120   2.911   8.867  0.4460  0.3656 -0.0567
 7737TIP3    H247407   4.175   2.873   9.002  0.2489  0.1195 -0.0457
 7738TIP3   OH247408   3.007   6.599   9.548  0.3404  0.2630 -0.0156
 7738TIP3    H147409   2.929   6.567   9.593 -0.6747  1.0360 -1.1435
 7738TIP3    H247410   2.973   6.639   9.468  1.9399  0.3349 -0.6880
 7739TIP3   OH247411   2.676   5.700   8.409  0.1216 -0.0235  0.0242
 7739TIP3    H147412   2.606   5.676   8.348 -0.5641  0.8898  0.4252
 7739TIP3    H247413   2.750   5.644   8.384 -1.0528 -1.7310  0.2259
 7740TIP3   OH247414   5.333   6.723   8.065 -0.0134  0.5498  0.3943
 7740TIP3    H147415   5.317   6.788   7.997  3.1017  0.0708 -0.9753
 7740TIP3    H247416   5.338   6.774   8.146 -0.1917  1.6404 -0.2547
 7741TIP3   OH247417   6.288   6.126   9.569  0.1134  0.2427 -0.0546
 7741TIP3    H147418   6.312   6.037   9.595 -0.3539 -0.5024 -1.9704
 7741TIP3    H247419   6.193   6.130   9.584  0.2443  0.6668  0.6801
 7742TIP3   OH247420   1.202   1.881   9.491  0.9499  0.0507  0.1210
 7742TIP3    H147421   1.286   1.839   9.472  1.8846  1.4826  0.9171
 7742TIP3    H247422   1.225   1.961   9.538 -0.5961  2.2978 -2.5885
 7743TIP3   OH247423   0.951   2.036  10.220 -0.0637  0.1145 -0.0856
 7743TIP3    H147424   1.000   2.111  10.254 -2.7790  2.1226 -0.3025
 7743TIP3    H247425   0.905   2.071  10.143 -2.5969 -1.3157  0.6779
 7744TIP3   OH247426   2.102   1.100  11.416  0.1564 -0.1609 -0.1660
 7744TIP3    H147427   2.076   1.123  11.505 -2.3887  0.8718 -1.0749
 7744TIP3    H247428   2.041   1.030  11.391  1.5082 -1.1611 -0.7680
 7745TIP3   OH247429   6.415   5.575   9.918  0.0661  0.2215  0.2783
 7745TIP3    H147430   6.432   5.485   9.946 -1.7160  0.0008  0.7208
 7745TIP3    H247431   6.501   5.617   9.920  0.7416 -1.1410  1.2223
 7746TIP3   OH247432   0.245   6.086   9.019 -0.0133 -0.9632 -0.3402
 7746TIP3    H147433   0.157   6.049   9.022 -0.3291 -0.1975  0.0361
 7746TIP3    H247434   0.289   6.035   8.951 -1.3612 -0.0613 -1.9815
 7747TIP3   OH247435   6.394   4.366   9.967 -0.0554  0.3543  0.1491
 7747TIP3    H147436   6.453   4.393  10.038 -0.1936  1.1920 -0.0419
 7747TIP3    H247437   6.447   4.372   9.888 -0.5730  1.8010 -0.1145
 7748TIP3   OH247438   6.626   6.072  10.194  0.0142 -0.2500 -0.1357
 7748TIP3    H147439   6.545   6.040  10.234  0.3025 -0.5487  0.2220
 7748TIP3    H247440   6.694   6.051  10.258  0.5175 -0.9495 -0.8856
 7749TIP3   OH247441   6.495   6.527   8.579  0.1056  0.7456  0.3480
 7749TIP3    H147442   6.557   6.506   8.509 -0.1358  0.2546  0.2777
 7749TIP3    H247443   6.443   6.600   8.543 -0.0373  0.4768 -0.0059
 7750TIP3   OH247444   4.424   2.659   9.572  0.4573  0.1044  0.1339
 7750TIP3    H147445   4.362   2.604   9.621 -1.8350  0.9546 -1.6403
 7750TIP3    H247446   4.501   2.604   9.560 -0.7630 -1.7990  0.6165
 7751TIP3   OH247447   3.922   1.057   9.393 -0.5146 -0.2657  0.0755
 7751TIP3    H147448   4.013   1.047   9.421 -1.0321  0.4895  2.2487
 7751TIP3    H247449   3.924   1.130   9.331  0.5747 -1.4226 -1.2984
 7752TIP3   OH247450   0.435   5.817   8.330  1.0181 -0.1830 -0.1956
 7752TIP3    H147451   0.496   5.887   8.307  0.5366  1.0394  1.9540
 7752TIP3    H247452   0.487   5.754   8.379  0.3888  1.7058  3.1845
 7753TIP3   OH247453   1.114   1.788   8.845 -0.3479 -0.2425 -0.0172
 7753TIP3    H147454   1.187   1.843   8.817 -1.9960  1.5949 -0.9870
 7753TIP3    H247455   1.113   1.795   8.940  1.0906 -0.7948  0.0487
 7754TIP3   OH247456   0.035   0.715  10.785 -0.2396  0.5812 -0.2098
 7754TIP3    H147457   0.057   0.624  10.805  0.5806  0.5360 -1.2447
 7754TIP3    H247458  -0.010   0.746  10.864 -2.4356 -1.3027 -0.5877
 7755TIP3   OH247459   0.240   0.128   9.009  0.2572  0.0526 -0.3880
 7755TIP3    H147460   0.192   0.210   9.014 -1.2725 -0.7162 -1.5650
 7755TIP3    H247461   0.298   0.129   9.085 -0.9324  1.4607  0.5486
 7756TIP3   OH247462   3.886   1.684   9.344 -0.7637 -0.3113 -0.2001
 7756TIP3    H147463   3.850   1.742   9.412  1.3715  0.9379 -0.0541
 7756TIP3    H247464   3.853   1.721   9.262 -0.4561  0.3725 -0.0306
 7757TIP3   OH247465   1.751   0.257  10.434 -0.0775 -0.1049 -0.2874
 7757TIP3    H147466   1.718   0.320  10.370  0.9502 -0.5713 -1.3284
 7757TIP3    H247467   1.796   0.310  10.499 -0.8031  0.3542 -0.1450
 7758TIP3   OH247468   6.348   3.976   9.425  0.1505 -0.0934 -0.3906
 7758TIP3    H147469   6.295   3.988   9.504 -0.3728 -1.3391 -0.5404
 7758TIP3    H247470   6.355   4.064   9.389  1.4514  0.7368  1.6850
 7759TIP3   OH247471   0.174   5.013  10.639  0.0990 -0.0927 -0.4737
 7759TIP3    H147472   0.082   4.988  10.643 -0.9555  3.3570  3.4603
 7759TIP3    H247473   0.185   5.047  10.550 -2.4504 -0.4481 -1.0024
 7760TIP3   OH247474   0.035   3.153  11.125 -0.1322 -0.5682  0.7642
 7760TIP3    H147475   0.045   3.093  11.051 -0.3014  0.2412  0.0590
 7760TIP3    H247476  -0.042   3.206  11.102 -1.0201 -1.2164  2.1742
 7761TIP3   OH247477   2.207   5.375  10.637 -0.0049 -0.1287 -0.1414
 7761TIP3    H147478   2.119   5.411  10.649  0.2596  0.0156  1.7007
 7761TIP3    H247479   2.261   5.451  10.613 -0.0464  0.1412  0.5876
 7762TIP3   OH247480   4.468   0.690   9.192 -0.4879  0.2450  0.3898
 7762TIP3    H147481   4.535   0.752   9.163  0.8785 -1.0281  0.6798
 7762TIP3    H247482   4.409   0.681   9.117 -1.1416  2.3780  0.5803
 7763TIP3   OH247483   6.421   4.491   9.249 -0.2068  0.0225  0.2141
 7763TIP3    H147484   6.501   4.441   9.239 -0.9383 -1.3295  0.8085
 7763TIP3    H247485   6.422   4.553   9.176  0.7037 -0.9120 -0.6035
 7764TIP3   OH247486   4.397   5.494   9.810  0.1840 -0.3377  0.1132
 7764TIP3    H147487   4.484   5.457   9.825 -0.1171 -0.5630  1.4426
 7764TIP3    H247488   4.383   5.553   9.885 -0.6861 -0.0708 -0.2459
 7765TIP3   OH247489   0.295   1.202  10.251 -0.0258  0.1949  0.0583
 7765TIP3    H147490   0.289   1.273  10.187 -1.6950 -0.3779 -0.4831
 7765TIP3    H247491   0.237   1.229  10.322 -0.4746 -0.4899 -0.0373
 7766TIP3   OH247492   2.999   0.302  10.187 -0.4747  0.4259  0.1568
 7766TIP3    H147493   3.076   0.273  10.138 -1.4774  0.3950 -1.4999
 7766TIP3    H247494   2.950   0.221  10.205  1.5058 -0.0864  4.4293
 7767TIP3   OH247495   0.769   6.735  10.290 -0.1579  0.6868 -0.1318
 7767TIP3    H147496   0.853   6.773  10.267 -0.3638  0.7599 -0.8097
 7767TIP3    H247497   0.729   6.712  10.205 -1.0830  1.2366  0.1388
 7768TIP3   OH247498   3.226   0.564   9.533  0.1248  0.5449  0.2669
 7768TIP3    H147499   3.134   0.592   9.540  0.0930  0.6264 -0.3514
 7768TIP3    H247500   3.275   0.627   9.585 -0.5463 -1.9283  4.3109
 7769TIP3   OH247501   6.471   3.657  10.095 -0.3300  0.8704 -0.4118
 7769TIP3    H147502   6.437   3.707  10.169  0.1267 -1.5348  1.5858
 7769TIP3    H247503   6.551   3.702  10.069 -1.0023  2.2957 -0.1084
 7770TIP3   OH247504   1.760   3.903   8.068 -0.9845  0.0978  0.2971
 7770TIP3    H147505   1.739   3.919   8.160 -0.2257  1.8520  0.1906
 7770TIP3    H247506   1.836   3.845   8.070 -1.9442 -1.2002  0.7265
 7771TIP3   OH247507   6.182   2.644  10.845 -0.3480  0.8855  0.2535
 7771TIP3    H147508   6.089   2.658  10.827 -0.7188  1.8914  2.5704
 7771TIP3    H247509   6.215   2.599  10.767 -2.2315  2.5909 -1.6486
 7772TIP3   OH247510   4.528   1.245  10.019  0.1220 -0.1132  0.2155
 7772TIP3    H147511   4.438   1.218  10.001  0.4220 -1.2315  0.2925
 7772TIP3    H247512   4.563   1.175  10.074  1.5117 -0.5133 -1.1008
 7773TIP3   OH247513   3.517   2.839   9.961 -0.3393  0.3876 -0.4214
 7773TIP3    H147514   3.559   2.794  10.035 -0.8190  1.1823  0.3491
 7773TIP3    H247515   3.585   2.894   9.924 -0.4280  0.9158  0.1993
 7774TIP3   OH247516   4.737   1.067   9.539  0.6251  0.1860  0.3590
 7774TIP3    H147517   4.811   1.118   9.505 -0.2528  1.9194  0.9478
 7774TIP3    H247518   4.684   1.131   9.586  0.1287 -1.5376  2.2535
 7775TIP3   OH247519   4.778   1.332   9.900  0.1578  0.0325  0.1845
 7775TIP3    H147520   4.692   1.314   9.937  0.4986 -0.4673  0.7495
 7775TIP3    H247521   4.790   1.426   9.913 -0.5105  0.1997 -0.3587
 7776TIP3   OH247522   2.824   1.839   8.746  0.0021 -0.7037  0.4517
 7776TIP3    H147523   2.895   1.824   8.684  0.7049  2.0276  0.4567
 7776TIP3    H247524   2.746   1.846   8.691  0.0623 -1.6066  0.2358
 7777TIP3   OH247525   4.286   4.300   9.545 -0.4458  0.3092 -0.0297
 7777TIP3    H147526   4.280   4.392   9.569  1.1645  0.0137  1.7908
 7777TIP3    H247527   4.263   4.298   9.452  1.8206  2.9432 -0.8030
 7778TIP3   OH247528   3.927   4.652   9.707 -0.2358 -0.0773 -0.8586
 7778TIP3    H147529   3.878   4.572   9.724 -0.8842  0.3648 -0.5618
 7778TIP3    H247530   3.861   4.714   9.675 -0.1897  0.9879  0.9531
 7779TIP3   OH247531   5.249   1.517  11.097  0.1252 -0.0413 -0.5938
 7779TIP3    H147532   5.193   1.574  11.044 -1.2774 -1.6915 -0.9717
 7779TIP3    H247533   5.245   1.432  11.054 -0.0764 -1.1419  1.4605
 7780TIP3   OH247534   1.399   4.164   9.725 -0.4047  0.3816  0.6768
 7780TIP3    H147535   1.384   4.070   9.723  0.3084  0.2571 -1.6000
 7780TIP3    H247536   1.488   4.176   9.691 -0.0558  1.8350  1.9552
 7781TIP3   OH247537   4.028   1.225   8.096  0.5627  0.1631  0.3857
 7781TIP3    H147538   4.001   1.135   8.081  0.1708  0.4785 -0.9579
 7781TIP3    H247539   3.958   1.264   8.149  0.1993 -0.0251  0.0428
 7782TIP3   OH247540   4.097   5.016   9.770  0.6470  0.2654  0.1875
 7782TIP3    H147541   4.120   5.034   9.679  2.0232  0.1195  0.4903
 7782TIP3    H247542   4.114   4.922   9.781  0.3237  0.2459  0.5567
 7783TIP3   OH247543   5.991   3.345   9.791  0.3186 -0.0747 -0.5686
 7783TIP3    H147544   5.962   3.331   9.700 -0.3113 -1.6583 -0.1715
 7783TIP3    H247545   5.912   3.375   9.836  0.4079 -0.1288 -0.3771
 7784TIP3   OH247546   1.081   4.504  10.791 -0.0402  0.7295 -0.3543
 7784TIP3    H147547   1.051   4.542  10.709 -0.6132  0.6949 -0.1618
 7784TIP3    H247548   1.007   4.453  10.823  0.4262  0.1463 -0.1790
 7785TIP3   OH247549   5.838   2.487  10.482  0.4219  0.2160 -0.0488
 7785TIP3    H147550   5.785   2.469  10.560  1.6103  0.1548  0.7753
 7785TIP3    H247551   5.877   2.573  10.500 -0.2915  0.7988 -1.1660
 7786TIP3   OH247552   3.969   3.323   8.407 -0.3386  0.1937 -0.0280
 7786TIP3    H147553   3.880   3.351   8.383 -0.5503 -1.3671 -1.2243
 7786TIP3    H247554   3.985   3.365   8.491 -1.9448  1.0706 -0.1167
 7787TIP3   OH247555   5.335   3.906   9.211 -0.2077 -0.0321  0.4322
 7787TIP3    H147556   5.257   3.950   9.245 -0.6078  1.9127 -2.6393
 7787TIP3    H247557   5.300   3.835   9.157  0.1087  0.6211 -0.6596
 7788TIP3   OH247558   5.547   2.395   9.664  0.0200 -0.1885  0.0430
 7788TIP3    H147559   5.512   2.316   9.624 -1.0948 -0.1205  0.8476
 7788TIP3    H247560   5.581   2.447   9.591  1.2828 -1.6285 -0.4559
 7789TIP3   OH247561   0.088   6.449   9.256 -0.1490  0.2428 -0.1067
 7789TIP3    H147562   0.039   6.389   9.200  0.0758 -2.4236  2.3266
 7789TIP3    H247563   0.171   6.461   9.211 -0.7093 -0.1660 -1.3047
 7790TIP3   OH247564   5.067   2.986   8.164 -0.5793  0.4453 -0.1065
 7790TIP3    H147565   5.135   2.921   8.177  0.1908  1.4731  1.1897
 7790TIP3    H247566   5.028   2.963   8.079  0.3277 -1.0737 -0.1451
 7791TIP3   OH247567   5.805   5.306   9.653 -0.1107  0.8313  0.3162
 7791TIP3    H147568   5.896   5.278   9.661 -0.4764 -0.0969  1.4904
 7791TIP3    H247569   5.761   5.270   9.730 -1.2763  2.0687  0.2823
 7792TIP3   OH247570   4.059   5.446   9.256 -0.1217 -0.1510 -0.5287
 7792TIP3    H147571   4.102   5.446   9.341 -0.0803  0.0347 -0.5487
 7792TIP3    H247572   4.099   5.373   9.209  0.3428  0.1716 -0.6340
 7793TIP3   OH247573   3.121   5.171   8.225  0.2511 -0.5035  0.0353
 7793TIP3    H147574   3.148   5.111   8.295  1.5378 -0.2382 -0.2182
 7793TIP3    H247575   3.196   5.176   8.166 -0.0011  0.9703 -0.2101
 7794TIP3   OH247576   4.116   2.360   9.312 -0.1095 -0.4544  0.8805
 7794TIP3    H147577   4.156   2.433   9.264 -1.7379 -0.7615 -1.1159
 7794TIP3    H247578   4.060   2.402   9.377 -1.1094  0.1445 -0.3149
 7795TIP3   OH247579   1.928   0.247  10.709  0.3369 -0.2208  0.3888
 7795TIP3    H147580   1.904   0.339  10.696  0.7016  0.0221  1.3441
 7795TIP3    H247581   2.024   0.248  10.711  0.4685 -1.0003 -2.1871
 7796TIP3   OH247582   4.811   5.041  10.194  0.2234 -0.1491  0.2561
 7796TIP3    H147583   4.845   5.121  10.153 -0.5817  0.0318 -0.0883
 7796TIP3    H247584   4.820   4.974  10.126 -0.5605  0.0156 -0.0211
 7797TIP3   OH247585   6.259   6.357  10.007  0.0324 -0.1098  0.0663
 7797TIP3    H147586   6.169   6.375   9.982 -0.2405 -1.0653  0.3109
 7797TIP3    H247587   6.279   6.273   9.966  0.8354  0.1273 -0.0451
 7798TIP3   OH247588   6.563   1.900   9.678  0.2774  0.4655  0.0442
 7798TIP3    H147589   6.646   1.865   9.711 -0.3080 -1.0757 -0.0232
 7798TIP3    H247590   6.546   1.849   9.598  0.0513  1.8712 -0.8274
 7799TIP3   OH247591   6.035   2.887   7.710  0.3736  0.1712 -0.7212
 7799TIP3    H147592   6.018   2.981   7.699 -0.2702  0.1239 -0.1771
 7799TIP3    H247593   5.969   2.858   7.772  1.5338 -0.3372  0.3219
 7800TIP3   OH247594   5.560   6.071  10.194 -0.2434 -0.4734  0.3806
 7800TIP3    H147595   5.468   6.084  10.217 -0.0701  0.9838  0.3700
 7800TIP3    H247596   5.558   6.033  10.106 -0.8315 -2.0801  1.0412
 7801TIP3   OH247597   0.579   3.168   8.895 -0.6590 -0.2564  0.0389
 7801TIP3    H147598   0.495   3.170   8.850 -0.0225 -2.2178 -1.3645
 7801TIP3    H247599   0.572   3.237   8.961 -2.1663  1.8197 -2.1184
 7802TIP3   OH247600   5.221   5.996   8.893  0.0418  0.2780  0.3414
 7802TIP3    H147601   5.275   5.981   8.815 -0.1203 -1.3904  0.5351
 7802TIP3    H247602   5.256   6.077   8.930  0.9902  0.3819 -0.7332
 7803TIP3   OH247603   5.989   0.452   8.760  0.3460  0.5720 -0.2978
 7803TIP3    H147604   6.067   0.404   8.789  1.0723  1.9431  0.1391
 7803TIP3    H247605   6.022   0.513   8.694 -0.1584  1.8149  0.5548
 7804TIP3   OH247606   4.986   5.081   7.987 -0.1533 -0.7543  0.5400
 7804TIP3    H147607   4.964   5.009   8.046 -0.8157 -0.1702  1.0275
 7804TIP3    H247608   4.902   5.109   7.951 -0.3221  1.5929  2.5172
 7805TIP3   OH247609   4.552   2.946  11.537  0.0301 -0.1898  0.2966
 7805TIP3    H147610   4.505   2.997  11.603  0.1926 -0.7635  0.8690
 7805TIP3    H247611   4.563   2.860  11.577  1.1744 -0.1973 -0.0091
 7806TIP3   OH247612   6.445   5.231   8.565  0.1490  0.0905 -0.1650
 7806TIP3    H147613   6.463   5.156   8.508  1.3256  0.5305 -0.3888
 7806TIP3    H247614   6.351   5.225   8.583 -0.2574 -0.0402 -2.1576
 7807TIP3   OH247615   6.168   2.055  11.418  0.7560  0.0179  0.5605
 7807TIP3    H147616   6.243   2.015  11.374  1.1341  2.3097 -1.0406
 7807TIP3    H247617   6.092   2.025  11.369  0.8808 -0.0566  0.4133
 7808TIP3   OH247618   1.751   4.926  11.089 -0.5036  0.1535  0.3277
 7808TIP3    H147619   1.744   4.834  11.112 -0.5722 -0.0450 -0.4477
 7808TIP3    H247620   1.843   4.938  11.065 -0.9448 -0.2731 -1.7656
 7809TIP3   OH247621   2.071   0.220   8.705  0.1430 -0.2605 -0.0723
 7809TIP3    H147622   2.101   0.292   8.760 -1.3904  0.1736  0.2295
 7809TIP3    H247623   2.073   0.144   8.764  1.8097 -0.5272 -0.4050
 7810TIP3   OH247624   4.055   0.615   8.432  0.0003 -0.0170 -0.0153
 7810TIP3    H147625   4.064   0.614   8.527  1.7220 -1.1069 -0.1391
 7810TIP3    H247626   4.144   0.631   8.400 -0.2594 -1.1408 -1.4313
 7811TIP3   OH247627   3.682   1.946   8.795 -0.3768 -0.4119 -0.1699
 7811TIP3    H147628   3.646   1.965   8.882 -1.6274  1.1411 -0.9811
 7811TIP3    H247629   3.626   1.877   8.761  0.3954 -1.3462  0.4089
 7812TIP3   OH247630   3.870   4.559  10.601 -0.5163  0.9513 -0.0857
 7812TIP3    H147631   3.869   4.496  10.673 -2.9645  1.2091  0.1962
 7812TIP3    H247632   3.909   4.511  10.527 -1.1593 -0.4805  0.4660
 7813TIP3   OH247633   2.765   3.682   8.301  0.7615 -1.0284 -0.5683
 7813TIP3    H147634   2.715   3.632   8.237  1.2322 -0.4114 -1.4230
 7813TIP3    H247635   2.720   3.766   8.306  0.7078 -1.0830 -0.0577
 7814TIP3   OH247636   2.722   0.804   8.789 -0.2963 -0.0489  0.5156
 7814TIP3    H147637   2.783   0.758   8.847  0.3150  0.2809  0.1446
 7814TIP3    H247638   2.638   0.759   8.802  0.8242 -3.2671 -1.9531
 7815TIP3   OH247639   3.788   4.153   8.178  0.5933 -0.2551  0.4054
 7815TIP3    H147640   3.875   4.168   8.214  1.6249  3.1806 -2.8873
 7815TIP3    H247641   3.793   4.067   8.138  1.8930 -0.7805  1.5977
 7816TIP3   OH247642   2.442   2.569  10.475  0.4178  0.1549 -0.1436
 7816TIP3    H147643   2.437   2.650  10.424 -0.7195  0.1528 -0.0586
 7816TIP3    H247644   2.478   2.596  10.559 -1.0703  0.7998  0.3144
 7817TIP3   OH247645   4.644   1.210  10.428 -0.5948  0.0364  0.1940
 7817TIP3    H147646   4.583   1.139  10.450 -0.0290 -0.5436 -0.0649
 7817TIP3    H247647   4.588   1.287  10.419 -1.9283 -1.1202 -3.6686
 7818TIP3   OH247648   3.436   6.055   9.046  0.4448 -0.0463  0.5640
 7818TIP3    H147649   3.387   5.975   9.066  0.8145 -0.9112 -1.6675
 7818TIP3    H247650   3.426   6.065   8.951  2.5725  1.1080  0.4164
 7819TIP3   OH247651   6.161   0.982   8.601  0.1745 -0.1167 -0.4228
 7819TIP3    H147652   6.152   0.991   8.696  1.8771  0.2524 -0.2606
 7819TIP3    H247653   6.231   0.917   8.590  0.1503  0.0127 -1.4314
 7820TIP3   OH247654   3.485   1.357   9.137 -0.6804  0.4547  0.5301
 7820TIP3    H147655   3.557   1.316   9.185 -0.1244  1.0779  0.2450
 7820TIP3    H247656   3.406   1.326   9.180 -0.1902  1.1110  1.9539
 7821TIP3   OH247657   6.124   0.967   8.894 -0.1135  0.1292  0.1562
 7821TIP3    H147658   6.058   0.959   8.963 -0.6606 -0.8222 -0.4347
 7821TIP3    H247659   6.191   0.904   8.918 -0.1555  0.0200 -0.0067
 7822TIP3   OH247660   2.907   3.320   8.715 -0.1521 -0.5385 -0.4834
 7822TIP3    H147661   2.997   3.353   8.717 -0.7315  1.1562 -0.4713
 7822TIP3    H247662   2.852   3.399   8.714 -1.7325 -1.4318  2.3518
 7823TIP3   OH247663   5.035   5.935   9.753 -0.2943  0.2146 -0.0308
 7823TIP3    H147664   5.024   5.864   9.690 -0.0503 -0.3250  0.5203
 7823TIP3    H247665   4.955   5.931   9.806 -0.3313  0.4239 -0.0730
 7824TIP3   OH247666   4.937   3.387  10.136 -0.0061 -0.2105  0.1846
 7824TIP3    H147667   5.016   3.430  10.104  0.5501 -0.8908  0.6235
 7824TIP3    H247668   4.927   3.310  10.080  0.0554 -0.5205  0.5971
 7825TIP3   OH247669   2.196   3.561  10.070 -0.5466 -0.6166  0.0273
 7825TIP3    H147670   2.197   3.516   9.986 -1.9367 -3.7674  1.5435
 7825TIP3    H247671   2.279   3.536  10.112 -1.1305 -1.4791  0.7027
 7826TIP3   OH247672   3.147   5.168  10.088  0.6782  0.0237  0.0378
 7826TIP3    H147673   3.105   5.103  10.031  0.6040 -0.5434  0.7262
 7826TIP3    H247674   3.221   5.200  10.037  1.1708 -1.1548 -0.0235
 7827TIP3   OH247675   4.747   2.764   8.844  0.1934 -0.3099  0.0923
 7827TIP3    H147676   4.810   2.832   8.822 -1.6357  1.6944  0.6973
 7827TIP3    H247677   4.709   2.739   8.760  0.7200 -0.4415 -0.1122
 7828TIP3   OH247678   6.110   4.863   8.102 -0.3254 -0.6874 -0.0596
 7828TIP3    H147679   6.063   4.946   8.094  0.7057 -0.2390 -2.3172
 7828TIP3    H247680   6.080   4.826   8.185  0.0768  2.4760  1.6577
 7829TIP3   OH247681   6.160   5.599  10.013  0.3035  0.2475  0.2218
 7829TIP3    H147682   6.165   5.561  10.101 -1.5334 -2.9205 -0.9220
 7829TIP3    H247683   6.251   5.603   9.984  0.7256 -1.6403  1.1353
 7830TIP3   OH247684   1.184   0.414   8.105 -0.1680  0.5890  0.4722
 7830TIP3    H147685   1.258   0.448   8.055 -0.9570 -0.0791 -1.2425
 7830TIP3    H247686   1.136   0.492   8.133  0.9892  1.0149  1.3125
 7831TIP3   OH247687   1.622   6.341  10.363  0.2526  0.2150 -0.0204
 7831TIP3    H147688   1.711   6.335  10.397  0.4542  0.7550 -0.4554
 7831TIP3    H247689   1.607   6.434  10.348 -0.0351  0.0392 -0.8738
 7832TIP3   OH247690   4.828   2.749  10.624  0.3740 -0.5417 -0.2542
 7832TIP3    H147691   4.921   2.766  10.642  0.2525 -1.3720  1.2738
 7832TIP3    H247692   4.818   2.770  10.531  2.4077 -1.7312 -0.8096
 7833TIP3   OH247693   1.239   3.491   8.728  0.3818 -0.1513  0.2135
 7833TIP3    H147694   1.255   3.511   8.820  0.4012  0.2699  0.1198
 7833TIP3    H247695   1.280   3.562   8.680  1.6962 -1.1504 -0.1886
 7834TIP3   OH247696   4.373   4.453  11.688  0.2624 -0.1251  0.1607
 7834TIP3    H147697   4.435   4.470  11.617 -0.0620 -0.8333 -0.3047
 7834TIP3    H247698   4.367   4.536  11.735 -0.3782  0.6972 -1.3064
 7835TIP3   OH247699   3.562   6.147  11.427 -0.1034 -0.3981 -0.3417
 7835TIP3    H147700   3.538   6.235  11.400  1.3147  1.1283  2.7905
 7835TIP3    H247701   3.478   6.101  11.438 -0.9917  1.1592 -0.3341
 7836TIP3   OH247702   4.522   0.958  10.492  0.0818 -0.0500  0.6512
 7836TIP3    H147703   4.552   0.881  10.445  2.7191  0.6250  1.0743
 7836TIP3    H247704   4.564   0.952  10.578 -2.0084  0.4153  1.7894
 7837TIP3   OH247705   0.421   0.868  10.679  1.2336  0.8772 -0.7806
 7837TIP3    H147706   0.385   0.935  10.737  2.0934  1.5651 -1.0231
 7837TIP3    H247707   0.404   0.786  10.725 -0.7367  1.1466 -0.9502
 7838TIP3   OH247708   2.498   4.783   9.667 -0.7719  0.1692  0.2479
 7838TIP3    H147709   2.521   4.807   9.577  0.0802  0.2945  0.4836
 7838TIP3    H247710   2.456   4.697   9.659  0.0386 -0.2035 -0.2072
 7839TIP3   OH247711   5.118   3.313   8.943  1.0034 -0.2327  0.6971
 7839TIP3    H147712   5.166   3.241   8.900  1.5992  0.0818  0.8214
 7839TIP3    H247713   5.142   3.305   9.035  2.0480  0.8574  0.5377
 7840TIP3   OH247714   5.652   3.079   8.478 -0.2674 -0.3069 -0.1679
 7840TIP3    H147715   5.648   2.984   8.466  1.0064 -0.4865  0.6651
 7840TIP3    H247716   5.593   3.097   8.551 -0.3464 -0.4853 -0.1880
 7841TIP3   OH247717   4.336   3.393  10.655  0.1868  0.2117  0.4306
 7841TIP3    H147718   4.352   3.375  10.562  2.4059 -0.0689  0.8236
 7841TIP3    H247719   4.289   3.315  10.686 -1.0304  0.5255 -0.5194
 7842TIP3   OH247720   3.169   2.390  10.576  0.1198 -0.9370  0.5716
 7842TIP3    H147721   3.197   2.341  10.498 -1.3363 -0.0101 -0.6005
 7842TIP3    H247722   3.180   2.482  10.551  0.9762 -0.6275  2.0128
 7843TIP3   OH247723   6.376   1.686   8.213 -0.4203  0.3372 -0.3045
 7843TIP3    H147724   6.315   1.723   8.149 -0.2156  2.1129  0.4712
 7843TIP3    H247725   6.361   1.592   8.208  0.4553  0.2180 -3.8326
 7844TIP3   OH247726   3.045   6.367  10.496  0.0182 -0.4424 -0.3038
 7844TIP3    H147727   3.120   6.401  10.544 -0.8617  2.7138 -0.9693
 7844TIP3    H247728   3.082   6.331  10.416  1.1075 -2.3702  0.9789
 7845TIP3   OH247729   1.814   0.170  10.033  0.6934 -0.2004 -0.5869
 7845TIP3    H147730   1.843   0.261  10.036 -1.0244  0.3402  1.2844
 7845TIP3    H247731   1.753   0.166   9.959  1.6003 -0.1405 -1.3619
 7846TIP3   OH247732   2.868   6.287   8.908 -0.4483  0.3267 -0.4138
 7846TIP3    H147733   2.866   6.351   8.836  1.9460  0.0858 -0.7948
 7846TIP3    H247734   2.962   6.275   8.925 -0.7718  2.3870  4.5552
 7847TIP3   OH247735   4.059   2.185   9.828 -0.1912  0.2877  0.5156
 7847TIP3    H147736   4.053   2.277   9.851 -1.1039  0.3345  0.1289
 7847TIP3    H247737   3.993   2.172   9.760 -0.2039 -0.6926  0.6897
 7848TIP3   OH247738   6.539   3.267  11.042 -0.4139  0.0003 -0.5063
 7848TIP3    H147739   6.499   3.191  11.084 -0.0656 -0.1530 -0.4471
 7848TIP3    H247740   6.482   3.286  10.968 -0.0091 -0.8790 -1.0566
 7849TIP3   OH247741   0.262   5.892   7.896 -0.3954  0.0035  0.3987
 7849TIP3    H147742   0.235   5.876   7.987  2.3417  0.0010  1.3147
 7849TIP3    H247743   0.341   5.840   7.886  0.7243  1.8821 -1.1874
 7850TIP3   OH247744   6.158   4.227   9.488  0.1344  0.0078  0.1804
 7850TIP3    H147745   6.189   4.204   9.400  0.5692  2.2948 -0.3376
 7850TIP3    H247746   6.218   4.295   9.518 -1.6932  1.3430  1.0318
 7851TIP3   OH247747   6.091   6.399   9.757  0.6638 -0.2353  0.9885
 7851TIP3    H147748   6.047   6.404   9.672  0.2600  2.4142  1.2508
 7851TIP3    H247749   6.045   6.329   9.804 -0.8161 -0.0433 -0.0877
 7852TIP3   OH247750   5.122   2.173   8.522 -0.1340 -0.0057  0.0798
 7852TIP3    H147751   5.106   2.266   8.534 -0.3515 -0.0687  0.2937
 7852TIP3    H247752   5.183   2.150   8.592 -0.0385 -0.0110 -0.0060
 7853TIP3   OH247753   5.763   6.539   9.770 -0.3431 -0.0599 -0.0800
 7853TIP3    H147754   5.682   6.585   9.750 -0.4616 -0.1922  0.0928
 7853TIP3    H247755   5.775   6.552   9.864 -0.3387 -0.3214 -0.0445
 7854TIP3   OH247756   1.243   1.063   9.695 -0.1517 -0.1667  0.2721
 7854TIP3    H147757   1.329   1.026   9.674  0.1631  0.3261  0.6679
 7854TIP3    H247758   1.180   1.004   9.653  0.4122  0.1105 -1.0167
 7855TIP3   OH247759   2.631   0.556   8.030  0.0773 -0.1340  0.3650
 7855TIP3    H147760   2.667   0.635   8.070  0.6966 -0.6829  0.9165
 7855TIP3    H247761   2.614   0.581   7.939  1.0499  0.3959  0.3074
 7856TIP3   OH247762   5.697   0.826  10.667 -0.7346 -0.1001  0.2743
 7856TIP3    H147763   5.639   0.866  10.603  0.8030  1.8664  0.0254
 7856TIP3    H247764   5.649   0.750  10.699 -2.0591 -0.4376 -2.2919
 7857TIP3   OH247765   5.851   1.766  10.654  0.4590  0.5128  0.3120
 7857TIP3    H147766   5.916   1.800  10.715  0.2456  1.6311 -0.0558
 7857TIP3    H247767   5.831   1.840  10.596  1.2954 -0.7279 -1.6740
 7858TIP3   OH247768   4.053   1.528   9.176  0.2742  0.9324 -0.6954
 7858TIP3    H147769   3.962   1.557   9.168 -0.5749 -0.9832  1.3342
 7858TIP3    H247770   4.079   1.551   9.265  0.7797 -1.1270 -0.2629
 7859TIP3   OH247771   0.779   6.373   9.158  0.8348 -0.1911 -0.0958
 7859TIP3    H147772   0.707   6.437   9.158  0.6273 -0.4131  0.6339
 7859TIP3    H247773   0.736   6.289   9.173  1.3031 -0.2420  1.0896
 7860TIP3   OH247774   0.346   2.085   8.473  0.8325 -0.0597 -0.4358
 7860TIP3    H147775   0.270   2.134   8.503 -0.7541 -1.1258 -2.4707
 7860TIP3    H247776   0.357   2.015   8.537  0.7818  0.6933  0.4233
 7861TIP3   OH247777   6.104   3.988   8.393  0.2055  0.1304  0.4173
 7861TIP3    H147778   6.086   4.013   8.302  1.1928 -1.3234 -0.2279
 7861TIP3    H247779   6.019   3.991   8.436 -0.3432  0.4933 -0.6583
 7862TIP3   OH247780   5.926   5.443   8.448 -0.1960 -0.2248  0.2567
 7862TIP3    H147781   5.856   5.428   8.385  0.1952  0.3388 -0.3148
 7862TIP3    H247782   5.881   5.460   8.531 -0.7364  0.4529 -0.1735
 7863TIP3   OH247783   4.042   5.587  11.136  0.2027 -0.7971 -0.1901
 7863TIP3    H147784   3.995   5.563  11.056 -2.6616  0.9917  0.8097
 7863TIP3    H247785   3.986   5.555  11.207  1.0689  0.4277  1.0998
 7864TIP3   OH247786   3.213   3.095   9.157  0.1634 -0.1382  0.4077
 7864TIP3    H147787   3.305   3.112   9.178 -0.4406  1.4936  2.0387
 7864TIP3    H247788   3.172   3.079   9.242 -1.2464  0.1053 -0.2024
 7865TIP3   OH247789   3.945   0.259   9.458 -0.1721  0.1773 -0.0814
 7865TIP3    H147790   3.925   0.267   9.365  0.7890 -0.7243 -0.3934
 7865TIP3    H247791   3.872   0.209   9.494  0.5145 -1.4560 -0.8273
 7866TIP3   OH247792   4.976   1.534   8.384  0.0597 -0.2182 -0.2009
 7866TIP3    H147793   5.018   1.503   8.304  0.9038  0.0632  0.1127
 7866TIP3    H247794   4.885   1.505   8.377  0.1464 -0.2763 -1.2080
 7867TIP3   OH247795   1.566   5.926   8.134  0.2091 -0.2089 -0.0426
 7867TIP3    H147796   1.474   5.928   8.159  0.2852 -0.9194  0.3211
 7867TIP3    H247797   1.568   5.960   8.045 -0.3701  0.0850  0.0568
 7868TIP3   OH247798   5.329   0.051   9.788 -0.1257 -0.0448  0.0940
 7868TIP3    H147799   5.378   0.130   9.767  0.2001 -0.1838  0.3236
 7868TIP3    H247800   5.329   0.047   9.884 -0.6079 -0.0322  0.1000
 7869TIP3   OH247801   3.638   3.459   9.973  0.2458 -0.5219 -0.0047
 7869TIP3    H147802   3.577   3.530   9.953 -1.6168 -1.5664  1.6169
 7869TIP3    H247803   3.714   3.503  10.012 -0.7622  0.6190  0.7478
 7870TIP3   OH247804   2.701   4.958   7.902  0.6859  0.2056 -0.7349
 7870TIP3    H147805   2.779   5.013   7.893  1.0091 -0.4331 -2.2098
 7870TIP3    H247806   2.725   4.893   7.967  1.4354 -0.0344 -1.2392
 7871TIP3   OH247807   0.941   4.337   9.595 -0.0887 -0.1848 -0.2778
 7871TIP3    H147808   1.032   4.356   9.620 -0.4838  0.1491  0.9574
 7871TIP3    H247809   0.947   4.315   9.502  1.3299 -0.6915 -0.1027
 7872TIP3   OH247810   2.629   2.203   8.200  0.4997 -0.1730 -0.2169
 7872TIP3    H147811   2.560   2.192   8.135 -2.0350  2.1854  1.8723
 7872TIP3    H247812   2.673   2.284   8.176 -0.1787  0.4902  0.6889
 7873TIP3   OH247813   2.321   5.602  10.327  0.2512  0.2386  0.5682
 7873TIP3    H147814   2.246   5.657  10.351  1.1534  2.4005 -1.2221
 7873TIP3    H247815   2.365   5.584  10.409 -1.5950 -0.1493  1.5335
 7874TIP3   OH247816   2.541   5.962   8.718  0.0485  0.3486 -0.1041
 7874TIP3    H147817   2.607   6.023   8.685 -0.4555  1.5125  0.9652
 7874TIP3    H247818   2.458   6.000   8.690 -0.2416 -0.4511 -0.3683
 7875TIP3   OH247819   0.616   2.170  10.187 -0.6555 -0.3448 -0.7030
 7875TIP3    H147820   0.530   2.211  10.186 -0.5962 -0.2269 -1.1565
 7875TIP3    H247821   0.645   2.176  10.278 -0.1650  1.6567 -0.9399
 7876TIP3   OH247822   2.225   0.795  10.348 -0.7964  0.5686  0.2968
 7876TIP3    H147823   2.184   0.709  10.345  0.4039 -0.0140  0.0644
 7876TIP3    H247824   2.156   0.853  10.381 -1.6824 -0.4288  0.2677
 7877TIP3   OH247825   5.248   2.786   8.722 -0.3898  0.4418 -0.2233
 7877TIP3    H147826   5.293   2.868   8.742 -0.1132  0.1028  0.5900
 7877TIP3    H247827   5.205   2.763   8.805  0.2251 -0.6665 -0.2037
 7878TIP3   OH247828   2.189   1.980   9.452 -0.4497  0.2874  0.1321
 7878TIP3    H147829   2.155   2.061   9.489 -0.4616  0.3592 -0.0334
 7878TIP3    H247830   2.270   1.963   9.501 -1.0295 -0.2017  0.9227
 7879TIP3   OH247831   3.862   5.148   9.849 -0.0526 -0.0792 -0.4352
 7879TIP3    H147832   3.934   5.135   9.788 -0.3028 -0.2636 -0.6936
 7879TIP3    H247833   3.904   5.173   9.931  0.2120  1.9457 -1.1245
 7880TIP3   OH247834   4.151   4.560  10.431  0.6671 -0.0219  0.9012
 7880TIP3    H147835   4.101   4.543  10.351  0.7617  1.6319  0.4599
 7880TIP3    H247836   4.231   4.601  10.400  0.5608  0.9314  1.8712
 7881TIP3   OH247837   2.457   1.779  10.875  0.3602 -0.2922 -0.1145
 7881TIP3    H147838   2.521   1.754  10.942  0.1564 -1.2113 -0.2502
 7881TIP3    H247839   2.385   1.818  10.924 -0.3313 -2.0680  0.3381
 7882TIP3   OH247840   3.675   1.865   9.526 -0.0775 -0.1118  0.3131
 7882TIP3    H147841   3.628   1.782   9.532 -0.8513  0.1938 -1.0905
 7882TIP3    H247842   3.606   1.931   9.522  0.5137  0.5145  0.3426
 7883TIP3   OH247843   2.400   1.096   9.214  0.0959 -0.1331  0.0600
 7883TIP3    H147844   2.430   1.132   9.298 -0.2921  2.9774 -1.0274
 7883TIP3    H247845   2.473   1.042   9.184  1.1844  0.5868  1.2947
 7884TIP3   OH247846   3.939   1.853   8.804  0.0350  0.1653  0.1560
 7884TIP3    H147847   3.858   1.891   8.768 -0.1579 -0.1800  0.2147
 7884TIP3    H247848   3.956   1.777   8.748  1.0150  0.9471 -0.6335
 7885TIP3   OH247849   1.876   5.880   9.391 -0.1353  0.1720  0.1988
 7885TIP3    H147850   1.939   5.912   9.456  0.0263  0.5756 -0.1559
 7885TIP3    H247851   1.791   5.892   9.432 -0.0180  0.1401  0.4567
 7886TIP3   OH247852   1.012   3.841  10.386 -0.0228 -0.3645  0.1155
 7886TIP3    H147853   1.071   3.829  10.461 -1.6043 -1.0514  1.2997
 7886TIP3    H247854   1.020   3.934  10.365  0.8928 -0.2819  0.7549
 7887TIP3   OH247855   6.189   6.157  10.579 -0.2508  0.1449  0.1398
 7887TIP3    H147856   6.098   6.183  10.566 -0.5522 -1.5350 -1.5376
 7887TIP3    H247857   6.203   6.162  10.674 -1.2746  2.8764  0.2159
 7888TIP3   OH247858   0.918   3.877   7.915  0.0206  0.2879  0.3163
 7888TIP3    H147859   0.853   3.944   7.936  0.0200  0.2520  0.4298
 7888TIP3    H247860   0.884   3.834   7.836  0.7158  1.3543 -0.5883
 7889TIP3   OH247861   2.648   4.385  10.970 -0.2194 -0.0402  0.0272
 7889TIP3    H147862   2.683   4.451  10.912 -0.6850  0.0163 -0.1928
 7889TIP3    H247863   2.556   4.377  10.945  0.1964 -1.9592 -1.0862
 7890TIP3   OH247864   3.743   0.514   8.881 -0.5169  0.7827 -0.1201
 7890TIP3    H147865   3.761   0.538   8.971  1.0187  0.2703 -0.2563
 7890TIP3    H247866   3.756   0.419   8.879  0.0520  0.8640 -0.9871
 7891TIP3   OH247867   2.123   4.716   9.645  0.7671 -0.3237 -0.0980
 7891TIP3    H147868   2.192   4.654   9.623  0.1855 -0.6173 -1.1656
 7891TIP3    H247869   2.053   4.661   9.682  0.7732 -0.1354  0.1964
 7892TIP3   OH247870   5.515   3.873  10.151 -0.1058  0.0017 -0.6033
 7892TIP3    H147871   5.562   3.952  10.176 -0.6107 -0.0149  0.4351
 7892TIP3    H247872   5.423   3.899  10.148  0.0074  0.9069 -5.7804
 7893TIP3   OH247873   1.397   0.131   8.934 -0.4367 -0.0534  0.2487
 7893TIP3    H147874   1.373   0.040   8.922 -1.0407  0.2877 -1.3241
 7893TIP3    H247875   1.467   0.129   9.000 -0.7602 -1.5840  0.5765
 7894TIP3   OH247876   1.003   3.344   9.548 -0.1427 -0.2689 -0.1375
 7894TIP3    H147877   1.058   3.423   9.550  0.7054 -0.7487 -2.0950
 7894TIP3    H247878   1.045   3.284   9.609  0.8736 -0.2000 -0.7413
 7895TIP3   OH247879   2.745   3.122  10.767  0.1136 -0.2190  0.2403
 7895TIP3    H147880   2.794   3.179  10.707 -0.9559 -0.6986 -1.1513
 7895TIP3    H247881   2.781   3.142  10.853  0.5094  1.7834 -0.3246
 7896TIP3   OH247882   6.162   5.277  10.474  0.4662 -0.1243  0.2640
 7896TIP3    H147883   6.142   5.233  10.556 -0.4979 -1.1400 -0.4820
 7896TIP3    H247884   6.201   5.361  10.500  1.2665 -0.9185  1.7231
 7897TIP3   OH247885   3.202   4.848   8.884  0.3229  0.7298  0.3994
 7897TIP3    H147886   3.206   4.789   8.809 -0.2775  0.3895  0.6331
 7897TIP3    H247887   3.120   4.895   8.874  0.1276  0.5211  0.9654
 7898TIP3   OH247888   1.768   4.105   9.513  0.0169 -0.3329  0.3056
 7898TIP3    H147889   1.695   4.051   9.481 -1.6931  1.8701  0.1713
 7898TIP3    H247890   1.797   4.061   9.593 -1.0788 -1.6041  0.0513
 7899TIP3   OH247891   6.608   5.326   9.886  0.3546 -0.0497  0.3519
 7899TIP3    H147892   6.566   5.295   9.966  2.6871 -0.3585  1.5463
 7899TIP3    H247893   6.667   5.396   9.915  1.0635  0.0056 -1.1303
 7900TIP3   OH247894   0.511   0.100   8.361 -0.2057 -0.2721 -0.2122
 7900TIP3    H147895   0.587   0.152   8.386 -2.4119  1.8302  2.8194
 7900TIP3    H247896   0.502   0.036   8.431 -2.2047  0.6903  0.4607
 7901TIP3   OH247897   5.424   4.276  11.096  0.2782 -0.4192  0.1327
 7901TIP3    H147898   5.496   4.243  11.149  1.7563  1.4042 -0.6412
 7901TIP3    H247899   5.401   4.359  11.136 -0.3797 -0.2691 -0.5315
 7902TIP3   OH247900   3.287   4.399   8.891  0.2867  0.1293  0.2446
 7902TIP3    H147901   3.368   4.378   8.937 -0.2661 -0.4238  0.9955
 7902TIP3    H247902   3.219   4.350   8.938 -0.2209 -1.0227 -1.5857
 7903TIP3   OH247903   4.297   0.556  10.338 -0.2714 -0.1539 -0.2657
 7903TIP3    H147904   4.243   0.606  10.276 -0.5318  0.4789  0.4459
 7903TIP3    H247905   4.234   0.519  10.400  0.0281 -0.2736 -0.0287
 7904TIP3   OH247906   0.565   4.366  10.077 -0.1521  0.2014 -0.1407
 7904TIP3    H147907   0.564   4.434  10.009  0.5638  0.6766  0.2991
 7904TIP3    H247908   0.479   4.371  10.117  0.0800  1.2659  0.2627
 7905TIP3   OH247909   6.585   2.811   9.691  0.3100  0.0705 -0.0522
 7905TIP3    H147910   6.519   2.871   9.726  0.6265  0.9968 -1.0067
 7905TIP3    H247911   6.613   2.760   9.767 -1.4354 -0.2892  0.3878
 7906TIP3   OH247912   0.145   1.730   9.155 -0.4233 -0.0668 -0.0368
 7906TIP3    H147913   0.181   1.763   9.073  1.3202  0.8864  1.0485
 7906TIP3    H247914   0.164   1.799   9.218 -2.3228 -0.4860  1.0529
 7907TIP3   OH247915   4.855   5.563  15.890  0.4218 -0.0776  0.1342
 7907TIP3    H147916   4.783   5.499  15.884  2.0085 -1.9544  0.0083
 7907TIP3    H247917   4.931   5.516  15.856  1.4464  2.3511 -1.1402
 7908TIP3   OH247918   3.010   3.571  11.323  0.5573  0.3479 -0.0252
 7908TIP3    H147919   3.106   3.573  11.324  0.6701  1.6905 -3.0698
 7908TIP3    H247920   2.984   3.661  11.305 -1.3995  0.2485  1.8529
 7909TIP3   OH247921   6.174   0.643   9.945 -0.4311  0.2104  0.3482
 7909TIP3    H147922   6.168   0.646   9.850  1.2170 -0.5292  0.1754
 7909TIP3    H247923   6.191   0.551   9.965 -0.9552  0.3179  1.3860
 7910TIP3   OH247924   0.607   4.947  11.551 -0.1211 -0.2968 -0.5096
 7910TIP3    H147925   0.612   4.867  11.603 -0.0896 -0.0335 -0.1040
 7910TIP3    H247926   0.540   5.000  11.594 -1.1710 -0.7001 -1.6196
 7911TIP3   OH247927   6.611   1.064  10.211  0.1724  0.6851  0.8067
 7911TIP3    H147928   6.600   1.004  10.285  0.5935  0.3356  0.5909
 7911TIP3    H247929   6.532   1.052  10.158  0.5603 -0.2033  0.4052
 7912TIP3   OH247930   0.346   6.157   7.911 -0.0480 -0.0301 -0.1806
 7912TIP3    H147931   0.305   6.070   7.910  0.1976 -0.1472 -0.6881
 7912TIP3    H247932   0.345   6.183   8.003  0.1511 -0.7058  0.0267
 7913TIP3   OH247933   0.514   4.584   8.046 -0.0764  0.0756 -0.5569
 7913TIP3    H147934   0.601   4.618   8.023  0.3590 -1.0116 -0.5751
 7913TIP3    H247935   0.524   4.489   8.044 -1.4160 -0.0788 -1.0889
 7914TIP3   OH247936   2.638   4.121   8.508  0.0204  0.4768 -0.2177
 7914TIP3    H147937   2.660   4.028   8.512  0.6111  0.6396  0.4800
 7914TIP3    H247938   2.543   4.123   8.519 -0.0061 -0.0448 -0.3154
 7915TIP3   OH247939   4.165   5.008   9.492  0.0692  0.0262  0.3157
 7915TIP3    H147940   4.090   4.979   9.441 -0.2194  1.1632  0.0624
 7915TIP3    H247941   4.240   4.965   9.451 -0.1838  0.7305 -0.9345
 7916TIP3   OH247942   2.754   6.695   9.864  0.5651 -0.0480 -0.7083
 7916TIP3    H147943   2.793   6.613   9.835 -0.0091 -0.3394 -0.6677
 7916TIP3    H247944   2.765   6.755   9.789  0.1672 -0.4387 -1.0852
 7917TIP3   OH247945   1.616   6.191   8.902 -0.1327 -0.2432  0.0465
 7917TIP3    H147946   1.540   6.132   8.904 -0.2072 -0.1512 -0.0840
 7917TIP3    H247947   1.690   6.134   8.882 -0.1639 -0.3375  0.1962
 7918TIP3   OH247948   4.366   2.195   9.057  0.3102 -0.1262  0.1297
 7918TIP3    H147949   4.395   2.104   9.048  1.1667 -0.0946  2.0642
 7918TIP3    H247950   4.290   2.190   9.114  0.7660  0.4112  0.7994
 7919TIP3   OH247951   3.505   5.972  10.824  0.7532  0.1401  0.0356
 7919TIP3    H147952   3.460   5.983  10.908  1.1697 -0.1092  0.2930
 7919TIP3    H247953   3.456   6.028  10.764  0.5259  0.4175  0.4709
 7920TIP3   OH247954   4.455   3.377  11.079  0.4899  0.4630  0.0153
 7920TIP3    H147955   4.437   3.411  11.167 -0.4691 -1.4829  0.6163
 7920TIP3    H247956   4.548   3.356  11.079  0.4555  0.3140  0.6073
 7921TIP3   OH247957   2.382   3.109   7.823  0.5089  0.1180 -0.0517
 7921TIP3    H147958   2.384   3.196   7.864  1.8395 -0.5636  1.4193
 7921TIP3    H247959   2.289   3.095   7.803  0.1822  1.6061  0.2633
 7922TIP3   OH247960   1.029   0.602   9.827 -0.7118 -0.4572 -0.2263
 7922TIP3    H147961   0.950   0.549   9.842 -0.6275 -0.3065  0.8931
 7922TIP3    H247962   1.023   0.629   9.736 -1.8425 -0.6427 -0.2264
 7923TIP3   OH247963   6.462   5.524  11.065 -0.6899  0.0464  0.8616
 7923TIP3    H147964   6.409   5.491  11.138 -1.5362  0.3782  0.4091
 7923TIP3    H247965   6.548   5.485  11.078 -0.8257  0.1173  2.0498
 7924TIP3   OH247966   4.108   3.697   8.710  0.3396 -0.1839 -0.3504
 7924TIP3    H147967   4.182   3.747   8.677 -1.3839  1.7380 -1.5380
 7924TIP3    H247968   4.064   3.756   8.772 -0.7830 -0.8639 -0.4631
 7925TIP3   OH247969   5.939   0.062  10.838 -0.0248 -0.0037  0.5672
 7925TIP3    H147970   5.868   0.118  10.870 -0.3090 -0.7191  1.2330
 7925TIP3    H247971   5.959   0.096  10.751  0.1980  1.4696  1.1676
 7926TIP3   OH247972   3.510   3.692  10.168  0.1139  0.5685 -0.1196
 7926TIP3    H147973   3.562   3.689  10.088 -0.6506 -0.1475 -0.5988
 7926TIP3    H247974   3.436   3.633  10.152 -0.8162  1.5129  0.5762
 7927TIP3   OH247975   1.320   2.291   9.180  0.2096 -0.2314 -0.1901
 7927TIP3    H147976   1.231   2.286   9.217 -0.8595  1.2431 -2.3683
 7927TIP3    H247977   1.367   2.350   9.239 -0.2227 -1.0343  1.0007
 7928TIP3   OH247978   5.260   3.894   8.341  0.2569 -0.4428  0.5173
 7928TIP3    H147979   5.303   3.979   8.335  0.1760 -0.4460 -4.4149
 7928TIP3    H247980   5.170   3.914   8.367  0.1053  1.1265 -1.0327
 7929TIP3   OH247981   4.087   3.030  10.178 -1.1442 -0.9236  0.1490
 7929TIP3    H147982   4.094   3.075  10.094  0.6950  1.0632  1.2645
 7929TIP3    H247983   4.024   3.082  10.228  1.8692  1.4800  1.8781
 7930TIP3   OH247984   0.233   3.561   9.367  0.5471  0.0348  0.0393
 7930TIP3    H147985   0.222   3.619   9.442  0.2164 -0.6356  0.5186
 7930TIP3    H247986   0.302   3.602   9.315  0.5400  0.6866  0.5262
 7931TIP3   OH247987   2.953   6.369  10.850 -0.3098  0.0637 -0.0263
 7931TIP3    H147988   3.041   6.375  10.811 -0.8919  0.9716 -1.2684
 7931TIP3    H247989   2.913   6.454  10.831 -1.3194 -0.1971  0.8805
 7932TIP3   OH247990   0.719   6.312   8.857  0.1421 -0.3535 -0.1490
 7932TIP3    H147991   0.703   6.391   8.806  2.1777 -0.2004 -0.6244
 7932TIP3    H247992   0.759   6.343   8.938  1.0569 -0.8902 -0.3823
 7933TIP3   OH247993   2.100   3.333  11.485 -0.1682 -0.7117 -0.4801
 7933TIP3    H147994   2.186   3.299  11.509 -0.3652 -0.8070  0.1111
 7933TIP3    H247995   2.074   3.388  11.559  0.2635  0.9812 -1.5489
 7934TIP3   OH247996   5.900   6.523   8.928 -0.1307 -0.7246 -0.9670
 7934TIP3    H147997   5.981   6.565   8.957 -0.4729 -0.1579 -0.8184
 7934TIP3    H247998   5.924   6.478   8.847  0.4014 -0.8056 -0.7713
 7935TIP3   OH247999   2.260   3.998   7.975 -0.1315 -0.0407 -0.3577
 7935TIP3    H148000   2.228   3.938   8.042 -0.2858  1.5919  1.1256
 7935TIP3    H248001   2.338   3.956   7.941 -0.1498 -1.0177  0.7241
 7936TIP3   OH248002   3.476   3.255  10.085 -0.3555  0.4691  0.4627
 7936TIP3    H148003   3.532   3.313  10.034 -0.3539 -0.1508 -0.2523
 7936TIP3    H248004   3.489   3.283  10.176  0.8180  0.5825  0.2724
 7937TIP3   OH248005   6.548   1.732   8.857  0.0490  0.5417  0.2183
 7937TIP3    H148006   6.500   1.723   8.776 -1.5239  0.6244  1.1004
 7937TIP3    H248007   6.601   1.652   8.863  0.7223  0.8505 -1.1895
 7938TIP3   OH248008   3.498   2.041  10.206 -0.0512 -0.7672 -0.3375
 7938TIP3    H148009   3.552   1.964  10.219  0.3781 -0.3633  0.3653
 7938TIP3    H248010   3.541   2.109  10.258 -0.8469 -0.2600 -0.3292
 7939TIP3   OH248011   5.210   6.384   9.604  0.7516 -0.4768  0.6220
 7939TIP3    H148012   5.260   6.389   9.686  1.4545 -0.1530  0.1852
 7939TIP3    H248013   5.152   6.460   9.607  0.5903 -0.6073  0.9288
 7940TIP3   OH248014   2.856   2.542  10.813  0.7146 -0.4914  0.0341
 7940TIP3    H148015   2.786   2.543  10.878 -0.7105  1.2022 -1.4019
 7940TIP3    H248016   2.911   2.617  10.835  2.4032 -2.0476  1.3959
 7941TIP3   OH248017   2.484   0.052   8.266  0.4675  0.1665  0.0517
 7941TIP3    H148018   2.473  -0.016   8.199 -0.9787  0.2411  0.1772
 7941TIP3    H248019   2.579   0.061   8.276  0.7847  0.9448 -2.7890
 7942TIP3   OH248020   2.117   1.071  11.115  0.6943 -0.0515  0.1443
 7942TIP3    H148021   2.182   1.140  11.128  1.2577 -0.5089 -0.1946
 7942TIP3    H248022   2.087   1.050  11.204 -0.0097  1.1071  0.2053
 7943TIP3   OH248023   1.044   5.371   8.120 -0.5632  0.0439  0.2178
 7943TIP3    H148024   1.109   5.428   8.078 -0.5059 -0.9309 -1.0741
 7943TIP3    H248025   0.966   5.379   8.065 -0.8667 -0.3831  0.5819
 7944TIP3   OH248026   3.279   4.916  10.445  0.4036 -0.2983  0.1491
 7944TIP3    H148027   3.320   5.000  10.426 -1.6053  0.6251 -0.3881
 7944TIP3    H248028   3.332   4.852  10.396 -0.0029  1.0808 -2.2553
 7945TIP3   OH248029   4.954   5.497  10.370 -0.0438  0.1192  0.1661
 7945TIP3    H148030   4.963   5.499  10.275 -3.2097 -0.6113 -0.2530
 7945TIP3    H248031   4.992   5.413  10.396 -1.7174 -1.0193 -0.8806
 7946TIP3   OH248032   2.378   3.567   9.843  0.5347 -0.0278 -0.2070
 7946TIP3    H148033   2.327   3.646   9.862  1.5381  0.6814 -0.3621
 7946TIP3    H248034   2.385   3.566   9.748 -0.9810 -1.3035 -0.3373
 7947TIP3   OH248035   3.500   1.206   8.534  0.0524  0.0710 -0.5515
 7947TIP3    H148036   3.539   1.280   8.580 -0.6702  0.3589 -0.3893
 7947TIP3    H248037   3.435   1.245   8.475 -0.7949 -0.4611  0.0008
 7948TIP3   OH248038   1.406   3.563   8.104 -0.2903 -0.2008 -0.4701
 7948TIP3    H148039   1.424   3.476   8.070 -1.3607 -0.8822  0.6410
 7948TIP3    H248040   1.439   3.561   8.194 -1.6111  0.0534  0.0387
 7949TIP3   OH248041   6.049   1.998  10.402 -0.3300 -0.5785 -0.6617
 7949TIP3    H148042   6.064   2.055  10.327  0.5478  1.4328  0.9329
 7949TIP3    H248043   5.953   1.990  10.407 -0.4323  0.0283 -1.4346
 7950TIP3   OH248044   1.590   2.775  10.515 -0.0351  0.3545 -0.8716
 7950TIP3    H148045   1.630   2.825  10.443  0.2870  1.2321 -0.1084
 7950TIP3    H248046   1.630   2.689  10.510  1.8641  1.1489 -0.2582
 7951TIP3   OH248047   2.466   0.704   9.170  0.2984  0.4764  0.2448
 7951TIP3    H148048   2.527   0.778   9.170 -0.5834  1.2702 -1.8683
 7951TIP3    H248049   2.398   0.728   9.106  0.0380 -2.2020 -0.6203
 7952TIP3   OH248050   1.150   0.341  10.555 -0.4403 -0.0545 -0.1068
 7952TIP3    H148051   1.151   0.336  10.460  0.3199 -1.3931 -0.0410
 7952TIP3    H248052   1.217   0.406  10.576  0.9677 -1.3366 -0.4338
 7953TIP3   OH248053   3.342   2.481  10.786 -0.0297  0.1069 -0.2739
 7953TIP3    H148054   3.289   2.534  10.845 -0.1017  0.5314 -0.7172
 7953TIP3    H248055   3.283   2.455  10.715 -0.0753 -0.8207  0.0881
 7954TIP3   OH248056   5.422   2.627   8.120  0.2280  0.0570 -0.3745
 7954TIP3    H148057   5.431   2.712   8.163 -1.2363 -0.6603  1.4727
 7954TIP3    H248058   5.383   2.571   8.187  0.8960 -2.0041 -1.6436
 7955TIP3   OH248059   1.796   1.270   9.172 -0.3055  0.2098 -0.1036
 7955TIP3    H148060   1.818   1.303   9.259 -0.0142 -2.3193  0.8887
 7955TIP3    H248061   1.825   1.338   9.112 -1.6364  2.5945  1.7903
 7956TIP3   OH248062   1.412   0.894   7.920 -0.3499  0.6547  0.6194
 7956TIP3    H148063   1.316   0.889   7.919 -0.3000 -0.5287 -0.2749
 7956TIP3    H248064   1.440   0.812   7.960  0.3106 -0.2016 -1.4396
 7957TIP3   OH248065   2.206   1.595   8.885 -0.2682 -0.3124 -0.2856
 7957TIP3    H148066   2.292   1.554   8.889  0.1198  0.5586  1.4199
 7957TIP3    H248067   2.217   1.668   8.824  0.1009 -0.4458 -0.3815
 7958TIP3   OH248068   3.877   5.507  11.335  0.1332 -0.1789 -0.2976
 7958TIP3    H148069   3.940   5.545  11.395 -0.1690 -0.8348  0.4567
 7958TIP3    H248070   3.878   5.413  11.356  0.7956 -0.5972 -2.0362
 7959TIP3   OH248071   5.277   4.263  10.877  1.1329  0.2320 -0.1342
 7959TIP3    H148072   5.293   4.187  10.821 -1.1672 -1.2131  1.0171
 7959TIP3    H248073   5.326   4.245  10.957  0.9017  0.1196 -0.0140
 7960TIP3   OH248074   6.728   2.307  10.431 -0.7820  0.4110  0.0089
 7960TIP3    H148075   6.667   2.364  10.384 -0.3294 -0.2594 -1.4535
 7960TIP3    H248076   6.814   2.349  10.420 -0.2227 -1.1331 -2.2204
 7961TIP3   OH248077   2.242   4.459  10.542  0.1866 -0.4121 -0.5001
 7961TIP3    H148078   2.333   4.433  10.556  0.1834 -0.9696 -1.3931
 7961TIP3    H248079   2.192   4.377  10.549 -0.1030 -0.2956 -1.1212
 7962TIP3   OH248080   4.350   6.620   8.334  0.3082  0.2600  0.2193
 7962TIP3    H148081   4.275   6.673   8.360  0.6364  1.7846 -1.6508
 7962TIP3    H248082   4.426   6.674   8.355  0.8275 -0.6956  0.8660
 7963TIP3   OH248083   4.683   5.446   8.567  0.0229  0.6312  0.3214
 7963TIP3    H148084   4.674   5.410   8.655  0.4648  0.4229  0.2852
 7963TIP3    H248085   4.718   5.534   8.581 -1.8743  1.3999  0.4545
 7964TIP3   OH248086   0.934   6.004   9.910 -0.1294  0.5488 -0.2959
 7964TIP3    H148087   0.936   5.951   9.830  1.3449  1.6667 -1.0575
 7964TIP3    H248088   0.860   5.969   9.960 -0.7830 -0.5231 -1.9106
 7965TIP3   OH248089   6.265   2.490  10.339  0.1469  0.1960  0.4547
 7965TIP3    H148090   6.208   2.482  10.263  2.0455  2.6833 -1.4460
 7965TIP3    H248091   6.253   2.581  10.367  0.6927 -0.2227  2.1322
 7966TIP3   OH248092   4.523   1.526   8.876  0.8597  0.0942 -0.1529
 7966TIP3    H148093   4.612   1.500   8.849  0.4358 -1.3872 -0.2438
 7966TIP3    H248094   4.466   1.461   8.835  0.0103 -1.0796  2.6358
 7967TIP3   OH248095   3.710   5.737   9.504 -0.1696 -0.5780  0.0994
 7967TIP3    H148096   3.764   5.730   9.425  0.6558  0.5597  0.5269
 7967TIP3    H248097   3.628   5.693   9.481 -0.6519  1.2477 -2.0491
 7968TIP3   OH248098   1.156   3.723   9.355  0.4535  0.0865 -0.2934
 7968TIP3    H148099   1.217   3.792   9.329  1.2627 -0.3805  0.3238
 7968TIP3    H248100   1.133   3.680   9.273 -0.2412  1.2129 -0.7195
 7969TIP3   OH248101   5.715   6.021   8.405  0.3702  0.5559  0.1495
 7969TIP3    H148102   5.799   6.061   8.427  0.6631  0.7035 -1.1586
 7969TIP3    H248103   5.736   5.932   8.380  0.0119  0.3132  0.6930
 7970TIP3   OH248104   2.193   5.754   8.119 -0.5740  0.1919  0.6245
 7970TIP3    H148105   2.268   5.797   8.078  0.6019 -1.0637  1.3856
 7970TIP3    H248106   2.211   5.660   8.109 -2.7367 -0.1674 -0.4113
 7971TIP3   OH248107   1.543   2.142   8.212 -0.5948 -0.4079 -0.3622
 7971TIP3    H148108   1.480   2.071   8.213 -2.5407  1.1568 -1.9951
 7971TIP3    H248109   1.616   2.108   8.160 -0.4227 -1.9637  0.8375
 7972TIP3   OH248110   0.950   4.019   9.945 -0.0444 -0.0837  0.0677
 7972TIP3    H148111   0.919   3.929   9.931  1.2035 -0.8831  2.0561
 7972TIP3    H248112   0.893   4.053  10.014  1.7088 -0.6534  1.8709
 7973TIP3   OH248113   4.801   6.181  10.521  0.9118 -0.3519 -0.2007
 7973TIP3    H148114   4.780   6.274  10.526  0.8573 -0.3739 -0.0396
 7973TIP3    H248115   4.746   6.149  10.449  0.7993 -0.2967 -0.1393
 7974TIP3   OH248116   0.983   3.210  10.051 -0.3916 -0.0632  0.0866
 7974TIP3    H148117   0.915   3.257  10.003 -1.8872 -1.4955  0.7176
 7974TIP3    H248118   0.959   3.219  10.143 -0.3176 -1.4150  0.2650
 7975TIP3   OH248119   1.581   4.084  10.480  0.4947 -0.1016 -0.0670
 7975TIP3    H148120   1.540   4.148  10.538 -1.6523 -0.7252 -0.8402
 7975TIP3    H248121   1.623   4.022  10.539  1.6765  1.3540  0.7053
 7976TIP3   OH248122   1.436   3.293  10.115 -0.6614 -0.1312  0.9878
 7976TIP3    H148123   1.499   3.252  10.056 -1.9347 -0.2515 -0.3306
 7976TIP3    H248124   1.474   3.379  10.134  0.8011 -0.9133  1.7638
 7977TIP3   OH248125   6.610   0.254   8.502 -0.0644  0.3892  0.5020
 7977TIP3    H148126   6.622   0.170   8.546  2.0084  0.6608  0.5671
 7977TIP3    H248127   6.615   0.319   8.572 -0.7477  0.6220  0.3417
 7978TIP3   OH248128   1.483   6.263  10.140 -0.2072  0.1951  0.1194
 7978TIP3    H148129   1.471   6.351  10.103 -0.7125  0.4794  0.9439
 7978TIP3    H248130   1.533   6.278  10.220 -2.1975  0.0003  1.4656
 7979TIP3   OH248131   4.964   6.006   8.982  0.4479 -0.2227  0.2296
 7979TIP3    H148132   4.952   6.022   8.888  0.7305  0.8048  0.3586
 7979TIP3    H248133   5.059   6.016   8.995  0.9518 -3.5853  0.0564
 7980TIP3   OH248134   5.726   0.433   8.282  0.3945  0.6784 -0.1072
 7980TIP3    H148135   5.655   0.393   8.232 -0.5242 -0.9395  2.2971
 7980TIP3    H248136   5.796   0.367   8.281  0.5225  0.8004  0.3612
 7981TIP3   OH248137   6.526   2.914  10.332 -0.4362 -0.0347  0.3099
 7981TIP3    H148138   6.559   2.970  10.262  0.4593 -0.6220  0.2518
 7981TIP3    H248139   6.550   2.959  10.413  1.6494 -1.0279  0.3050
 7982TIP3   OH248140   5.843   3.424   9.488 -0.0588 -0.1536 -0.7464
 7982TIP3    H148141   5.830   3.490   9.420  1.3867  0.9542  0.0076
 7982TIP3    H248142   5.935   3.402   9.483 -0.3407 -1.5026 -0.3981
 7983TIP3   OH248143   5.266   1.037   8.015 -0.2765  0.5738 -0.0555
 7983TIP3    H148144   5.246   1.130   8.022 -1.1444  0.5104 -1.4221
 7983TIP3    H248145   5.191   0.993   8.055 -1.3780  0.4271 -2.1270
 7984TIP3   OH248146   4.732   2.869   9.841  0.6789  0.0641 -0.0393
 7984TIP3    H148147   4.651   2.890   9.793  0.1954  3.3946  1.9332
 7984TIP3    H248148   4.802   2.906   9.788  0.1261  3.9546  1.6320
 7985TIP3   OH248149   5.780   6.425   9.162  0.1688 -0.0516  0.6336
 7985TIP3    H148150   5.695   6.465   9.179 -0.4265 -1.1245  0.1905
 7985TIP3    H248151   5.799   6.446   9.070 -0.4590 -1.3386  0.1961
 7986TIP3   OH248152   5.715   5.169   9.887 -0.1228  0.2510  0.1584
 7986TIP3    H148153   5.801   5.182   9.927  0.8853 -1.6248 -1.2114
 7986TIP3    H248154   5.655   5.162   9.960  1.3660 -1.2964  1.3119
 7987TIP3   OH248155   4.249   3.098   9.502 -0.0879 -0.2541  0.6689
 7987TIP3    H148156   4.266   3.104   9.596  2.0592 -2.0747  0.4789
 7987TIP3    H248157   4.319   3.043   9.469 -1.2862 -0.3552 -1.8978
 7988TIP3   OH248158   0.023   1.637   9.599  0.6686 -0.2290 -0.7857
 7988TIP3    H148159   0.075   1.583   9.538  0.4676  1.2784 -2.3553
 7988TIP3    H248160  -0.058   1.655   9.552 -0.2324 -0.4358  0.6442
 7989TIP3   OH248161   5.422   4.603   9.191  0.6936 -0.0423  0.4974
 7989TIP3    H148162   5.457   4.546   9.122  0.3651 -0.9164  1.0264
 7989TIP3    H248163   5.457   4.566   9.272 -1.3773 -0.9433  1.0559
 7990TIP3   OH248164   1.748   1.595   9.859  0.0565 -0.2141 -0.3180
 7990TIP3    H148165   1.758   1.690   9.859 -1.5471 -0.0164  0.6322
 7990TIP3    H248166   1.797   1.566   9.936 -1.1017  0.0719  0.5517
 7991TIP3   OH248167   3.219   0.273   8.326 -0.0411  0.0477  0.3891
 7991TIP3    H148168   3.275   0.197   8.312  0.5463  0.1394  2.0154
 7991TIP3    H248169   3.252   0.312   8.407 -2.5473  0.0125  1.5137
 7992TIP3   OH248170   2.687   0.442  10.686 -0.9691 -0.8559 -0.0252
 7992TIP3    H148171   2.650   0.368  10.734  0.5849 -2.0672 -0.6069
 7992TIP3    H248172   2.623   0.460  10.617 -0.7516 -2.5949 -0.7378
 7993TIP3   OH248173   5.012   5.539  10.093  0.1302  0.1863 -0.7040
 7993TIP3    H148174   4.958   5.592  10.035  1.6550  2.0306 -0.5723
 7993TIP3    H248175   5.099   5.541  10.052  0.0116 -3.5224 -1.4635
 7994TIP3   OH248176   3.705   4.935   9.850 -0.0725  0.0412  0.6457
 7994TIP3    H148177   3.775   4.998   9.869  1.4777 -1.3903 -0.0183
 7994TIP3    H248178   3.735   4.890   9.771 -2.5148  0.4170 -0.5863
 7995TIP3   OH248179   0.121   1.065  10.111  0.3979  0.0308 -0.2215
 7995TIP3    H148180   0.183   1.082  10.181  0.9708 -1.4358 -0.3289
 7995TIP3    H248181   0.040   1.039  10.156  0.2927  0.5555 -0.0998
 7996TIP3   OH248182   5.007   2.788  10.108  0.3132  0.6818 -0.3358
 7996TIP3    H148183   5.044   2.861  10.059  2.5470  0.3514  0.7355
 7996TIP3    H248184   5.081   2.751  10.156 -1.3086 -0.4496  1.4515
 7997TIP3   OH248185   6.143   6.520   8.705  0.5683  0.2432  0.1072
 7997TIP3    H148186   6.153   6.581   8.631  0.0945  0.2515  0.0513
 7997TIP3    H248187   6.079   6.457   8.675 -0.0407  0.5643  0.7202
 7998TIP3   OH248188   5.104   1.514   9.213 -0.2017  0.1627 -0.4411
 7998TIP3    H148189   5.153   1.541   9.135  1.1387  1.1874  0.6907
 7998TIP3    H248190   5.096   1.594   9.265  0.7585 -0.8723  1.3911
 7999TIP3   OH248191   6.286   5.540  10.280 -0.0060  0.5221 -0.0236
 7999TIP3    H148192   6.307   5.530  10.373 -2.7452  0.8392  0.7272
 7999TIP3    H248193   6.267   5.633  10.269 -2.4663  0.0918 -0.1375
 8000TIP3   OH248194   4.622   1.477   8.056 -0.2099 -0.6414  0.2965
 8000TIP3    H148195   4.630   1.386   8.083  0.5363 -1.3249 -1.9752
 8000TIP3    H248196   4.712   1.509   8.053 -0.2962 -0.4858 -0.9121
 8001TIP3   OH248197   1.160   6.143  10.220 -0.3603  0.3140 -0.4310
 8001TIP3    H148198   1.086   6.200  10.202 -1.5124 -1.4825 -1.7620
 8001TIP3    H248199   1.190   6.115  10.133  0.2516 -0.9602  0.1635
 8002TIP3   OH248200   0.892   5.461   9.046  0.6639  0.0388  0.4237
 8002TIP3    H148201   0.827   5.433   9.110  0.6576  0.4635  0.6058
 8002TIP3    H248202   0.962   5.501   9.097  0.6055  0.4860  0.1623
 8003TIP3   OH248203   3.849   2.658   9.177  0.3300  0.5454  0.1013
 8003TIP3    H148204   3.937   2.691   9.195  0.5044  0.1345 -0.0031
 8003TIP3    H248205   3.862   2.582   9.121  0.1887 -2.1261  3.4110
 8004TIP3   OH248206   6.434   2.540  10.648 -0.0078  1.0306  0.3665
 8004TIP3    H148207   6.408   2.616  10.596  0.9208  0.9559 -0.2143
 8004TIP3    H248208   6.375   2.470  10.619  0.9133  0.8133 -1.0719
 8005TIP3   OH248209   2.102   4.216  10.555  0.3503  0.8179 -0.0838
 8005TIP3    H148210   2.150   4.192  10.635  2.5906  1.5212 -1.1150
 8005TIP3    H248211   2.056   4.137  10.529  1.1790  0.0081  0.8432
 8006TIP3   OH248212   3.806   3.537   9.251  0.2270 -0.5455 -0.5074
 8006TIP3    H148213   3.886   3.490   9.227  0.0831  0.5401 -3.4269
 8006TIP3    H248214   3.829   3.630   9.241 -1.3875 -0.2175 -1.4731
 8007TIP3   OH248215   6.370   6.636   8.813 -0.1411  0.0653 -0.0066
 8007TIP3    H148216   6.297   6.584   8.782 -0.1109 -1.6806  2.5770
 8007TIP3    H248217   6.443   6.611   8.756 -1.1853  0.8978 -1.7978
 8008TIP3   OH248218   0.054   4.702   9.872 -1.0794  0.4604  0.2331
 8008TIP3    H148219   0.100   4.740   9.797 -1.1085  0.6264  0.2974
 8008TIP3    H248220   0.090   4.614   9.881 -1.3517  0.2962 -0.2194
 8009TIP3   OH248221   4.368   1.515   9.757 -0.2182  0.0248 -0.6751
 8009TIP3    H148222   4.281   1.552   9.744  0.1717  1.3446  0.2646
 8009TIP3    H248223   4.364   1.471   9.842  0.7443  2.4994  0.7503
 8010TIP3   OH248224   0.241   5.988   9.591 -0.3565 -0.2226 -0.0687
 8010TIP3    H148225   0.164   6.022   9.546  0.5799  0.2051 -1.3970
 8010TIP3    H248226   0.262   5.907   9.545  0.9493  0.5108 -0.8321
 8011TIP3   OH248227   0.211   4.437   8.099 -0.2681 -0.4585 -0.2229
 8011TIP3    H148228   0.186   4.346   8.081 -0.6467 -0.2951 -0.5258
 8011TIP3    H248229   0.286   4.454   8.041 -0.9920 -0.1807 -1.0946
 8012TIP3   OH248230   1.501   2.219   9.475  0.3492 -0.2743  0.0419
 8012TIP3    H148231   1.452   2.174   9.544  1.4702 -1.5158  0.0632
 8012TIP3    H248232   1.450   2.298   9.457 -1.0921 -0.9938  0.7908
 8013TIP3   OH248233   5.525   0.636  10.210  0.5444  0.3766 -0.2122
 8013TIP3    H148234   5.469   0.669  10.139  0.0515 -0.5934 -0.2884
 8013TIP3    H248235   5.491   0.679  10.289  0.6260  0.8965 -0.4537
 8014TIP3   OH248236   1.677   3.826  10.350  0.1002 -0.4782  0.3109
 8014TIP3    H148237   1.700   3.751  10.405  1.4123 -0.1817  0.2057
 8014TIP3    H248238   1.677   3.791  10.261  1.2698 -0.2565  0.2072
 8015TIP3   OH248239   4.998   4.488  10.780  0.6396  0.5078 -0.2622
 8015TIP3    H148240   4.920   4.538  10.805 -0.6513 -1.7261  0.4278
 8015TIP3    H248241   5.057   4.497  10.855  0.0456  0.2973  0.2454
 8016TIP3   OH248242   1.600   1.552  10.528  0.0834 -0.0830 -0.4172
 8016TIP3    H148243   1.682   1.513  10.559  0.2467 -0.4084 -1.2381
 8016TIP3    H248244   1.555   1.481  10.483 -0.5868  0.1355 -0.0992
 8017TIP3   OH248245   1.366   3.482  10.572  0.1180  0.3359 -0.1434
 8017TIP3    H148246   1.433   3.447  10.513  1.7853 -0.2526  1.9996
 8017TIP3    H248247   1.308   3.407  10.589 -0.2466  0.4527 -0.8327
 8018TIP3   OH248248   5.722   2.525   9.052  0.3798  0.0367 -0.6492
 8018TIP3    H148249   5.771   2.564   8.980  1.2289  1.3646  0.6024
 8018TIP3    H248250   5.785   2.468   9.096 -0.2811 -1.1823 -1.2345
 8019TIP3   OH248251   5.759   3.704   9.040 -0.6907  0.0903  0.1304
 8019TIP3    H148252   5.671   3.740   9.032 -0.5353  0.8675  1.5236
 8019TIP3    H248253   5.816   3.780   9.042  0.0583 -0.4221 -1.0459
 8020TIP3   OH248254   4.633   2.668   8.349 -0.0603  0.1552  0.0939
 8020TIP3    H148255   4.700   2.673   8.281 -0.4696  2.1427 -0.2363
 8020TIP3    H248256   4.562   2.617   8.309  0.8839 -1.2378  0.1434
 8021TIP3   OH248257   2.456   1.358   7.942 -0.1641  0.3554 -0.1357
 8021TIP3    H148258   2.416   1.277   7.909 -0.2787  0.1626  0.4623
 8021TIP3    H248259   2.381   1.414   7.961 -0.0736  0.7478 -0.8902
 8022TIP3   OH248260   6.609   3.417  11.617  0.3031  0.0773 -0.1702
 8022TIP3    H148261   6.674   3.355  11.647  1.1914  1.8505  1.8582
 8022TIP3    H248262   6.657   3.499  11.605 -1.0813  0.7804 -1.2671
 8023TIP3   OH248263   3.557   0.441  10.430  0.0949 -0.1796 -0.5500
 8023TIP3    H148264   3.557   0.381  10.504 -0.8409  1.4058  0.7924
 8023TIP3    H248265   3.619   0.402  10.368  0.5050 -1.8209  0.8167
 8024TIP3   OH248266   0.331   1.621   7.875  0.3649 -0.3652 -0.2915
 8024TIP3    H148267   0.281   1.618   7.794 -1.2089 -0.5182  0.6391
 8024TIP3    H248268   0.332   1.530   7.906  0.1162 -0.1583  0.3428
 8025TIP3   OH248269   1.255   2.757   9.495  0.0153 -0.1327  0.6092
 8025TIP3    H148270   1.318   2.810   9.544 -0.5231 -0.1109  1.2927
 8025TIP3    H248271   1.238   2.807   9.415 -0.0107  0.4148  0.9535
 8026TIP3   OH248272   4.263   0.241   8.412  0.2077 -0.0545  0.1353
 8026TIP3    H148273   4.293   0.299   8.342  2.0369  1.0110  1.7355
 8026TIP3    H248274   4.256   0.297   8.489 -0.8045 -1.4066  1.0836
 8027TIP3   OH248275   4.112   1.959  11.494  0.7026  0.1758 -0.2292
 8027TIP3    H148276   4.093   2.027  11.559 -1.4236 -0.7005  0.1333
 8027TIP3    H248277   4.126   2.007  11.413 -2.2422  1.0685 -0.3246
 8028TIP3   OH248278   2.279   3.478   8.354 -0.0547 -0.4758 -0.2727
 8028TIP3    H148279   2.211   3.427   8.398  1.5018 -1.7446  0.7552
 8028TIP3    H248280   2.361   3.444   8.389  1.1672  0.2715 -2.2659
 8029TIP3   OH248281   3.217   4.009   8.767  0.2545 -0.3525  0.6132
 8029TIP3    H148282   3.272   4.067   8.715  1.1125  0.1618  2.0164
 8029TIP3    H248283   3.195   4.060   8.845 -1.8710 -0.7098  0.3158
 8030TIP3   OH248284   3.084   0.269  10.683 -0.0103  0.2136 -0.4637
 8030TIP3    H148285   3.096   0.361  10.705 -2.0880  0.9297 -2.0085
 8030TIP3    H248286   3.088   0.223  10.767  2.9227  1.4044  0.1669
 8031TIP3   OH248287   6.660   1.043   8.563 -0.6788  0.3673 -0.3724
 8031TIP3    H148288   6.632   1.013   8.477  0.8241 -0.2274 -0.6882
 8031TIP3    H248289   6.755   1.030   8.564 -0.4233  1.9561  0.7496
 8032TIP3   OH248290   4.294   3.483   8.765  0.5289 -0.1985  0.3446
 8032TIP3    H148291   4.244   3.561   8.740  0.3378 -0.6862 -0.8813
 8032TIP3    H248292   4.310   3.437   8.682 -0.3188 -2.0317  1.1311
 8033TIP3   OH248293   4.098   5.604   8.673  0.1627  0.0164 -0.5315
 8033TIP3    H148294   4.169   5.611   8.610 -0.6495  3.2908 -1.2773
 8033TIP3    H248295   4.080   5.694   8.699 -2.2298 -0.8897  1.3388
 8034TIP3   OH248296   2.180   4.113  10.282 -0.0269 -0.2177  0.1464
 8034TIP3    H148297   2.257   4.154  10.244  1.0393 -2.0674  0.2425
 8034TIP3    H248298   2.169   4.158  10.367 -0.4689  1.6297 -0.8324
 8035TIP3   OH248299   5.216   5.920   9.154  0.1227  0.6488  0.7037
 8035TIP3    H148300   5.299   5.945   9.193  1.7065 -2.7208 -0.1741
 8035TIP3    H248301   5.229   5.935   9.060 -0.1081 -0.2262  0.5276
 8036TIP3   OH248302   0.618   0.859   9.516  0.0322 -0.3058  0.3924
 8036TIP3    H148303   0.605   0.787   9.455  1.1109 -0.8743  0.8201
 8036TIP3    H248304   0.679   0.918   9.471 -1.9433  1.1317 -0.5785
 8037TIP3   OH248305   2.739   3.472  10.990 -0.0380 -0.1315 -0.0118
 8037TIP3    H148306   2.833   3.485  11.003 -0.1297  1.1035 -0.5022
 8037TIP3    H248307   2.728   3.466  10.895 -0.5304  0.4198  0.0039
 8038TIP3   OH248308   3.128   6.370   9.175  0.1326 -0.3832  0.3792
 8038TIP3    H148309   3.105   6.378   9.082 -2.1114  1.0438  0.9818
 8038TIP3    H248310   3.215   6.409   9.181  0.5069 -0.9179 -1.1978
 8039TIP3   OH248311   2.704   4.605   8.525  0.0021 -0.4424 -0.0469
 8039TIP3    H148312   2.640   4.600   8.595  1.3567  0.5707  1.3490
 8039TIP3    H248313   2.780   4.557   8.558  1.1832  1.2343 -0.1586
 8040TIP3   OH248314   0.843   3.154  10.765 -0.7094  0.2943 -0.5383
 8040TIP3    H148315   0.819   3.116  10.680 -1.3991 -0.2314 -0.1221
 8040TIP3    H248316   0.939   3.150  10.767 -0.6514  0.8211 -1.5143
 8041TIP3   OH248317   6.415   5.835   8.641 -0.0977 -0.8500  1.1585
 8041TIP3    H148318   6.460   5.762   8.682 -1.2411 -2.0541  0.3269
 8041TIP3    H248319   6.455   5.913   8.680  1.5826 -1.8916  1.5863
 8042TIP3   OH248320   4.467   4.050  10.392 -0.2585 -0.1203 -0.1740
 8042TIP3    H148321   4.493   4.142  10.379  0.3308 -0.3558 -0.7015
 8042TIP3    H248322   4.395   4.036  10.331 -0.6579  0.1227  0.2408
 8043TIP3   OH248323   2.576   1.267   9.030 -0.5458  0.1151 -0.1028
 8043TIP3    H148324   2.663   1.253   9.069 -1.9482 -1.0494  2.9224
 8043TIP3    H248325   2.537   1.180   9.029 -1.6554  0.6042 -1.5766
 8044TIP3   OH248326   1.134   2.417   8.137 -0.6413  0.3026 -0.1428
 8044TIP3    H148327   1.185   2.372   8.204  0.4384  1.4375 -0.1648
 8044TIP3    H248328   1.054   2.445   8.182  0.0857  1.0898  0.6961
 8045TIP3   OH248329   0.206   5.073   9.070  0.0158  0.4529  0.1178
 8045TIP3    H148330   0.133   5.133   9.088 -0.3244  0.5075 -1.3276
 8045TIP3    H248331   0.189   5.040   8.982  2.6553  1.8182 -1.0144
 8046TIP3   OH248332   4.783   0.798   9.550 -0.5073 -0.4926  0.0422
 8046TIP3    H148333   4.769   0.887   9.583 -0.3953 -0.4968  0.0998
 8046TIP3    H248334   4.721   0.790   9.477 -0.6484 -0.4326  0.1543
 8047TIP3   OH248335   5.248   6.417   9.985 -0.6176 -0.3421  0.5754
 8047TIP3    H148336   5.240   6.322   9.997 -2.2183 -0.3189 -0.0569
 8047TIP3    H248337   5.316   6.427   9.919 -0.8940 -1.1019  0.1628
 8048TIP3   OH248338   6.099   1.072   9.682  0.4748  0.1405  0.8021
 8048TIP3    H148339   6.128   1.004   9.743 -2.0541 -1.5739  0.2785
 8048TIP3    H248340   6.036   1.027   9.625 -1.3873  2.9402  0.4651
 8049TIP3   OH248341   1.931   5.618   9.971  0.2874  0.7057  0.4000
 8049TIP3    H148342   2.000   5.642   9.909  1.3271 -1.8625  0.4138
 8049TIP3    H248343   1.961   5.654  10.055 -0.2133  2.6175 -0.1958
 8050TIP3   OH248344   3.224   5.228   8.659  0.0287  0.2759  0.2589
 8050TIP3    H148345   3.171   5.288   8.607 -1.2088 -1.0937 -0.1405
 8050TIP3    H248346   3.267   5.172   8.594 -0.1793 -0.3506  0.6497
 8051TIP3   OH248347   0.994   1.129  10.340  0.1087 -0.0446  0.3132
 8051TIP3    H148348   1.066   1.160  10.285  0.7680 -1.7205  0.1895
 8051TIP3    H248349   0.940   1.077  10.281 -0.2541 -0.2262  0.8072
 8052TIP3   OH248350   5.480   5.551   9.739  0.4660 -0.3498  0.0792
 8052TIP3    H148351   5.565   5.561   9.695  0.3936 -2.2244 -0.6046
 8052TIP3    H248352   5.416   5.582   9.675  0.5476 -0.3225  0.0107
 8053TIP3   OH248353   5.602   4.906   8.717 -0.1912 -0.7878 -0.2866
 8053TIP3    H148354   5.630   4.992   8.748 -2.4776  0.7203 -2.0894
 8053TIP3    H248355   5.529   4.883   8.774  1.6915 -2.6255  1.5487
 8054TIP3   OH248356   2.096   6.289   8.688 -0.8577 -0.4864 -0.4478
 8054TIP3    H148357   2.063   6.227   8.622  1.2056 -0.3101 -1.7151
 8054TIP3    H248358   2.087   6.375   8.647 -0.5185 -0.2766 -0.0885
 8055TIP3   OH248359   1.980   5.523   8.615  0.4781  0.0857 -0.4019
 8055TIP3    H148360   1.930   5.500   8.694  1.6323  0.1872  0.3823
 8055TIP3    H248361   1.949   5.611   8.593  0.6102  0.3222  0.3311
 8056TIP3   OH248362   1.649   5.901   9.598 -0.1443  0.0750  0.2788
 8056TIP3    H148363   1.725   5.938   9.643  2.2348 -1.2181 -2.3849
 8056TIP3    H248364   1.609   5.975   9.553  0.8356  0.4368 -0.0180
 8057TIP3   OH248365   3.417   5.042   8.875 -0.1301  0.6303 -0.3702
 8057TIP3    H148366   3.333   5.002   8.898 -0.3227  0.0735 -1.9460
 8057TIP3    H248367   3.425   5.117   8.934 -1.6205  0.5640 -0.0467
 8058TIP3   OH248368   2.048   0.644   8.455  0.0713  0.5475 -0.0661
 8058TIP3    H148369   2.132   0.682   8.479 -0.2196  1.5223 -0.5357
 8058TIP3    H248370   2.009   0.617   8.538  0.6271  0.5529  0.2023
 8059TIP3   OH248371   1.661   6.075  10.015 -0.1291  0.0781 -0.4296
 8059TIP3    H148372   1.663   6.097   9.922 -0.0802  1.3553 -0.1449
 8059TIP3    H248373   1.583   6.119  10.048  1.2981  1.9599  0.6521
 8060TIP3   OH248374   6.219   4.000   9.038  0.0306  0.5509 -0.3168
 8060TIP3    H148375   6.272   3.921   9.044  1.0675  1.2744  0.2157
 8060TIP3    H248376   6.212   4.017   8.944  0.8357  0.5116 -0.3893
 8061TIP3   OH248377   2.433   6.627   8.047 -0.1744  0.3455  0.5263
 8061TIP3    H148378   2.356   6.603   7.997  0.0582 -1.2583  0.8995
 8061TIP3    H248379   2.499   6.561   8.025  0.8815  1.2839  0.7325
 8062TIP3   OH248380   2.952   0.318   8.390 -0.1113  0.4553  1.0931
 8062TIP3    H148381   3.039   0.317   8.351 -0.9455  0.6146 -0.9125
 8062TIP3    H248382   2.962   0.366   8.472  1.6724  0.4846  0.8827
 8063TIP3   OH248383   6.093   3.269  10.913 -0.2893 -0.0877 -0.5404
 8063TIP3    H148384   6.187   3.260  10.899 -0.4211 -1.7145 -0.5788
 8063TIP3    H248385   6.078   3.237  11.002 -0.7080  0.9726 -0.2190
 8064TIP3   OH248386   0.103   1.010  11.031 -0.6256 -0.2322  0.7935
 8064TIP3    H148387   0.022   0.960  11.018 -0.4481  0.0540 -1.8228
 8064TIP3    H248388   0.075   1.086  11.082 -2.2630  0.4038 -0.9566
 8065TIP3   OH248389   5.420   1.408   9.468 -0.3132 -0.2697  0.0862
 8065TIP3    H148390   5.446   1.500   9.458 -3.1386  0.5140 -0.9180
 8065TIP3    H248391   5.416   1.395   9.563 -0.4816  0.8563  0.2500
 8066TIP3   OH248392   4.150   2.590  11.225 -0.4888 -0.1263  0.0533
 8066TIP3    H148393   4.232   2.622  11.189 -0.4296 -2.6094 -2.3296
 8066TIP3    H248394   4.178   2.529  11.294 -0.4459  0.6062  0.7024
 8067TIP3   OH248395   3.889   0.388   9.791  0.1875  0.0534  0.0317
 8067TIP3    H148396   3.837   0.319   9.748  0.7544 -0.9987  1.0040
 8067TIP3    H248397   3.824   0.454   9.817 -0.6135 -0.9747  0.7189
 8068TIP3   OH248398   5.854   4.923   9.580 -0.4258 -0.2243  0.1225
 8068TIP3    H148399   5.773   4.941   9.627 -1.2712 -1.6206 -0.7276
 8068TIP3    H248400   5.914   4.892   9.648 -0.4170  1.2681  0.8307
 8069TIP3   OH248401   6.351   4.280   8.370  0.0493  0.2088 -0.1694
 8069TIP3    H148402   6.297   4.351   8.405  0.0606  0.6082 -0.9413
 8069TIP3    H248403   6.343   4.288   8.275  0.3326 -0.6102 -0.2741
 8070TIP3   OH248404   2.497   5.583   8.216 -0.1010  0.3943 -0.1193
 8070TIP3    H148405   2.402   5.577   8.208 -0.1927 -0.3540  1.1905
 8070TIP3    H248406   2.528   5.493   8.214  0.6513  0.6615 -1.1347
 8071TIP3   OH248407   3.051   1.543   8.300  0.3566 -0.0100 -0.7435
 8071TIP3    H148408   3.004   1.492   8.234 -0.7076 -0.6462  0.4705
 8071TIP3    H248409   3.028   1.634   8.280 -1.4449 -0.3019 -0.1960
 8072TIP3   OH248410   6.625   4.080   9.912  0.1297 -0.0819 -0.4019
 8072TIP3    H148411   6.610   4.151   9.850  3.1170  0.5055 -0.6148
 8072TIP3    H248412   6.607   4.000   9.863  0.7862  0.4395 -1.5210
 8073TIP3   OH248413   4.678   5.184   8.785 -0.0371  0.0156  0.4633
 8073TIP3    H148414   4.657   5.249   8.852 -0.2802  0.2045  0.2075
 8073TIP3    H248415   4.773   5.191   8.773 -0.1400  0.6946  0.0557
 8074TIP3   OH248416   4.226   5.195   9.257 -0.5169  0.3319 -0.6985
 8074TIP3    H148417   4.304   5.185   9.203 -1.9013  0.9396 -2.8938
 8074TIP3    H248418   4.204   5.105   9.282 -0.4819 -0.0839 -2.0905
 8075TIP3   OH248419   4.816   4.925   9.546  0.3789 -0.2235 -0.0448
 8075TIP3    H148420   4.885   4.990   9.559  2.6166 -2.7702  2.1666
 8075TIP3    H248421   4.751   4.944   9.614 -0.0454  0.8700 -0.7304
 8076TIP3   OH248422   0.862   0.160   9.662 -0.2020  0.3204 -0.4895
 8076TIP3    H148423   0.907   0.082   9.630 -0.5029  0.2813 -0.8176
 8076TIP3    H248424   0.904   0.233   9.616  0.0557  0.3540 -0.2084
 8077TIP3   OH248425   4.588   4.817  10.807  0.0734 -0.3012 -0.0465
 8077TIP3    H148426   4.537   4.895  10.784  0.1122  0.1074  1.1927
 8077TIP3    H248427   4.568   4.801  10.899 -0.5500 -2.2508 -0.4775
 8078TIP3   OH248428   5.132   1.992  10.765  0.5639  0.6966 -0.0030
 8078TIP3    H148429   5.172   2.068  10.806 -0.3969  0.3037  1.7515
 8078TIP3    H248430   5.177   1.917  10.805 -0.7581  0.2915  0.7838
 8079TIP3   OH248431   1.851   3.525   8.946 -0.3784 -0.7508 -0.0451
 8079TIP3    H148432   1.834   3.452   9.005 -0.5512 -1.2241 -0.6618
 8079TIP3    H248433   1.852   3.485   8.859 -0.5385 -0.0066 -0.3959
 8080TIP3   OH248434   6.634   5.904  11.171  0.3860 -0.1174 -0.1372
 8080TIP3    H148435   6.723   5.932  11.152  1.4314 -3.0544 -0.0342
 8080TIP3    H248436   6.594   5.890  11.085 -0.3624  2.0729 -0.2059
 8081TIP3   OH248437   2.273   3.605   8.699  0.6636  0.1831  0.5998
 8081TIP3    H148438   2.198   3.585   8.643  1.1092 -0.2772  0.1508
 8081TIP3    H248439   2.239   3.665   8.765 -0.1740 -0.2847  0.6027
 8082TIP3   OH248440   5.091   0.814  10.975 -0.0221 -0.0410 -0.0721
 8082TIP3    H148441   5.159   0.802  11.041  1.5479 -0.4428 -1.6970
 8082TIP3    H248442   5.100   0.906  10.948 -3.1544  1.3824  2.7825
 8083TIP3   OH248443   6.161   4.910   8.622 -0.4141 -0.1126  0.5569
 8083TIP3    H148444   6.075   4.924   8.662 -0.7869 -0.5985 -0.0632
 8083TIP3    H248445   6.219   4.894   8.696 -0.8360  0.3033  0.9900
 8084TIP3   OH248446   5.227   5.130   9.352  0.3784 -0.4216  0.5686
 8084TIP3    H148447   5.263   5.066   9.414 -2.0027 -0.3862  2.0916
 8084TIP3    H248448   5.182   5.077   9.286  0.6034 -0.3730  0.3732
 8085TIP3   OH248449   0.897   4.834  10.298 -0.0162 -0.0879 -0.0562
 8085TIP3    H148450   0.972   4.867  10.349  0.6654 -1.1500 -0.3491
 8085TIP3    H248451   0.901   4.884  10.217  0.7616 -0.5596 -0.3248
 8086TIP3   OH248452   1.261   3.580   7.816  0.2555 -0.3337 -0.2125
 8086TIP3    H148453   1.349   3.610   7.794  0.5165 -0.0553  1.1183
 8086TIP3    H248454   1.218   3.656   7.853 -1.1390 -0.0041 -2.3092
 8087TIP3   OH248455   5.478   1.497  10.863 -0.3737 -0.3339  0.1639
 8087TIP3    H148456   5.477   1.550  10.783 -0.0812  0.8353  0.9019
 8087TIP3    H248457   5.426   1.420  10.842 -0.0817 -0.1757 -1.2303
 8088TIP3   OH248458   1.512   3.303   8.001  0.7592  0.4103  0.4801
 8088TIP3    H148459   1.573   3.336   7.935  0.3788  0.0752 -0.0476
 8088TIP3    H248460   1.500   3.210   7.979  0.1814  0.4351  0.6654
 8089TIP3   OH248461   6.123   3.578  10.706  0.3886  0.0828  0.5153
 8089TIP3    H148462   6.058   3.512  10.682  1.6667 -0.7905 -0.7334
 8089TIP3    H248463   6.205   3.544  10.670  1.4896  1.2878  1.7912
 8090TIP3   OH248464   5.814   1.172   8.860  0.4525 -0.2065 -0.0961
 8090TIP3    H148465   5.836   1.165   8.767  1.1575  0.2798  0.0223
 8090TIP3    H248466   5.810   1.081   8.890 -1.7283 -0.4714 -1.0108
 8091TIP3   OH248467   5.007   2.377  11.079  0.0176  0.1827 -0.3445
 8091TIP3    H148468   4.920   2.411  11.100 -0.8659 -1.9324 -0.3374
 8091TIP3    H248469   5.058   2.391  11.159 -1.0912 -0.8653  0.5839
 8092TIP3   OH248470   5.518   5.862   9.027 -0.7268 -0.5515 -0.2390
 8092TIP3    H148471   5.506   5.938   9.083 -1.3808  1.0794 -2.4678
 8092TIP3    H248472   5.608   5.834   9.042  0.2930  2.0950 -0.9955
 8093TIP3   OH248473   0.453   0.741  11.323 -0.6751 -0.2988  0.4536
 8093TIP3    H148474   0.544   0.740  11.353 -0.1960 -1.6249 -0.8955
 8093TIP3    H248475   0.420   0.654  11.345 -1.2346 -0.2525 -0.1861
 8094TIP3   OH248476   2.487   2.473   9.532  0.5855 -0.0635  0.0541
 8094TIP3    H148477   2.497   2.427   9.448 -1.5489 -0.8245  0.1453
 8094TIP3    H248478   2.451   2.406   9.591 -1.0448  1.2835  0.6540
 8095TIP3   OH248479   4.617   1.270   9.666  0.1238 -0.1931 -0.4007
 8095TIP3    H148480   4.561   1.305   9.734 -1.3383 -1.9252 -0.6177
 8095TIP3    H248481   4.700   1.316   9.676 -0.4691  0.5129  1.6880
 8096TIP3   OH248482   6.508   1.135   9.704 -0.3476  0.1991 -0.2244
 8096TIP3    H148483   6.446   1.196   9.744 -0.3777 -0.6135  1.0396
 8096TIP3    H248484   6.491   1.052   9.749  2.0192  0.0699  0.5846
 8097TIP3   OH248485   5.690   2.188   8.751  0.6371  0.1175 -0.2714
 8097TIP3    H148486   5.665   2.096   8.750 -0.6806  0.4528 -0.9116
 8097TIP3    H248487   5.654   2.221   8.834 -0.0547  0.3294 -0.6427
 8098TIP3   OH248488   2.908   6.288   9.312 -0.3708  0.3299 -0.1758
 8098TIP3    H148489   2.996   6.322   9.295  0.1465 -0.1793  1.3080
 8098TIP3    H248490   2.850   6.344   9.260  0.5611  2.6392  1.1154
 8099TIP3   OH248491   1.371   2.887   7.804 -0.2748 -0.1374 -0.3152
 8099TIP3    H148492   1.407   2.799   7.811  0.6199  0.0668 -1.7314
 8099TIP3    H248493   1.277   2.876   7.813 -0.1104 -1.1257  0.2997
 8100TIP3   OH248494   5.799   0.245   9.315  0.3920 -0.2806 -0.4690
 8100TIP3    H148495   5.742   0.200   9.252 -0.6332 -0.3854  0.4899
 8100TIP3    H248496   5.876   0.189   9.320  0.3446 -0.4497 -1.3683
 8101TIP3   OH248497   4.567   4.375   8.819 -0.6138 -0.3311 -0.1977
 8101TIP3    H148498   4.507   4.392   8.892  0.2947  0.1042  0.4670
 8101TIP3    H248499   4.543   4.441   8.754  0.7058  1.5170  1.0518
 8102TIP3   OH248500   5.114   4.245  10.578  0.3120  0.0599 -0.4169
 8102TIP3    H148501   5.092   4.324  10.628  0.2400  0.4163 -0.9952
 8102TIP3    H248502   5.155   4.278  10.498  0.6893 -0.5118 -0.4692
 8103TIP3   OH248503   5.432   0.530   9.421 -0.1291  0.5617 -0.1528
 8103TIP3    H148504   5.348   0.519   9.464 -1.1749  2.0527 -1.6844
 8103TIP3    H248505   5.428   0.469   9.346  0.4004  0.2362  0.0754
 8104TIP3   OH248506   0.603   4.705   9.513 -0.5879 -0.2569 -0.0431
 8104TIP3    H148507   0.673   4.753   9.558 -0.5071  0.6580 -1.0982
 8104TIP3    H248508   0.533   4.699   9.577  0.5050 -1.3302  1.0951
 8105TIP3   OH248509   3.294   3.958  10.319 -0.3035  0.1956 -0.0195
 8105TIP3    H148510   3.293   4.054  10.324  0.3719  0.4100 -2.5977
 8105TIP3    H248511   3.206   3.935  10.288 -0.4718 -0.0312  0.6181
 8106TIP3   OH248512   2.897   3.417   8.088 -0.4386 -0.3403 -0.0415
 8106TIP3    H148513   2.825   3.462   8.045  0.2145 -0.7739 -1.6363
 8106TIP3    H248514   2.956   3.391   8.017  1.3369  0.0745  1.2178
 8107TIP3   OH248515   3.194   6.660  10.336  0.4471 -0.3567  0.0104
 8107TIP3    H148516   3.142   6.661  10.256  1.9925 -0.4454 -1.0331
 8107TIP3    H248517   3.234   6.573  10.337  0.5110 -0.3210  0.8323
 8108TIP3   OH248518   2.331   0.408   8.605 -0.1936 -0.3138  0.0753
 8108TIP3    H148519   2.420   0.399   8.639 -0.3154 -1.2462  0.1639
 8108TIP3    H248520   2.299   0.319   8.596 -0.4883 -0.0752 -1.6714
 8109TIP3   OH248521   1.316   2.099   9.650 -0.4320  0.6637  0.5814
 8109TIP3    H148522   1.331   2.082   9.743 -0.5335 -0.7785  0.3576
 8109TIP3    H248523   1.231   2.144   9.647 -1.1630 -0.6345  1.0929
 8110TIP3   OH248524   1.099   0.458   9.351  0.1772 -0.3447 -0.0205
 8110TIP3    H148525   1.124   0.550   9.338  1.5539 -0.4111  1.8988
 8110TIP3    H248526   1.181   0.412   9.367 -0.7688 -1.1938  3.0129
 8111TIP3   OH248527   0.121   1.368   8.168 -0.1337 -0.4799 -0.7116
 8111TIP3    H148528   0.148   1.277   8.182 -0.5904 -0.6304 -0.7821
 8111TIP3    H248529   0.175   1.398   8.094  0.5361 -0.4567 -0.2217
 8112TIP3   OH248530   1.531   3.987   9.444 -0.6322 -0.3637  0.4251
 8112TIP3    H148531   1.466   3.992   9.514 -1.7970  2.5588 -0.7030
 8112TIP3    H248532   1.497   3.920   9.384 -1.7115 -0.0971  0.7196
 8113TIP3   OH248533   4.731   2.155   9.916  0.1337 -0.0035  0.2750
 8113TIP3    H148534   4.802   2.141   9.979  2.1002  0.4217 -1.7289
 8113TIP3    H248535   4.686   2.233   9.948 -1.1815 -1.7319  3.0100
 8114TIP3   OH248536   5.945   1.386   9.624 -0.3459 -0.2220 -0.0877
 8114TIP3    H148537   5.940   1.291   9.618  0.1238 -0.2267 -0.5030
 8114TIP3    H248538   5.934   1.417   9.534  1.3897  0.0083 -0.2639
 8115TIP3   OH248539   2.701   2.835   9.481 -0.4178 -0.1532 -0.1051
 8115TIP3    H148540   2.713   2.756   9.534 -1.4499  0.0042  0.4008
 8115TIP3    H248541   2.739   2.905   9.534 -1.9012  0.0853  0.7170
 8116TIP3   OH248542   3.770   4.737  10.882 -0.0740  0.0049 -0.1292
 8116TIP3    H148543   3.792   4.790  10.958  1.2751 -0.2286 -0.3420
 8116TIP3    H248544   3.766   4.800  10.809 -0.5371  0.1080 -0.0160
 8117TIP3   OH248545   1.747   2.160  10.751 -0.1951  0.4635  0.0569
 8117TIP3    H148546   1.719   2.094  10.688 -1.2857  1.3031 -0.3801
 8117TIP3    H248547   1.699   2.139  10.831 -0.6439  0.7915 -0.1220
 8118TIP3   OH248548   4.133   1.961   9.670  0.3024 -0.1005  0.0805
 8118TIP3    H148549   4.084   2.025   9.721  2.3795  1.5002  0.1695
 8118TIP3    H248550   4.088   1.959   9.585 -1.1932 -0.3386  0.8402
 8119TIP3   OH248551   1.923   0.892   9.291  0.1531  0.3932 -0.3695
 8119TIP3    H148552   1.932   0.797   9.297  2.6249  0.6464  2.0141
 8119TIP3    H248553   1.999   0.920   9.240  0.7919  1.2122  0.9810
 8120TIP3   OH248554   0.556   5.144  10.294  0.5303  1.2191 -0.2197
 8120TIP3    H148555   0.588   5.091  10.367  0.5027 -0.3824 -1.3038
 8120TIP3    H248556   0.523   5.080  10.231 -1.3752  2.6477 -0.7567
 8121TIP3   OH248557   0.700   1.233   7.579 -0.7887  0.3071  0.0295
 8121TIP3    H148558   0.777   1.290   7.571 -0.8095  0.2030 -1.1643
 8121TIP3    H248559   0.736   1.144   7.582 -0.8645  0.2111 -1.2643
 8122TIP3   OH248560   5.852   4.065  16.616 -0.2127  0.1573  0.3693
 8122TIP3    H148561   5.759   4.077  16.634  0.0156  0.8565  1.1782
 8122TIP3    H248562   5.886   4.020  16.693  0.0645 -0.3720 -0.0577
 8123TIP3   OH248563   1.080   2.000   8.076  0.5024  0.0818  0.2251
 8123TIP3    H148564   1.023   1.998   8.000  1.5902 -0.4511 -0.5964
 8123TIP3    H248565   1.067   1.915   8.119 -0.3086  0.4853  0.7991
 8124TIP3   OH248566   6.660   2.648  10.778 -0.9117  0.0873  0.2985
 8124TIP3    H148567   6.614   2.691  10.850 -0.0837  1.2818  0.1269
 8124TIP3    H248568   6.589   2.608  10.726 -1.8509  2.3671 -0.2754
 8125TIP3   OH248569   1.931   2.939  10.018  0.0098 -0.6118 -0.2356
 8125TIP3    H148570   1.836   2.944  10.007  0.1253  0.0142 -1.0474
 8125TIP3    H248571   1.962   2.900   9.936  0.5001 -0.3005 -0.2000
 8126TIP3   OH248572   0.712   3.780  11.134 -0.2755  0.0803 -0.7432
 8126TIP3    H148573   0.750   3.693  11.124  1.0577  0.7986 -2.3333
 8126TIP3    H248574   0.709   3.794  11.229 -1.4171 -2.0392 -0.4012
 8127TIP3   OH248575   2.775   6.409  10.313  0.3101  0.2868  0.0670
 8127TIP3    H148576   2.787   6.336  10.374  1.4070  0.8896  0.6018
 8127TIP3    H248577   2.785   6.487  10.367  0.9233  0.8349 -0.8110
 8128TIP3   OH248578   6.089   4.453   8.954 -0.1828 -0.6513 -0.0390
 8128TIP3    H148579   6.106   4.465   9.048 -0.9509  1.6305 -0.1236
 8128TIP3    H248580   5.994   4.455   8.946 -0.1135 -0.2159 -0.9040
 8129TIP3   OH248581   4.952   4.209  10.332  0.9426  0.3232  0.4035
 8129TIP3    H148582   4.946   4.190  10.426 -0.2975  0.9779  0.4806
 8129TIP3    H248583   4.906   4.292  10.322  0.6546  0.0318 -0.8625
 8130TIP3   OH248584   4.153   3.181  10.702 -0.2495  0.1163 -0.4590
 8130TIP3    H148585   4.059   3.198  10.701 -0.7136 -2.0516  0.5296
 8130TIP3    H248586   4.174   3.166  10.794  0.7395 -1.0579 -0.8546
 8131TIP3   OH248587   1.812   2.240   8.643  0.0933 -0.6125 -0.0523
 8131TIP3    H148588   1.721   2.229   8.613 -0.1140  0.5522  0.1296
 8131TIP3    H248589   1.865   2.207   8.570 -0.4475  0.2716 -0.8610
 8132TIP3   OH248590   1.884   6.712  10.733  0.2892 -0.2586 -0.7586
 8132TIP3    H148591   1.921   6.797  10.708  1.4712 -0.2899  0.7725
 8132TIP3    H248592   1.847   6.727  10.820  0.4712 -1.3104 -0.4904
 8133TIP3   OH248593   4.505   2.455  11.213  0.1861  0.6337  0.1414
 8133TIP3    H148594   4.576   2.465  11.276  2.0081 -0.7947 -1.5570
 8133TIP3    H248595   4.444   2.394  11.254  0.6317  0.7903  1.0549
 8134TIP3   OH248596   3.154   2.884  17.821 -0.2531  0.3891  0.4726
 8134TIP3    H148597   3.097   2.875  17.744  1.0934 -1.3313 -0.3717
 8134TIP3    H248598   3.097   2.861  17.895 -1.2546  0.9203 -0.1079
 8135TIP3   OH248599   2.955   3.326   9.298 -0.0370  0.4016 -0.0177
 8135TIP3    H148600   2.869   3.285   9.286  1.4712 -3.1907  0.0681
 8135TIP3    H248601   2.983   3.352   9.211 -1.2046  1.6939 -0.0303
 8136TIP3   OH248602   4.041   5.871   8.728  0.0958  0.0969  0.4911
 8136TIP3    H148603   4.028   5.925   8.806  0.1924  1.7271 -0.5704
 8136TIP3    H248604   3.954   5.868   8.687  0.6961  2.1423 -1.0865
 8137TIP3   OH248605   3.762   5.316  10.463  0.3209 -0.1215 -0.1965
 8137TIP3    H148606   3.696   5.282  10.524  0.2032  1.5374  0.6463
 8137TIP3    H248607   3.845   5.283  10.497  0.1968  0.2708  0.4957
 8138TIP3   OH248608   3.515   2.869   8.785 -0.4163  0.7824 -0.2894
 8138TIP3    H148609   3.448   2.862   8.854  1.0924 -0.3647  1.1325
 8138TIP3    H248610   3.563   2.950   8.806  2.4285 -1.3670  2.4037
 8139TIP3   OH248611   5.907   5.032   9.329  0.3263  0.3267 -0.0595
 8139TIP3    H148612   5.850   4.983   9.270  0.2313  1.9739 -1.4023
 8139TIP3    H248613   5.893   4.991   9.415 -1.7697 -0.2520 -0.6152
 8140TIP3   OH248614   2.880   4.302   9.360 -0.0392 -0.0917 -0.2018
 8140TIP3    H148615   2.887   4.283   9.454  2.0993 -0.7872 -0.4609
 8140TIP3    H248616   2.901   4.219   9.318  3.1695  1.1336 -1.3091
 8141TIP3   OH248617   1.334   5.642   9.346 -0.2722  0.5295 -0.2350
 8141TIP3    H148618   1.361   5.715   9.291  1.6365  2.2430  2.6680
 8141TIP3    H248619   1.413   5.589   9.355  0.1341  1.4224  2.3172
 8142TIP3   OH248620   6.148   5.883   9.339  0.0564  0.0801  0.4761
 8142TIP3    H148621   6.136   5.945   9.411  0.2559  1.7269 -0.8534
 8142TIP3    H248622   6.070   5.893   9.285 -0.0315 -1.0465  0.3641
 8143TIP3   OH248623   1.708   0.430   9.357 -0.1181 -0.0339 -0.4651
 8143TIP3    H148624   1.781   0.380   9.320  0.3359  0.5450 -0.3803
 8143TIP3    H248625   1.630   0.391   9.319  0.3318  0.5656 -2.1166
 8144TIP3   OH248626   1.658   1.368   7.989 -0.2229 -0.2997 -0.5859
 8144TIP3    H148627   1.740   1.336   8.028  1.0279  0.4118 -2.4824
 8144TIP3    H248628   1.607   1.289   7.973 -0.7277 -0.6384  2.2227
 8145TIP3   OH248629   1.256   0.434  10.059  0.6363  1.0752  0.2826
 8145TIP3    H148630   1.303   0.464   9.981  1.0145  2.2168  0.9309
 8145TIP3    H248631   1.180   0.388  10.024  1.5286  0.3314 -0.7761
 8146TIP3   OH248632   1.995   0.379  10.117  0.3699 -0.2153 -0.1495
 8146TIP3    H148633   2.071   0.435  10.103 -0.4167  1.0054  0.3000
 8146TIP3    H248634   2.018   0.327  10.194  0.6013  0.4246  0.2222
 8147TIP3   OH248635   0.016   0.848   9.449  0.4165 -0.0626  0.2942
 8147TIP3    H148636   0.097   0.800   9.466  0.4214 -0.0075  0.4278
 8147TIP3    H248637  -0.034   0.840   9.530  0.8307  0.9726  0.6738
 8148TIP3   OH248638   6.236   0.434   8.842 -1.0048  0.1317 -0.2574
 8148TIP3    H148639   6.290   0.361   8.874  0.2306  1.5932  1.1965
 8148TIP3    H248640   6.288   0.473   8.772  0.3572  2.0315  1.6719
 8149TIP3   OH248641   3.453   3.136   8.524 -0.1875 -0.0543 -0.0692
 8149TIP3    H148642   3.378   3.083   8.550  0.7896 -0.2999  2.5932
 8149TIP3    H248643   3.520   3.073   8.498 -0.5814  0.1218 -1.5498
 8150TIP3   OH248644   5.931   2.496   9.236 -0.6423 -0.1576 -0.1845
 8150TIP3    H148645   6.005   2.496   9.175 -0.5593 -0.5633 -0.0798
 8150TIP3    H248646   5.961   2.446   9.311 -1.2408 -0.8684 -0.4112
 8151TIP3   OH248647   5.399   3.160  11.121  0.0121  0.4398 -0.0501
 8151TIP3    H148648   5.333   3.220  11.084 -1.4037 -1.1347 -0.1866
 8151TIP3    H248649   5.408   3.189  11.212 -0.8171  0.7376 -0.0507
 8152TIP3   OH248650   1.791   3.174   8.702 -0.3131  0.0118  0.1946
 8152TIP3    H148651   1.747   3.112   8.643 -0.3683  0.1101  0.1322
 8152TIP3    H248652   1.720   3.223   8.742 -0.2155  1.6679 -1.5271
 8153TIP3   OH248653   4.821   0.411   9.428  0.1128 -0.1099  0.3121
 8153TIP3    H148654   4.754   0.478   9.440 -0.0962  0.2775 -2.2867
 8153TIP3    H248655   4.795   0.340   9.485 -1.1998  0.9628  1.1049
 8154TIP3   OH248656   4.597   0.457   9.826 -0.0994 -0.1108  0.6935
 8154TIP3    H148657   4.613   0.388   9.890 -1.3916 -1.9619 -0.8290
 8154TIP3    H248658   4.521   0.426   9.776 -1.2756  2.8332  0.4317
 8155TIP3   OH248659   6.065   6.269  10.286  0.2751  0.2453 -0.1046
 8155TIP3    H148660   6.007   6.255  10.361  0.6457 -2.2926 -0.2073
 8155TIP3    H248661   6.146   6.302  10.324 -0.1975  0.8747  0.3753
 8156TIP3   OH248662   1.485   4.177   8.782 -0.3872  0.4534  0.1024
 8156TIP3    H148663   1.579   4.161   8.791 -0.4942 -0.0608  0.3521
 8156TIP3    H248664   1.461   4.224   8.863 -0.5468 -0.3932  0.5586
 8157TIP3   OH248665   2.081   2.145   8.707 -0.6769 -0.0057  0.9519
 8157TIP3    H148666   1.993   2.181   8.722 -0.4210  0.9659  0.1890
 8157TIP3    H248667   2.068   2.077   8.641 -0.6357  1.3113 -0.4627
 8158TIP3   OH248668   0.728   1.731   7.556  0.0092 -0.0274 -0.0499
 8158TIP3    H148669   0.788   1.771   7.618 -0.9413  1.6793 -0.1545
 8158TIP3    H248670   0.641   1.759   7.585 -0.6716 -1.5446 -0.5143
 8159TIP3   OH248671   1.377   5.550   8.202 -0.4754  0.2883 -0.3872
 8159TIP3    H148672   1.295   5.563   8.155  0.4256  0.4116 -2.0102
 8159TIP3    H248673   1.444   5.584   8.143  0.8028 -0.3432  0.6399
 8160TIP3   OH248674   5.371   1.911   9.338  0.1610 -0.3726  0.8472
 8160TIP3    H148675   5.385   1.849   9.409 -0.4081 -0.0934  1.2139
 8160TIP3    H248676   5.292   1.958   9.363 -0.6520 -0.9733 -0.4633
 8161TIP3   OH248677   1.098   6.618   8.461  0.3051  0.0865  0.3037
 8161TIP3    H148678   1.134   6.705   8.478 -0.2104  0.8083 -2.0119
 8161TIP3    H248679   1.117   6.569   8.541  1.8217  1.9136  1.1517
 8162TIP3   OH248680   5.867   4.034   9.408 -0.1348  0.4983  0.3059
 8162TIP3    H148681   5.956   4.000   9.396 -0.2997 -0.2350  1.0527
 8162TIP3    H248682   5.874   4.094   9.482  0.5044  3.5533 -2.0255
 8163TIP3   OH248683   5.651   2.419   8.387 -0.0994 -0.0111 -0.1224
 8163TIP3    H148684   5.576   2.471   8.358 -0.5532  0.7061  2.1301
 8163TIP3    H248685   5.643   2.417   8.483  1.6023 -1.7006  0.0490
 8164TIP3   OH248686   3.361   5.307  10.374 -0.4570  0.3660  0.0450
 8164TIP3    H148687   3.289   5.311  10.311 -0.4787  0.7521  0.0938
 8164TIP3    H248688   3.429   5.256  10.329 -1.2738 -1.2188  0.5227
 8165TIP3   OH248689   3.583   6.613  10.307 -0.4053  0.2798  0.1774
 8165TIP3    H148690   3.559   6.561  10.384 -0.2822 -0.2974 -0.1668
 8165TIP3    H248691   3.583   6.704  10.338 -1.1547  0.1235  0.6598
 8166TIP3   OH248692   3.414   1.317   9.544 -0.0297 -0.3034  0.0367
 8166TIP3    H148693   3.501   1.277   9.542  0.6724  1.1396  0.6356
 8166TIP3    H248694   3.377   1.290   9.627 -0.3299 -1.2448 -0.3898
 8167TIP3   OH248695   6.695   4.944  10.152  0.4259  0.1448  0.1682
 8167TIP3    H148696   6.638   5.014  10.184 -0.2901 -0.6072  0.5748
 8167TIP3    H248697   6.643   4.864  10.161  0.8191 -0.3131 -1.3109
 8168TIP3   OH248698   1.347   5.078   9.685 -0.2894  0.2269 -0.3567
 8168TIP3    H148699   1.295   5.143   9.638 -0.0861  0.8144  0.2069
 8168TIP3    H248700   1.408   5.130   9.738 -0.0564 -0.4278  0.0306
 8169TIP3   OH248701   3.379   1.215  10.051 -0.0930  0.2922  0.0396
 8169TIP3    H148702   3.330   1.256  10.122  0.9226  1.8945 -0.1219
 8169TIP3    H248703   3.415   1.135  10.089 -1.2646  0.0573  0.6887
 8170TIP3   OH248704   6.652   6.066  11.382 -0.2898  0.3989  0.1349
 8170TIP3    H148705   6.743   6.091  11.366 -0.2565  1.2697  1.5351
 8170TIP3    H248706   6.639   5.988  11.328  0.8646  1.0376 -1.1401
 8171TIP3   OH248707   3.614   0.084   9.102 -0.1027 -0.4476 -0.0590
 8171TIP3    H148708   3.614   0.026   9.178 -1.1233 -1.2227 -0.6380
 8171TIP3    H248709   3.576   0.032   9.031 -1.2159  0.9812 -0.5514
 8172TIP3   OH248710   1.360   2.110  10.609  0.5768 -0.1059  0.2362
 8172TIP3    H148711   1.311   2.073  10.682 -0.1583  0.2306 -0.0694
 8172TIP3    H248712   1.427   2.164  10.650 -1.7670  2.6933  0.7787
 8173TIP3   OH248713   6.100   2.783  10.017  0.4575  0.2053 -0.3579
 8173TIP3    H148714   6.195   2.776  10.022  0.3447 -3.0929 -0.4492
 8173TIP3    H248715   6.077   2.734   9.937 -1.2652  2.2278 -1.1911
 8174TIP3   OH248716   1.015   1.484  10.862 -0.3305  0.3944  0.5029
 8174TIP3    H148717   1.080   1.519  10.801 -0.3544 -1.3865 -0.6123
 8174TIP3    H248718   0.931   1.498  10.819 -0.3858 -0.4545  0.3195
 8175TIP3   OH248719   3.677   0.665   8.131  0.5101 -0.1967  0.3100
 8175TIP3    H148720   3.735   0.631   8.064 -1.4567 -0.2290 -1.5041
 8175TIP3    H248721   3.703   0.621   8.211  2.4243 -0.7856 -0.5848
 8176TIP3   OH248722   4.402   1.604   8.193  0.0680  0.6316  0.2981
 8176TIP3    H148723   4.399   1.689   8.149  0.5922  0.5693  0.1314
 8176TIP3    H248724   4.490   1.571   8.175 -0.3653 -0.2824 -0.2725
 8177TIP3   OH248725   3.448   5.434   8.192 -0.0319 -0.6680 -0.2996
 8177TIP3    H148726   3.411   5.370   8.131 -0.3399  0.0604 -0.8771
 8177TIP3    H248727   3.376   5.492   8.213  0.8001  0.9331 -1.6374
 8178TIP3   OH248728   2.531   6.594  10.509  0.1955 -0.5645  0.0707
 8178TIP3    H148729   2.482   6.659  10.559 -0.3050 -0.1573 -0.9203
 8178TIP3    H248730   2.623   6.615  10.525  0.0372  0.0048  0.2487
 8179TIP3   OH248731   1.853   5.116   9.937  0.4156  0.2168  0.3623
 8179TIP3    H148732   1.900   5.105  10.019 -0.3663 -0.5833  0.7206
 8179TIP3    H248733   1.921   5.119   9.870  0.9650 -1.3017  0.8321
 8180TIP3   OH248734   2.991   3.340  11.142  0.3941 -0.3279  0.5596
 8180TIP3    H148735   3.061   3.313  11.083 -1.5612  0.8089 -2.5410
 8180TIP3    H248736   3.021   3.423  11.179  0.4416  0.6087 -1.4355
 8181TIP3   OH248737   1.473   5.758  10.119 -0.6636 -0.2487  0.2736
 8181TIP3    H148738   1.550   5.704  10.102 -1.3279 -1.3719  0.6926
 8181TIP3    H248739   1.457   5.805  10.037  0.9339  0.6438  0.4295
 8182TIP3   OH248740   1.600   5.123   9.813  0.0104  0.6642  0.0462
 8182TIP3    H148741   1.614   5.173   9.732  2.4575 -1.3234 -0.8866
 8182TIP3    H248742   1.687   5.115   9.852 -0.0526 -3.3489 -0.2535
 8183TIP3   OH248743   3.837   6.272  11.361 -0.0313  0.4358  0.1426
 8183TIP3    H148744   3.836   6.301  11.270 -0.0715 -0.1387 -0.0458
 8183TIP3    H248745   3.749   6.238  11.377  0.9325 -2.9214 -0.7828
 8184TIP3   OH248746   1.941   5.692  10.248  0.0864 -0.2825 -0.2887
 8184TIP3    H148747   2.017   5.727  10.295  1.0637  0.1813 -2.1469
 8184TIP3    H248748   1.878   5.764  10.247  0.0430 -0.3037  0.2864
 8185TIP3   OH248749   1.213   1.319   9.774  0.0406 -0.1389  0.1992
 8185TIP3    H148750   1.242   1.354   9.690 -0.1830 -1.9802 -0.7069
 8185TIP3    H248751   1.200   1.225   9.757  0.1924 -0.5949  2.3530
 8186TIP3   OH248752   1.380   4.572   7.955  0.1738 -0.1951 -0.4102
 8186TIP3    H148753   1.337   4.500   7.908  0.2547  0.2897 -1.2354
 8186TIP3    H248754   1.313   4.640   7.962 -0.1407 -0.6136  1.0300
 8187TIP3   OH248755   0.955   5.474   9.466  0.2510 -0.0478 -0.3431
 8187TIP3    H148756   0.959   5.490   9.560  1.1668  1.5034 -0.6041
 8187TIP3    H248757   0.862   5.474   9.445 -0.0265 -1.5733  0.7046
 8188TIP3   OH248758   2.570   3.748   9.473  0.3366  0.3284  0.1868
 8188TIP3    H148759   2.660   3.717   9.480  0.0068 -0.9736 -0.9047
 8188TIP3    H248760   2.578   3.843   9.463  1.4843  0.4261  1.6775
 8189TIP3   OH248761   1.270   0.713  10.988 -0.1285  0.0223 -0.1511
 8189TIP3    H148762   1.216   0.719  11.067 -0.7754  0.3201 -0.6016
 8189TIP3    H248763   1.279   0.803  10.958  1.2464  0.0612  0.3104
 8190TIP3   OH248764   5.379   3.941   9.704 -0.2886  0.7370  0.2158
 8190TIP3    H148765   5.343   3.868   9.654  0.5005 -2.0164  3.3273
 8190TIP3    H248766   5.317   4.012   9.691 -2.8485 -1.4605 -0.4997
 8191TIP3   OH248767   5.492   5.892  10.554  0.1133 -0.0456  0.1950
 8191TIP3    H148768   5.540   5.822  10.600  1.5125  1.6209  1.4291
 8191TIP3    H248769   5.403   5.885  10.587 -0.5289 -2.8734 -1.7188
 8192TIP3   OH248770   3.314   0.659   9.143  0.3052  0.4046 -0.4499
 8192TIP3    H148771   3.292   0.567   9.158 -0.3504  0.5922 -0.2065
 8192TIP3    H248772   3.370   0.658   9.066 -0.3159 -0.1277 -0.9056
 8193TIP3   OH248773   0.119   6.562   8.226 -0.1526  0.3033 -0.1916
 8193TIP3    H148774   0.199   6.559   8.175  0.3287  1.6236  0.4431
 8193TIP3    H248775   0.136   6.627   8.294 -1.5934  0.2673  0.2422
 8194TIP3   OH248776   5.960   5.867   9.562  0.3143 -0.2329 -0.5700
 8194TIP3    H148777   5.899   5.811   9.514 -0.4744 -0.3159  0.4994
 8194TIP3    H248778   6.021   5.806   9.604  0.0413 -0.2513 -0.1920
 8195TIP3   OH248779   0.051   1.941  11.352 -0.0478  0.3884 -0.6277
 8195TIP3    H148780   0.089   1.854  11.368  0.0834  0.2357 -1.6685
 8195TIP3    H248781  -0.014   1.926  11.284  0.2465  1.1684 -1.0886
 8196TIP3   OH248782   4.850   3.446   9.609  0.0007  0.0196 -0.7029
 8196TIP3    H148783   4.816   3.507   9.544  0.0513  0.6313 -0.1665
 8196TIP3    H248784   4.913   3.392   9.561 -0.3590  0.1080 -1.2785
 8197TIP3   OH248785   1.135   5.898   7.920 -0.0370  0.3291 -0.3623
 8197TIP3    H148786   1.067   5.964   7.906 -1.6097 -1.2067 -0.3713
 8197TIP3    H248787   1.213   5.933   7.877 -0.5140  2.6270  0.5523
 8198TIP3   OH248788   3.817   3.803  10.289  0.2205  0.0899 -0.0810
 8198TIP3    H148789   3.811   3.762  10.375 -1.1595  0.4840  0.0413
 8198TIP3    H248790   3.782   3.892  10.302  0.7723  0.4403 -0.8758
 8199TIP3   OH248791   0.277   3.455  10.743  0.0469 -0.1625  0.0312
 8199TIP3    H148792   0.293   3.549  10.747  0.7196 -0.1961 -1.2958
 8199TIP3    H248793   0.215   3.438  10.814 -2.3625  1.7278 -1.4471
 8200TIP3   OH248794   1.165   4.261   8.948  0.0934 -0.2010  0.4225
 8200TIP3    H148795   1.211   4.342   8.969 -0.6776  0.5231 -0.6137
 8200TIP3    H248796   1.080   4.289   8.915  0.6767 -1.2937 -2.2733
 8201TIP3   OH248797   3.618   1.010   9.851  0.1602  0.2031 -0.1398
 8201TIP3    H148798   3.569   1.084   9.817 -0.6996  0.1998  1.0273
 8201TIP3    H248799   3.708   1.025   9.824 -0.2076  1.0810 -0.8806
 8202TIP3   OH248800   3.154   6.355   8.910  0.0627 -0.0887  0.6198
 8202TIP3    H148801   3.245   6.326   8.906  0.1524  0.1194  1.0430
 8202TIP3    H248802   3.149   6.424   8.844  0.1669 -0.2220  0.4714
 8203TIP3   OH248803   2.355   1.399  11.035  0.3172 -0.3080 -0.0751
 8203TIP3    H148804   2.296   1.378  11.108 -0.2537 -0.9098 -0.6976
 8203TIP3    H248805   2.441   1.371  11.066  0.4199  1.1727  1.0942
 8204TIP3   OH248806   3.935   3.309   9.477 -0.3228 -0.1087 -0.4529
 8204TIP3    H148807   3.969   3.392   9.444  0.8883 -0.7972 -1.0246
 8204TIP3    H248808   3.872   3.280   9.410  1.4582 -1.0586 -1.8181
 8205TIP3   OH248809   5.712   1.396   9.489 -0.3581 -0.4606 -0.2004
 8205TIP3    H148810   5.706   1.359   9.401 -1.1189 -1.1352  0.1197
 8205TIP3    H248811   5.657   1.475   9.485 -0.1106 -0.2987 -0.4227
 8206TIP3   OH248812   2.599   2.077  11.247 -0.3717  0.1286  0.0268
 8206TIP3    H148813   2.551   2.028  11.314  0.1174 -1.6349 -0.8505
 8206TIP3    H248814   2.689   2.046  11.254 -0.4730 -0.8503 -2.0285
 8207TIP3   OH248815   6.237   0.019   9.480  0.4817 -0.2923 -0.0247
 8207TIP3    H148816   6.227  -0.064   9.433 -1.7079  0.0941 -0.3605
 8207TIP3    H248817   6.289   0.073   9.422  0.8924 -1.0297 -0.3578
 8208TIP3   OH248818   5.835   1.584  10.395 -0.1482 -0.0466 -0.1592
 8208TIP3    H148819   5.928   1.575  10.375 -0.5734 -0.7165 -1.9230
 8208TIP3    H248820   5.812   1.670  10.361 -0.5543 -0.6158 -1.3813
 8209TIP3   OH248821   4.426   4.472   9.914  0.4929 -0.6732 -0.1978
 8209TIP3    H148822   4.349   4.445   9.864 -0.4943  2.0906 -0.3348
 8209TIP3    H248823   4.412   4.435  10.001 -0.4300 -1.1648 -0.5385
 8210TIP3   OH248824   2.092   4.320   8.177 -0.0560  0.6203  0.2544
 8210TIP3    H148825   2.038   4.398   8.169 -0.6652  0.2601  0.7336
 8210TIP3    H248826   2.137   4.312   8.093 -0.8092  0.8794 -0.1786
 8211TIP3   OH248827   3.475   6.735  10.036  0.2523 -0.9544  0.4780
 8211TIP3    H148828   3.479   6.790  10.114  3.5678 -0.8684  0.3842
 8211TIP3    H248829   3.515   6.652  10.063  1.7983 -0.7961 -1.1526
 8212TIP3   OH248830   5.832   1.296  10.117 -0.2042  0.3165 -0.2634
 8212TIP3    H148831   5.892   1.328  10.048 -1.0551 -0.2421 -1.2855
 8212TIP3    H248832   5.868   1.333  10.198  0.8746  0.9272 -0.9870
 8213TIP3   OH248833   5.230   4.777   8.586 -0.2222  0.3739  0.2296
 8213TIP3    H148834   5.277   4.803   8.665  3.5427  0.4315 -1.8085
 8213TIP3    H248835   5.227   4.856   8.531  0.5674 -0.5140 -1.1558
 8214TIP3   OH248836   4.421   5.893  10.642  0.3694 -0.3291  0.1242
 8214TIP3    H148837   4.370   5.939  10.708  0.1767 -0.8420  0.3398
 8214TIP3    H248838   4.510   5.925  10.653  0.1794  0.2406  0.0433
 8215TIP3   OH248839   0.352   0.477   9.300  0.0336 -0.7257 -0.1300
 8215TIP3    H148840   0.435   0.525   9.291  0.9893 -2.3720 -0.6231
 8215TIP3    H248841   0.351   0.448   9.391 -0.6986  0.4661  0.2546
 8216TIP3   OH248842   4.123   0.859   9.216 -0.5146  0.1781  0.2397
 8216TIP3    H148843   4.170   0.885   9.295 -2.4169  1.5780  1.0031
 8216TIP3    H248844   4.139   0.930   9.154  1.5090 -1.2210 -0.9677
 8217TIP3   OH248845   4.672   2.686  10.868 -0.4813 -0.2707 -0.0869
 8217TIP3    H148846   4.698   2.705  10.778  0.3110 -0.7308  0.0396
 8217TIP3    H248847   4.578   2.669  10.862 -0.9879  2.2397 -0.4293
 8218TIP3   OH248848   6.312   2.056   9.625  0.1770  0.1835  0.6819
 8218TIP3    H148849   6.403   2.029   9.637  0.4102  1.2152  1.3720
 8218TIP3    H248850   6.264   2.014   9.696  0.1637 -0.1246  0.4907
 8219TIP3   OH248851   4.028   0.303   7.741  0.5314 -0.2202  0.3444
 8219TIP3    H148852   3.962   0.260   7.794 -0.3062  0.9900  0.3091
 8219TIP3    H248853   3.981   0.333   7.663  1.4412 -0.6681 -0.4026
 8220TIP3   OH248854   3.225   0.213  10.051 -0.1848 -0.0955 -0.3992
 8220TIP3    H148855   3.220   0.148   9.980  0.2732 -1.0694  0.4417
 8220TIP3    H248856   3.288   0.176  10.112 -0.8231  0.5791  0.6848
 8221TIP3   OH248857   0.342   4.951   9.265  0.2497 -0.2632  0.1003
 8221TIP3    H148858   0.262   4.941   9.316  0.8357 -1.0867  0.8937
 8221TIP3    H248859   0.313   4.982   9.180 -0.8957 -0.4465  0.4118
 8222TIP3   OH248860   2.454   4.710  10.409  0.4326 -0.8283 -0.6632
 8222TIP3    H148861   2.364   4.742  10.411  0.0585 -1.8245  0.5254
 8222TIP3    H248862   2.455   4.642  10.341  0.0217 -1.4517 -0.0659
 8223TIP3   OH248863   3.722   5.950   9.028  0.2215  0.7931 -0.0236
 8223TIP3    H148864   3.661   6.018   9.055 -0.7982 -0.1300  0.0669
 8223TIP3    H248865   3.781   5.994   8.967  0.4970  2.1010  1.1378
 8224TIP3   OH248866   3.437   6.141   8.742 -0.6390 -0.2647  0.4810
 8224TIP3    H148867   3.363   6.187   8.702 -0.1577 -0.1130 -0.2594
 8224TIP3    H248868   3.447   6.062   8.689  0.3851  0.2302 -0.0895
 8225TIP3   OH248869   2.671   1.061   8.065 -0.6034  0.0618  0.5114
 8225TIP3    H148870   2.686   1.105   7.981 -1.3369 -3.3677 -1.6391
 8225TIP3    H248871   2.582   1.086   8.089 -0.9493 -0.0762 -0.5665
 8226TIP3   OH248872   3.551   6.684   9.341  0.0423  0.5497  0.1605
 8226TIP3    H148873   3.532   6.713   9.430  1.4112  1.8818  0.0554
 8226TIP3    H248874   3.604   6.605   9.353 -0.3463  0.3343  0.5024
 8227TIP3   OH248875   1.099   1.814  10.314  0.2970  0.2300 -0.0576
 8227TIP3    H148876   1.040   1.885  10.288 -0.3494  0.1994  1.2815
 8227TIP3    H248877   1.091   1.750  10.243 -0.9061  0.4530 -0.1457
 8228TIP3   OH248878   3.444   2.013   9.525  0.4398 -0.1887  0.1551
 8228TIP3    H148879   3.461   2.086   9.586  0.4471  0.5787 -0.7461
 8228TIP3    H248880   3.356   1.983   9.549  0.0734  0.6941 -0.0313
 8229TIP3   OH248881   2.541   6.300  10.581  0.2079  0.1199  0.1650
 8229TIP3    H148882   2.621   6.284  10.530  1.9256  1.3823  2.2740
 8229TIP3    H248883   2.509   6.385  10.549 -1.2276 -1.0701 -1.7272
 8230TIP3   OH248884   3.233   6.306   8.617  0.6704  0.2087 -0.5300
 8230TIP3    H148885   3.191   6.391   8.604  0.3772  0.0515 -0.6282
 8230TIP3    H248886   3.163   6.242   8.602  0.9345 -0.0554 -0.6489
 8231TIP3   OH248887   3.321   0.823   8.645  0.3131 -0.2814 -0.0708
 8231TIP3    H148888   3.389   0.799   8.708  0.0218 -0.0559  0.3308
 8231TIP3    H248889   3.308   0.917   8.659  0.6684 -0.1029 -0.8786
 8232TIP3   OH248890   4.953   6.020   8.707 -0.0836 -0.2227 -0.3940
 8232TIP3    H148891   5.014   5.995   8.638 -0.1722  1.5812 -1.1824
 8232TIP3    H248892   4.881   6.064   8.661 -1.0537 -0.5998  0.6916
 8233TIP3   OH248893   5.563   2.738   8.439 -0.3249 -0.0972 -0.2636
 8233TIP3    H148894   5.658   2.730   8.447 -0.3958 -1.4871 -0.5693
 8233TIP3    H248895   5.550   2.795   8.363  0.2517  0.2580 -0.1094
 8234TIP3   OH248896   6.055   1.011  10.958 -0.6524  0.0577 -0.3790
 8234TIP3    H148897   6.057   1.058  11.041  0.0401 -0.5587 -0.0422
 8234TIP3    H248898   5.969   1.033  10.920 -1.0764  0.1424  0.6099
 8235TIP3   OH248899   6.043   1.530   9.340 -0.7933  0.3130  0.1378
 8235TIP3    H148900   5.984   1.605   9.332  0.4028  1.2965  0.1947
 8235TIP3    H248901   6.100   1.552   9.414 -0.6152 -0.8020  0.3552
 8236TIP3   OH248902   5.533   0.602  10.787 -0.3912 -0.0139  0.0826
 8236TIP3    H148903   5.502   0.541  10.719  2.5442 -0.9915 -0.5309
 8236TIP3    H248904   5.566   0.546  10.857 -2.3661  0.9906  1.9215
 8237TIP3   OH248905   2.845   4.887  10.659 -0.1933  0.7594  0.4110
 8237TIP3    H148906   2.852   4.868  10.752 -2.2602  0.3277  0.5349
 8237TIP3    H248907   2.761   4.933  10.650 -0.5926 -0.2152 -1.3582
 8238TIP3   OH248908   0.651   3.320  11.880  0.1618 -0.3831  0.9844
 8238TIP3    H148909   0.626   3.247  11.824 -1.5587  0.3264  0.7899
 8238TIP3    H248910   0.665   3.281  11.966 -1.2211 -0.8964  0.9971
 8239TIP3   OH248911   5.045   2.352   9.055 -0.0933  0.1484 -0.1285
 8239TIP3    H148912   5.039   2.257   9.045 -1.2525  0.1662  0.2793
 8239TIP3    H248913   5.055   2.385   8.965  2.1719 -0.4318 -0.1630
 8240TIP3   OH248914   2.966   1.880   9.399 -0.0123  0.8430  0.3609
 8240TIP3    H148915   3.022   1.944   9.443  1.9956  1.0934 -2.3083
 8240TIP3    H248916   2.907   1.934   9.345 -1.1355  0.4930  1.1985
 8241TIP3   OH248917   6.645   0.050   9.642  0.0076  0.0205  0.4956
 8241TIP3    H148918   6.657  -0.043   9.624 -0.1579 -0.1380  1.1790
 8241TIP3    H248919   6.727   0.077   9.683  0.1254  0.2214  0.1314
 8242TIP3   OH248920   3.020   2.085   9.993 -0.1291 -0.2893  0.5833
 8242TIP3    H148921   2.956   2.131   9.938 -0.6913  0.0661  1.5146
 8242TIP3    H248922   2.997   1.993   9.983  0.9242 -0.4149 -1.1928
 8243TIP3   OH248923   3.463   6.151   8.258  0.1467 -0.1863 -0.3709
 8243TIP3    H148924   3.411   6.160   8.179  0.9623 -1.2784 -1.0536
 8243TIP3    H248925   3.455   6.059   8.283 -0.4489  0.2309  1.0794
 8244TIP3   OH248926   1.583   3.428   9.765 -0.4655 -0.7665 -0.0891
 8244TIP3    H148927   1.560   3.337   9.744 -0.0677 -0.7843 -0.4564
 8244TIP3    H248928   1.507   3.479   9.738 -0.1459 -0.8389 -1.1717
 8245TIP3   OH248929   2.652   3.185   9.264 -0.4616  0.2505  0.4504
 8245TIP3    H148930   2.679   3.192   9.173 -1.8654  1.0668  0.0622
 8245TIP3    H248931   2.577   3.126   9.262  0.1443 -0.5755  1.2428
 8246TIP3   OH248932   1.323   6.355   9.023  0.2587  0.9712  0.1568
 8246TIP3    H148933   1.231   6.341   9.049  0.9681  0.2628  2.5894
 8246TIP3    H248934   1.359   6.267   9.014  0.5401  1.2275 -1.6879
 8247TIP3   OH248935   5.154   3.692   9.146 -0.8521  0.1097 -0.4554
 8247TIP3    H148936   5.066   3.655   9.152 -0.9173  0.1135 -1.3026
 8247TIP3    H248937   5.212   3.620   9.171 -1.1458  0.6385  2.0711
 8248TIP3   OH248938   6.695   2.150   8.766 -0.4849  0.3113  0.6607
 8248TIP3    H148939   6.769   2.205   8.741 -2.0259  2.2784  0.1040
 8248TIP3    H248940   6.714   2.123   8.856  0.9436  0.6756  0.4905
 8249TIP3   OH248941   1.775   2.274  11.395 -0.2823 -0.3188  0.1519
 8249TIP3    H148942   1.780   2.366  11.370  0.1885 -0.3243  0.2119
 8249TIP3    H248943   1.783   2.274  11.490  0.0930 -0.4423  0.1238
 8250TIP3   OH248944   4.523   5.404  10.067 -0.3427  0.7732  0.0621
 8250TIP3    H148945   4.583   5.379   9.996  0.3180  2.3952  0.0089
 8250TIP3    H248946   4.442   5.358  10.047  0.3090 -0.0054 -0.8938
 8251TIP3   OH248947   1.254   6.293  10.447 -0.2677 -0.1569  0.3156
 8251TIP3    H148948   1.222   6.246  10.370 -1.4454  1.5534 -0.3207
 8251TIP3    H248949   1.175   6.311  10.498  0.0626  1.4676  0.3076
 8252TIP3   OH248950   1.010   6.741   7.966 -0.0511 -0.1119  0.1025
 8252TIP3    H148951   1.055   6.741   8.051 -0.1637 -1.2591  0.1796
 8252TIP3    H248952   1.001   6.833   7.944  1.6544  0.1885  0.4591
 8253TIP3   OH248953   0.123   0.779   8.015  0.3088  0.2244 -0.1787
 8253TIP3    H148954   0.163   0.837   7.951 -0.7254  0.1183 -0.9409
 8253TIP3    H248955   0.090   0.705   7.964 -0.2698 -0.0123  0.5128
 8254TIP3   OH248956   2.372   3.271   9.851  0.1503 -0.1619 -0.1924
 8254TIP3    H148957   2.417   3.296   9.932 -0.1498  0.4220 -0.1995
 8254TIP3    H248958   2.347   3.355   9.811 -1.1007 -0.4686 -0.0881
 8255TIP3   OH248959   5.930   0.315   9.061  0.2600  0.3884 -0.0600
 8255TIP3    H148960   6.012   0.351   9.095  0.8788 -1.9273  1.0701
 8255TIP3    H248961   5.870   0.319   9.136 -0.6555  1.8536 -0.8139
 8256TIP3   OH248962   2.232   3.395  10.700 -0.1351  0.0853 -0.1430
 8256TIP3    H148963   2.263   3.419  10.788  0.3478 -2.0307  0.3163
 8256TIP3    H248964   2.175   3.320  10.715 -1.3029  0.6513 -1.5265
 8257TIP3   OH248965   0.927   2.107  10.598  0.2711  0.4245 -0.1193
 8257TIP3    H148966   0.935   2.124  10.692  0.2874  1.2685 -0.2651
 8257TIP3    H248967   1.011   2.068  10.573 -0.8419 -2.9247  0.8106
 8258TIP3   OH248968   4.895   4.991   8.294  0.3866 -0.3369  0.0120
 8258TIP3    H148969   4.906   5.086   8.302 -0.5960 -0.1641 -0.4463
 8258TIP3    H248970   4.912   4.957   8.381 -0.2058  0.3802  0.4264
 8259TIP3   OH248971   0.358   0.922   9.748 -0.1831  0.3635  0.4665
 8259TIP3    H148972   0.268   0.938   9.776  0.3494  5.7120  0.2262
 8259TIP3    H248973   0.403   0.893   9.827 -1.7418 -1.0824  0.9018
 8260TIP3   OH248974   1.392   1.360  10.005 -0.3976 -0.4825 -0.0818
 8260TIP3    H148975   1.326   1.351   9.936 -0.0972  1.2947 -0.6549
 8260TIP3    H248976   1.472   1.324   9.967 -0.4998 -0.5133 -0.2682
 8261TIP3   OH248977   5.441   2.420  10.906 -0.2206  0.1868  0.1135
 8261TIP3    H148978   5.405   2.496  10.860  0.6511  1.1993  1.0497
 8261TIP3    H248979   5.372   2.354  10.901 -0.5448  0.6044 -1.7519
 8262TIP3   OH248980   3.160   1.414  10.203  0.3169  0.3477 -0.1185
 8262TIP3    H148981   3.080   1.467  10.212  0.6043  0.7136  0.3628
 8262TIP3    H248982   3.229   1.478  10.188  0.4581 -0.0002 -1.0433
 8263TIP3   OH248983   0.243   0.324  10.642  0.3127 -0.2939  0.3460
 8263TIP3    H148984   0.245   0.359  10.731 -1.0172 -0.2484  0.3834
 8263TIP3    H248985   0.158   0.281  10.635  1.1507 -1.9489 -0.3114
 8264TIP3   OH248986   0.974   4.572  11.696  0.0754 -0.1103 -0.3050
 8264TIP3    H148987   0.925   4.559  11.777  0.3629 -1.8066 -0.3645
 8264TIP3    H248988   0.908   4.596  11.632 -0.5575 -1.3312 -0.1446
 8265TIP3   OH248989   5.027   2.318  10.730  0.1603 -0.1317  0.0401
 8265TIP3    H148990   5.114   2.350  10.708 -0.0323  0.9011  0.7062
 8265TIP3    H248991   4.976   2.327  10.650  1.0857 -2.4196 -0.8951
 8266TIP3   OH248992   4.114   1.456  10.754  0.4148 -0.1499 -0.0051
 8266TIP3    H148993   4.135   1.363  10.748  1.7724  0.0521  0.9783
 8266TIP3    H248994   4.053   1.462  10.828 -1.0545 -0.4308 -1.1599
 8267TIP3   OH248995   3.563   2.670   9.193 -0.0062 -0.5280 -0.4377
 8267TIP3    H148996   3.543   2.760   9.167 -1.3294  0.1484  2.4645
 8267TIP3    H248997   3.654   2.673   9.223 -0.5007  0.2861  1.0851
 8268TIP3   OH248998   6.004   4.035   8.831 -0.2079  0.6954  0.3564
 8268TIP3    H148999   6.001   3.939   8.826  0.2387  0.5400  2.2869
 8268TIP3    H249000   5.922   4.060   8.873  0.0103  1.0967  0.5512
 8269TIP3   OH249001   5.153   0.310   9.867 -0.9564  0.3170 -0.1138
 8269TIP3    H149002   5.129   0.400   9.888  1.8382  1.4367 -1.2687
 8269TIP3    H249003   5.163   0.310   9.771  0.9747 -0.6533  0.0374
 8270TIP3   OH249004   2.481   1.161   8.227  0.2955 -0.3141 -0.1808
 8270TIP3    H149005   2.486   1.150   8.322  0.9466  0.9775 -0.0481
 8270TIP3    H249006   2.420   1.234   8.214  0.2551 -0.4407 -0.7591
 8271TIP3   OH249007   3.699   0.399  10.222 -0.0648 -0.5973 -0.0736
 8271TIP3    H149008   3.750   0.318  10.216 -1.7476 -1.7157 -0.1323
 8271TIP3    H249009   3.659   0.408  10.135  1.3703  1.2428 -0.6205
 8272TIP3   OH249010   5.219   1.934   8.015  0.4351 -0.3067 -0.0078
 8272TIP3    H149011   5.161   2.009   8.028  1.2402  0.3998 -0.4367
 8272TIP3    H249012   5.275   1.933   8.093  0.6883 -0.2245 -0.1882
 8273TIP3   OH249013   0.904   3.533  10.102  0.2261 -0.0754  0.5490
 8273TIP3    H149014   0.910   3.601  10.034  0.6155 -0.6291  0.0133
 8273TIP3    H249015   0.871   3.579  10.179  1.1333  0.8633  0.3985
 8274TIP3   OH249016   1.858   3.839  10.887  0.2081 -0.2717 -0.0857
 8274TIP3    H149017   1.858   3.768  10.951  1.2426 -0.4138 -0.2367
 8274TIP3    H249018   1.945   3.877  10.893 -0.1022  0.5356 -0.5140
 8275TIP3   OH249019   1.340   3.139  10.309  0.4702  0.2872 -0.0520
 8275TIP3    H149020   1.379   3.172  10.228 -0.6220  1.6626 -0.0692
 8275TIP3    H249021   1.333   3.044  10.295  0.2706  0.4940 -1.6026
 8276TIP3   OH249022   4.840   0.865   9.910  0.3018 -0.2514  0.1012
 8276TIP3    H149023   4.888   0.928   9.857 -1.4803  0.0253 -1.2940
 8276TIP3    H249024   4.863   0.780   9.874 -0.3711 -0.1056 -0.7075
 8277TIP3   OH249025   5.450   1.295  10.407  0.1534  0.3321 -0.0003
 8277TIP3    H149026   5.541   1.313  10.384  0.2270 -0.5887 -0.5016
 8277TIP3    H249027   5.404   1.293  10.323 -0.0440 -0.6178  0.1124
 8278TIP3   OH249028   3.083   3.084   9.392 -0.5489  0.0369 -0.2615
 8278TIP3    H149029   3.005   3.139   9.379 -0.6685  0.2694  1.1918
 8278TIP3    H249030   3.049   3.004   9.433  0.1224  0.9958  2.4034
 8279TIP3   OH249031   3.247   4.995   8.379  0.1532 -0.1578 -0.4377
 8279TIP3    H149032   3.304   5.018   8.452 -1.7771  1.1933  0.7330
 8279TIP3    H249033   3.216   4.906   8.399  1.5065 -0.7690 -0.9154
 8280TIP3   OH249034   3.546   0.437  10.012  0.1775  0.0743  0.4473
 8280TIP3    H149035   3.597   0.476   9.941  1.3723 -0.5878  0.9096
 8280TIP3    H249036   3.464   0.409   9.971  1.6663 -2.2330 -1.2070
 8281TIP3   OH249037   5.903   6.233  10.530  0.3908  0.8336  0.1824
 8281TIP3    H149038   5.852   6.152  10.525 -0.7882  1.4040  2.0755
 8281TIP3    H249039   5.840   6.302  10.507  1.1713  1.3111 -0.6071
 8282TIP3   OH249040   5.512   0.757   8.826  0.4424 -0.7130 -0.5938
 8282TIP3    H149041   5.428   0.787   8.791  0.3531 -0.4031 -0.1344
 8282TIP3    H249042   5.574   0.771   8.755  0.6348  1.6812 -0.0497
 8283TIP3   OH249043   1.888   1.177   7.859  0.5405 -0.5762  0.4662
 8283TIP3    H149044   1.822   1.142   7.799  1.1909  0.0355 -0.6397
 8283TIP3    H249045   1.890   1.115   7.932 -2.3647  0.2149  1.3382
 8284TIP3   OH249046   1.338   4.556   8.360 -0.1827  0.4022 -0.1720
 8284TIP3    H149047   1.288   4.638   8.366  1.7127  1.5081  2.1784
 8284TIP3    H249048   1.329   4.516   8.446  0.7304 -0.7670 -0.5945
 8285TIP3   OH249049   0.338   6.444   8.541 -0.5073 -0.0328 -0.2524
 8285TIP3    H149050   0.416   6.397   8.511 -0.4220 -0.3605  0.4533
 8285TIP3    H249051   0.346   6.443   8.637 -0.4943  1.4413 -0.2194
 8286TIP3   OH249052   2.983   0.718  10.407  0.0296 -0.5406 -0.8819
 8286TIP3    H149053   2.949   0.711  10.497  0.5935 -2.0048 -0.7680
 8286TIP3    H249054   3.004   0.811  10.398 -4.2255  0.6438 -1.0742
 8287TIP3   OH249055   2.618   4.420   9.391 -0.0770  0.2794  0.1626
 8287TIP3    H149056   2.712   4.418   9.404  0.0190  3.4619  0.9144
 8287TIP3    H249057   2.582   4.382   9.471  0.5012 -1.6592 -0.4506
 8288TIP3   OH249058   2.113   0.134   9.687 -0.9285  0.3287  0.1894
 8288TIP3    H149059   2.079   0.045   9.692  0.0317 -0.2825 -2.3328
 8288TIP3    H249060   2.140   0.155   9.776  1.5719 -3.0944  0.4484
 8289TIP3   OH249061   5.087   2.438  11.321 -0.2237  0.2539  0.9102
 8289TIP3    H149062   5.029   2.375  11.364  0.2443  0.1530  1.4118
 8289TIP3    H249063   5.116   2.496  11.392 -1.3677  1.6261  0.3067
 8290TIP3   OH249064   1.979   1.056   8.349 -0.2195 -0.0116 -0.5175
 8290TIP3    H149065   1.947   0.967   8.336 -0.9112  0.3310 -1.2227
 8290TIP3    H249066   1.946   1.081   8.435  0.5585 -0.6729 -0.0093
 8291TIP3   OH249067   0.882   2.498   8.266  0.1735 -0.0234  0.8224
 8291TIP3    H149068   0.794   2.470   8.292  0.2357 -0.8181  0.2329
 8291TIP3    H249069   0.879   2.593   8.270 -0.2159 -0.0623  2.4166
 8292TIP3   OH249070   4.003   1.461   9.681 -0.2306 -0.4983 -0.1724
 8292TIP3    H149071   4.059   1.538   9.673 -0.2068 -0.5936 -1.1500
 8292TIP3    H249072   3.952   1.460   9.599 -1.2083 -0.7590  0.4218
 8293TIP3   OH249073   4.865   3.736  10.471  0.0405 -0.4724  0.1272
 8293TIP3    H149074   4.866   3.787  10.390  0.3350 -0.6248  0.0315
 8293TIP3    H249075   4.854   3.801  10.540 -0.3616 -0.3558 -0.0456
 8294TIP3   OH249076   4.557   1.060   8.677 -0.0490  0.7248  1.0513
 8294TIP3    H149077   4.604   1.111   8.612 -1.4881 -1.2381 -1.7447
 8294TIP3    H249078   4.613   0.984   8.693  0.0556  0.9381  1.7531
 8295TIP3   OH249079   1.405   6.354   9.817  0.6549 -0.4832  0.2874
 8295TIP3    H149080   1.314   6.359   9.787  0.3578 -1.7980  0.8954
 8295TIP3    H249081   1.413   6.426   9.880  0.3694  0.3302 -0.5856
 8296TIP3   OH249082   1.158   5.576   7.951 -0.1964  0.1821 -0.2471
 8296TIP3    H149083   1.121   5.659   7.922  2.4736  1.3135 -0.7266
 8296TIP3    H249084   1.198   5.539   7.872 -1.0137 -1.4157  0.0428
 8297TIP3   OH249085   5.417   5.926   9.541  0.0256  0.1914 -0.6780
 8297TIP3    H149086   5.426   5.884   9.626  0.8718  1.5285 -0.0841
 8297TIP3    H249087   5.504   5.920   9.501 -0.0930  0.5093 -0.9943
 8298TIP3   OH249088   5.529   2.144   9.841  0.3483  0.3832  0.6746
 8298TIP3    H149089   5.445   2.145   9.796  0.4288  0.7442  0.5309
 8298TIP3    H249090   5.593   2.132   9.771  0.5663  2.1264  0.5326
 8299TIP3   OH249091   0.141   5.350   8.523 -0.1700 -0.0807  0.0151
 8299TIP3    H149092   0.175   5.318   8.606 -1.4051  1.9958  1.4239
 8299TIP3    H249093   0.173   5.288   8.458  0.9928 -1.6766  2.0004
 8300TIP3   OH249094   1.262   1.455   9.060 -0.0225 -0.5083  0.0235
 8300TIP3    H149095   1.193   1.409   9.012 -0.7645  0.0759  0.5084
 8300TIP3    H249096   1.337   1.455   9.000  0.0895 -2.5291  0.1015
 8301TIP3   OH249097   2.694   4.126   9.745 -0.6826 -0.5469 -0.4075
 8301TIP3    H149098   2.670   4.034   9.738  0.0961 -0.9141  1.2529
 8301TIP3    H249099   2.679   4.148   9.837  0.1314  0.6881 -0.5466
 8302TIP3   OH249100   1.753   3.747   8.637  1.2292  0.7904  0.1074
 8302TIP3    H149101   1.798   3.779   8.559  0.1911  0.1096 -0.7928
 8302TIP3    H249102   1.802   3.669   8.663  0.7324  0.1691 -0.7524
 8303TIP3   OH249103   5.419   6.037   9.283  0.4075 -0.1200  0.0608
 8303TIP3    H149104   5.369   6.038   9.365  1.5341  2.1227  0.7994
 8303TIP3    H249105   5.510   6.043   9.311  1.0795 -2.6383 -1.3074
 8304TIP3   OH249106   3.492   4.118   8.232  0.1703  0.2870 -0.0919
 8304TIP3    H149107   3.587   4.116   8.247  0.0422  0.8118  0.9194
 8304TIP3    H249108   3.472   4.033   8.194  1.1586  0.4731 -1.1014
 8305TIP3   OH249109   3.465   6.350   8.459  0.7063 -0.2294 -0.4228
 8305TIP3    H149110   3.385   6.325   8.505  1.1196 -0.3484  0.2376
 8305TIP3    H249111   3.469   6.291   8.383 -0.0470  0.0576 -0.6958
 8306TIP3   OH249112   3.687   4.366  11.133  0.2227  0.5534  0.2881
 8306TIP3    H149113   3.664   4.286  11.181 -0.9957  0.0707 -1.0341
 8306TIP3    H249114   3.746   4.413  11.192  1.2711 -1.4817  0.9483
 8307TIP3   OH249115   4.235   1.618   8.910 -0.3773  0.0388  0.3095
 8307TIP3    H149116   4.287   1.693   8.881 -0.2396 -0.6466 -1.3257
 8307TIP3    H249117   4.234   1.625   9.006 -0.1014  1.9271  0.2065
 8308TIP3   OH249118   4.120   6.415   9.968 -0.3133 -0.2799  0.6926
 8308TIP3    H149119   4.166   6.425   9.885 -1.4301 -0.8235 -0.0137
 8308TIP3    H249120   4.173   6.353  10.018 -0.1142 -0.6771  0.0018
 8309TIP3   OH249121   4.486   2.223  10.508  0.2218  0.0778 -0.4429
 8309TIP3    H149122   4.565   2.197  10.556  0.5670  1.0121 -0.4746
 8309TIP3    H249123   4.520   2.256  10.424 -0.3400 -1.1439 -1.1790
 8310TIP3   OH249124   1.325   1.617   9.701  0.6960  0.3619 -0.7214
 8310TIP3    H149125   1.392   1.678   9.671  2.5622 -0.9949  0.4692
 8310TIP3    H249126   1.336   1.540   9.646 -0.1878  0.2730 -0.7884
 8311TIP3   OH249127   1.868   6.040   8.884  0.4950 -0.9783  0.1699
 8311TIP3    H149128   1.913   6.025   8.968  2.0899 -0.2016 -0.5116
 8311TIP3    H249129   1.935   6.077   8.827 -1.3447  1.6258 -0.5005
 8312TIP3   OH249130   2.242   5.540   8.715  0.4843  0.6766  0.1510
 8312TIP3    H149131   2.152   5.510   8.729  0.0912  1.5273 -0.4160
 8312TIP3    H249132   2.270   5.497   8.634  0.7342  0.1170  0.5283
 8313TIP3   OH249133   1.186   4.771   7.965  0.0973 -0.1841  0.0842
 8313TIP3    H149134   1.090   4.774   7.967  0.1065  0.3819  2.5711
 8313TIP3    H249135   1.212   4.853   7.923 -0.4873  0.0829  0.2317
 8314TIP3   OH249136   0.777   0.389  10.942  0.1000 -0.0559  0.0243
 8314TIP3    H149137   0.867   0.367  10.917  0.8062  0.1108  2.2219
 8314TIP3    H249138   0.786   0.464  11.001 -1.6529  1.1624 -1.1458
 8315TIP3   OH249139   3.299   5.823   9.544 -0.0462 -0.0087  0.2557
 8315TIP3    H149140   3.344   5.775   9.475  2.1599  0.8964  0.9588
 8315TIP3    H249141   3.318   5.774   9.624 -0.6721  0.1773  0.5255
 8316TIP3   OH249142   1.029   3.021   8.086  0.8653  0.3049 -0.3436
 8316TIP3    H149143   0.997   2.963   8.155  0.3336 -1.1777 -1.7475
 8316TIP3    H249144   0.967   3.095   8.087  0.1810 -0.2543  0.0220
 8317TIP3   OH249145   0.699   0.283   9.404 -0.0065  0.7071 -0.1957
 8317TIP3    H149146   0.689   0.189   9.390  0.8206  0.6430 -0.4668
 8317TIP3    H249147   0.649   0.302   9.483  0.1153 -0.0284  0.0653
 8318TIP3   OH249148   2.987   6.363   8.209 -0.0362  0.3966  0.1452
 8318TIP3    H149149   2.910   6.383   8.155  0.2062 -0.3656 -0.5141
 8318TIP3    H249150   3.052   6.429   8.184 -0.0034  0.1846 -0.3392
 8319TIP3   OH249151   5.811   4.564   8.629  0.3379  0.0063 -0.0039
 8319TIP3    H149152   5.829   4.522   8.545  0.0536  2.5519 -1.4504
 8319TIP3    H249153   5.765   4.644   8.606  1.7312  1.6436  2.4574
 8320TIP3   OH249154   3.951   4.379   9.932 -0.4127 -0.1595  0.0249
 8320TIP3    H149155   4.045   4.398   9.935 -0.3228 -0.2771 -1.3686
 8320TIP3    H249156   3.940   4.303   9.990  0.7883 -1.7150 -1.6780
 8321TIP3   OH249157   4.055   2.851   9.211  0.3090  0.1722  0.5204
 8321TIP3    H149158   4.080   2.941   9.235 -0.4306  0.5081  0.0915
 8321TIP3    H249159   4.083   2.798   9.285  2.0206  0.5419  0.1724
 8322TIP3   OH249160   5.518   1.671  10.635 -0.3091  0.8778  0.3170
 8322TIP3    H149161   5.605   1.699  10.664 -0.4556  0.7376  0.9122
 8322TIP3    H249162   5.490   1.739  10.574  0.2956  0.8288 -0.0185
 8323TIP3   OH249163   6.190   3.975   9.675 -0.0117  0.0158 -0.2818
 8323TIP3    H149164   6.226   4.016   9.753  1.4268 -1.0504 -0.3374
 8323TIP3    H249165   6.096   3.967   9.692 -0.2172  2.4222  0.0981
 8324TIP3   OH249166   1.672   1.969  10.555 -0.0583  0.0387  0.3586
 8324TIP3    H149167   1.749   1.975  10.499  1.1061 -1.5361  1.7266
 8324TIP3    H249168   1.598   1.982  10.495  1.1975  0.5338 -1.1537
 8325TIP3   OH249169   2.758   4.575  10.819 -0.0170 -0.0155 -0.8539
 8325TIP3    H149170   2.744   4.579  10.724 -2.3651  3.7866 -0.5646
 8325TIP3    H249171   2.841   4.621  10.833  0.7765 -1.3493 -1.0780
 8326TIP3   OH249172   6.702   5.216  10.340  0.1076 -0.0933  0.4645
 8326TIP3    H149173   6.640   5.285  10.364  1.9852  1.6005  0.6880
 8326TIP3    H249174   6.683   5.145  10.401 -0.4686  1.0654  1.6830
 8327TIP3   OH249175   1.157   4.779   8.619  0.1919  0.0315  0.4202
 8327TIP3    H149176   1.085   4.716   8.628 -0.0307  0.0326 -1.0500
 8327TIP3    H249177   1.216   4.758   8.691  0.8300 -2.8251 -0.7712
 8328TIP3   OH249178   4.251   5.927   9.978  0.3647 -0.3333  0.7035
 8328TIP3    H149179   4.209   5.899  10.059 -0.4985 -0.3420  0.2654
 8328TIP3    H249180   4.342   5.898   9.986  0.5004  0.3812  2.0138
 8329TIP3   OH249181   5.436   5.331   8.585 -0.1320  0.2530 -0.3453
 8329TIP3    H149182   5.496   5.257   8.581 -0.5349 -0.0855 -0.1575
 8329TIP3    H249183   5.376   5.310   8.657 -1.4106 -0.1227 -1.4705
 8330TIP3   OH249184   0.993   2.845   8.864 -0.0829  0.7292  0.1808
 8330TIP3    H149185   1.058   2.782   8.832 -0.0294  0.4057  0.9183
 8330TIP3    H249186   0.965   2.892   8.785  2.3617  2.1473  0.0478
 8331TIP3   OH249187   0.694   1.009  11.239 -0.6981 -0.0061  0.3484
 8331TIP3    H149188   0.768   0.951  11.223 -0.0873  0.7189  0.5149
 8331TIP3    H249189   0.673   1.045  11.153 -0.6510  0.0387  0.3560
 8332TIP3   OH249190   0.003   4.615  10.169 -0.3452  0.1213  0.1155
 8332TIP3    H149191   0.064   4.647  10.102 -2.3005  2.7262 -0.6192
 8332TIP3    H249192   0.012   4.678  10.241 -0.3643 -0.9553  1.0807
 8333TIP3   OH249193   5.317   4.500  11.223  0.2037 -0.0452  0.2808
 8333TIP3    H149194   5.311   4.594  11.204  0.6543  0.2060  1.3071
 8333TIP3    H249195   5.319   4.495  11.319  0.8136 -1.0620  0.2305
 8334TIP3   OH249196   2.754   2.447   9.974  0.1468 -0.1319 -0.5304
 8334TIP3    H149197   2.764   2.384  10.046  1.1070  1.2430  0.5973
 8334TIP3    H249198   2.659   2.455   9.963 -0.0643  0.4197  1.3417
 8335TIP3   OH249199   4.728   4.904   8.811  0.1044 -0.1463 -0.3201
 8335TIP3    H149200   4.790   4.918   8.883  1.0890 -1.5575 -0.8480
 8335TIP3    H249201   4.706   4.993   8.782 -1.7335  0.5525  2.8048
 8336TIP3   OH249202   0.754   2.153  17.502 -0.3246 -0.7287 -0.5892
 8336TIP3    H149203   0.696   2.221  17.467  1.5499  1.2542 -0.0538
 8336TIP3    H249204   0.842   2.183  17.480  0.7840 -1.1552  2.6483
 8337TIP3   OH249205   5.557   5.135  10.125 -0.9313  0.3457  0.5687
 8337TIP3    H149206   5.575   5.048  10.160  0.3118  1.1779  2.0921
 8337TIP3    H249207   5.502   5.176  10.192  0.8544  1.7004  1.2718
 8338TIP3   OH249208   6.478   5.419   9.629 -0.0999 -0.8440  0.3157
 8338TIP3    H149209   6.444   5.332   9.647 -1.3047 -0.0246  2.3918
 8338TIP3    H249210   6.552   5.429   9.688 -0.1352 -0.3646  0.2853
 8339TIP3   OH249211   4.742   2.134   8.509  0.0398  0.5834  0.2600
 8339TIP3    H149212   4.822   2.150   8.460  0.5088  0.3879  0.9420
 8339TIP3    H249213   4.747   2.041   8.533 -0.8594  0.3154 -0.5096
 8340TIP3   OH249214   6.293   4.389   8.761 -0.4514  0.0150  0.0137
 8340TIP3    H149215   6.230   4.381   8.833  1.1629 -0.4089  1.4548
 8340TIP3    H249216   6.292   4.304   8.718  1.6890 -1.2930  2.3187
 8341TIP3   OH249217   6.044   1.843   9.037  0.3917  0.6362 -0.3835
 8341TIP3    H149218   5.965   1.891   9.060  0.9688  1.0956  0.7158
 8341TIP3    H249219   6.014   1.771   8.982 -0.8011  0.7046  0.1545
 8342TIP3   OH249220   0.700   1.008   8.988  0.2523  0.3521  0.5338
 8342TIP3    H149221   0.623   1.015   9.045 -0.5303  1.1997 -0.5801
 8342TIP3    H249222   0.704   1.093   8.944  0.6176 -0.4128 -0.9491
 8343TIP3   OH249223   2.504   3.040   9.705 -0.6277 -0.1467 -0.6227
 8343TIP3    H149224   2.477   3.108   9.766 -0.2884  0.0068 -0.6431
 8343TIP3    H249225   2.546   3.087   9.633  1.3412 -0.4653  0.2485
 8344TIP3   OH249226   2.024   4.976  10.694  0.1853  0.0070 -0.4205
 8344TIP3    H149227   2.050   4.987  10.786 -0.4518 -0.3675 -0.1850
 8344TIP3    H249228   2.091   4.921  10.656 -1.0341 -2.2957  0.5888
 8345TIP3   OH249229   2.748   2.046   9.280 -0.1556  0.1785  0.0412
 8345TIP3    H149230   2.760   2.139   9.264 -1.2078  0.4306  0.6654
 8345TIP3    H249231   2.727   2.009   9.195 -0.5305  0.6414 -0.0684
 8346TIP3   OH249232   1.909   5.428  10.752  0.0213  0.1214 -0.3150
 8346TIP3    H149233   1.823   5.462  10.777  1.2764  4.2815 -0.8543
 8346TIP3    H249234   1.934   5.371  10.824 -2.6870 -0.3943  0.3461
 8347TIP3   OH249235   5.306   3.618   8.371  0.1575  0.1555  1.1871
 8347TIP3    H149236   5.297   3.704   8.330 -0.9379 -0.4157  0.1702
 8347TIP3    H249237   5.391   3.621   8.414  1.2397  0.9507 -0.8407
 8348TIP3   OH249238   2.836   5.135  19.102 -0.7009 -0.0881  0.0338
 8348TIP3    H149239   2.744   5.110  19.100 -0.9908  0.8542 -2.3502
 8348TIP3    H249240   2.874   5.090  19.026  0.7389 -0.2083  0.7948
 8349TIP3   OH249241   4.809   3.963  10.302 -0.2857  0.5972  0.1148
 8349TIP3    H149242   4.713   3.959  10.304 -0.3463  1.9938  0.4227
 8349TIP3    H249243   4.829   4.054  10.283  1.0148  0.7581  2.0436
 8350TIP3   OH249244   1.150   6.686   9.132 -0.5013  0.2978  0.4996
 8350TIP3    H149245   1.179   6.638   9.054 -2.4962 -0.1327 -0.0286
 8350TIP3    H249246   1.230   6.722   9.169  0.7845 -1.4787 -0.4189
 8351TIP3   OH249247   5.279   6.615  11.217  0.2373  0.4881  0.3744
 8351TIP3    H149248   5.356   6.582  11.171  0.0778  1.2786 -0.4926
 8351TIP3    H249249   5.299   6.605  11.310 -0.0198 -2.5815  0.2171
 8352TIP3   OH249250   3.081   0.464  10.439  0.1342  0.1366 -0.3949
 8352TIP3    H149251   3.036   0.546  10.417 -0.3767  0.4980  1.8191
 8352TIP3    H249252   3.013   0.397  10.431  0.2469  0.0885 -1.0088
 8353TIP3   OH249253   3.522   0.043   9.583  0.1053  0.3042 -0.8435
 8353TIP3    H149254   3.481  -0.004   9.656  1.1071  1.4368  0.5241
 8353TIP3    H249255   3.459   0.110   9.558  0.7348  1.5868  0.7822
 8354TIP3   OH249256   5.356   2.431  10.349 -0.0908  0.2339 -0.3096
 8354TIP3    H149257   5.430   2.478  10.385  0.5135 -0.6736 -0.3288
 8354TIP3    H249258   5.388   2.395  10.266 -0.5438 -0.1669 -0.3175
 8355TIP3   OH249259   4.915   3.854  11.339  0.2270 -0.7425 -0.3295
 8355TIP3    H149260   4.996   3.885  11.380 -0.7278 -0.0461  1.1547
 8355TIP3    H249261   4.904   3.765  11.371 -0.3652 -0.3002  0.7568
 8356TIP3   OH249262   1.506   1.769   8.375  0.0379 -0.0373  0.1654
 8356TIP3    H149263   1.441   1.801   8.313 -0.4471 -2.4128 -0.6822
 8356TIP3    H249264   1.470   1.789   8.461 -1.6916 -0.9419 -0.2899
 8357TIP3   OH249265   3.391   4.560  10.474 -0.4624  0.0705  0.1383
 8357TIP3    H149266   3.336   4.621  10.524 -0.0013  0.4173  0.2268
 8357TIP3    H249267   3.417   4.608  10.396 -0.8473 -0.3346 -0.2448
 8358TIP3   OH249268   6.553   4.935   9.660  0.0445 -0.3522  0.1793
 8358TIP3    H149269   6.569   4.876   9.734 -0.9403 -0.5674  0.2264
 8358TIP3    H249270   6.473   4.902   9.620  0.6396 -0.3154 -1.0724
 8359TIP3   OH249271   1.858   4.568   9.401 -0.1433  0.3531 -0.1376
 8359TIP3    H149272   1.926   4.548   9.337  0.7619  1.4095  0.4631
 8359TIP3    H249273   1.856   4.663   9.406 -0.3368  0.2945  1.2508
 8360TIP3   OH249274   0.609   1.504   8.750 -0.3618  0.1060 -0.0086
 8360TIP3    H149275   0.550   1.450   8.698 -2.3993  0.6123  1.6756
 8360TIP3    H249276   0.674   1.443   8.784  0.6075 -0.3452 -2.4926
 8361TIP3   OH249277   1.482   3.252   8.394 -0.2600 -0.2757  0.4239
 8361TIP3    H149278   1.417   3.205   8.342  1.5727 -1.0981 -1.2132
 8361TIP3    H249279   1.443   3.258   8.482 -0.9029 -4.2446  0.5683
 8362TIP3   OH249280   5.064   1.030   9.814  0.1855  0.1402 -0.0510
 8362TIP3    H149281   5.091   1.093   9.881 -1.1367  0.0555  0.5907
 8362TIP3    H249282   5.144   1.014   9.763  1.6135 -0.7729  2.2905
 8363TIP3   OH249283   5.523   5.469  10.902  0.3278  0.2747  0.1002
 8363TIP3    H149284   5.509   5.376  10.918  1.3574  0.1858  0.5408
 8363TIP3    H249285   5.616   5.477  10.885  0.0172  1.0328 -1.3983
 8364TIP3   OH249286   2.085   1.445   9.945  0.0043 -0.0983  0.2360
 8364TIP3    H149287   2.041   1.521   9.984  1.9723  0.2906  1.8818
 8364TIP3    H249288   2.143   1.483   9.879  1.7077  0.0447  1.7127
 8365TIP3   OH249289   0.930   2.444   9.640  0.0820 -0.4965 -0.0083
 8365TIP3    H149290   0.843   2.438   9.600  0.1169 -0.3087 -0.1102
 8365TIP3    H249291   0.928   2.526   9.689 -0.1886 -1.0484  0.9188
 8366TIP3   OH249292   3.901   2.885  11.888  0.0295 -0.4191  0.5504
 8366TIP3    H149293   3.994   2.889  11.868 -0.3230  0.9030 -1.1182
 8366TIP3    H249294   3.896   2.868  11.982  1.9621  1.2080  0.9934
 8367TIP3   OH249295   0.681   6.182   7.649 -0.0506  0.5598  0.0054
 8367TIP3    H149296   0.688   6.112   7.584 -1.3136  1.1481 -0.8019
 8367TIP3    H249297   0.690   6.137   7.733  1.1081 -0.2821 -0.5507
 8368TIP3   OH249298   0.082   0.646   8.938 -0.0749 -0.4249 -0.1945
 8368TIP3    H149299   0.162   0.616   8.982  0.0895  0.2713 -0.0154
 8368TIP3    H249300   0.022   0.666   9.009  0.7987  2.4463 -0.1523
 8369TIP3   OH249301   6.317   2.832   9.064  0.5469 -0.3738  0.4167
 8369TIP3    H149302   6.365   2.879   8.996 -0.9397  1.1000  0.3432
 8369TIP3    H249303   6.258   2.774   9.016 -0.0975  0.2515  0.4411
 8370TIP3   OH249304   2.444   5.975   9.956  0.3351  0.2409 -0.1965
 8370TIP3    H149305   2.416   6.038   9.890 -0.9988  0.7466  0.7988
 8370TIP3    H249306   2.468   6.029  10.032  0.7781 -0.3835  0.1178
 8371TIP3   OH249307   2.496   3.951   8.795 -0.1210 -0.1370  0.0307
 8371TIP3    H149308   2.528   3.890   8.728  1.5509  0.4500  0.2290
 8371TIP3    H249309   2.571   3.962   8.854 -0.4889  1.8044  0.2044
 8372TIP3   OH249310   6.672   3.567   7.859  0.7220  0.1348  0.7234
 8372TIP3    H149311   6.717   3.492   7.898 -2.1882 -1.8458  0.6618
 8372TIP3    H249312   6.596   3.582   7.916  0.7606  2.5450  0.2481
 8373TIP3   OH249313   0.114   2.493   7.837 -0.0177  0.2254 -0.3545
 8373TIP3    H149314   0.158   2.486   7.753  2.1052  1.5655  0.5711
 8373TIP3    H249315   0.058   2.570   7.828 -0.0045  0.2077 -0.6036
 8374TIP3   OH249316   0.505   5.370   9.400  0.4861  0.4749 -0.4593
 8374TIP3    H149317   0.416   5.337   9.389  0.4970 -0.1248  1.0161
 8374TIP3    H249318   0.521   5.364   9.494  2.0967  0.5773 -0.7055
 8375TIP3   OH249319   1.163   3.185   8.545 -0.1454 -0.4410 -0.2074
 8375TIP3    H149320   1.218   3.107   8.545 -0.8273 -0.9249  0.4088
 8375TIP3    H249321   1.149   3.206   8.637 -0.7670 -0.1589 -0.3581
 8376TIP3   OH249322   5.880   2.955  10.621 -0.0446  0.0218 -0.3485
 8376TIP3    H149323   5.845   2.950  10.710  0.2645 -1.5449 -0.2779
 8376TIP3    H249324   5.924   3.040  10.616  1.8609 -0.7610  1.7470
 8377TIP3   OH249325   3.695   4.196   8.480 -0.4819 -0.2494  0.0836
 8377TIP3    H149326   3.768   4.135   8.470  0.5326  1.2169 -2.2257
 8377TIP3    H249327   3.733   4.273   8.520 -0.5793  0.7321 -1.6218
 8378TIP3   OH249328   5.858   3.466   8.941 -0.5852 -0.0009  0.2056
 8378TIP3    H149329   5.812   3.534   8.990 -2.6490  0.1292 -1.7234
 8378TIP3    H249330   5.928   3.512   8.896 -0.3483  0.3534  0.9210
 8379TIP3   OH249331   3.731   3.100   8.532  0.6637 -0.4677  0.3565
 8379TIP3    H149332   3.815   3.084   8.490  0.8046 -0.5553  0.6726
 8379TIP3    H249333   3.680   3.021   8.513  0.9233 -0.7553  0.8319
 8380TIP3   OH249334   6.391   6.700   9.712 -0.3850 -0.4017  0.8773
 8380TIP3    H149335   6.462   6.761   9.731  0.0008 -1.0780  1.6967
 8380TIP3    H249336   6.346   6.738   9.637  1.2810 -0.3206 -0.1271
 8381TIP3   OH249337   6.735   6.285   9.056 -1.1894  0.0589 -0.3052
 8381TIP3    H149338   6.649   6.267   9.017  0.2802 -1.3285 -3.2153
 8381TIP3    H249339   6.796   6.228   9.009  1.3462  0.7602  1.8477
 8382TIP3   OH249340   0.847   0.345  10.358  0.1506 -0.4028 -0.1361
 8382TIP3    H149341   0.785   0.304  10.298  0.4695 -1.0913 -0.0151
 8382TIP3    H249342   0.829   0.438  10.353 -0.1106 -0.4973 -0.9781
 8383TIP3   OH249343   3.484   3.111  10.881 -0.5309 -0.6754 -0.5576
 8383TIP3    H149344   3.493   3.159  10.799  3.3981 -2.0061 -1.1323
 8383TIP3    H249345   3.502   3.176  10.949 -0.1900 -0.3074 -0.9929
 8384TIP3   OH249346   1.398   3.018   9.470 -0.4958  0.3129  0.1379
 8384TIP3    H149347   1.401   3.010   9.374  0.6803  1.1626  0.0703
 8384TIP3    H249348   1.374   3.110   9.485 -0.9855  0.1021  0.6662
 8385TIP3   OH249349   2.815   1.794  10.788  0.0500 -0.9405  0.3184
 8385TIP3    H149350   2.828   1.872  10.842  0.7146  0.0065 -1.1630
 8385TIP3    H249351   2.777   1.730  10.849 -2.5590  1.1636  1.1079
 8386TIP3   OH249352   3.623   2.127  11.515  0.4372 -0.0277  0.3062
 8386TIP3    H149353   3.713   2.105  11.490  0.7520 -1.6110  2.6019
 8386TIP3    H249354   3.602   2.204  11.461  2.3800 -0.8625 -1.8217
 8387TIP3   OH249355   0.703   3.324  10.006 -0.5288 -0.2149 -0.1196
 8387TIP3    H149356   0.694   3.419   9.995  0.6870 -0.3506 -3.1235
 8387TIP3    H249357   0.721   3.313  10.099  0.9285  2.6678  0.0606
 8388TIP3   OH249358   3.670   5.788   9.777 -0.1190  0.3583 -0.2004
 8388TIP3    H149359   3.756   5.810   9.813 -0.2259  1.5193 -0.5969
 8388TIP3    H249360   3.688   5.771   9.684 -0.3103  0.5951 -0.2812
 8389TIP3   OH249361   2.929   2.503   8.971 -0.0928  0.3355 -0.3909
 8389TIP3    H149362   2.856   2.463   9.019 -1.9284 -0.5340 -3.5875
 8389TIP3    H249363   2.913   2.597   8.978  0.8414  0.3950  2.1866
 8390TIP3   OH249364   0.307   1.111   8.433  0.1906 -0.0270  0.5104
 8390TIP3    H149365   0.254   1.111   8.513  1.1654  0.1799  1.1803
 8390TIP3    H249366   0.333   1.203   8.422  0.5747 -0.1604  0.2968
 8391TIP3   OH249367   6.236   1.804   7.973  0.0720  0.5919 -0.2866
 8391TIP3    H149368   6.141   1.795   7.974  0.1525 -0.3097 -0.4902
 8391TIP3    H249369   6.251   1.897   7.995 -0.8206  0.5338  0.6773
 8392TIP3   OH249370   4.040   3.862   9.408 -0.4068  0.4629 -0.6779
 8392TIP3    H149371   3.956   3.835   9.373 -1.0765  3.2418 -1.5035
 8392TIP3    H249372   4.018   3.913   9.487  0.7373 -1.1375  0.7563
 8393TIP3   OH249373   1.940   1.888   9.436 -0.0760 -0.5164  0.0763
 8393TIP3    H149374   2.033   1.905   9.420  0.0885 -2.0699 -0.7263
 8393TIP3    H249375   1.905   1.973   9.463  1.6723 -0.0098  0.9072
 8394TIP3   OH249376   0.686   0.571  10.746  0.7759 -0.4644 -1.0843
 8394TIP3    H149377   0.617   0.591  10.810  0.7422 -0.2085 -1.2040
 8394TIP3    H249378   0.715   0.483  10.770  1.4698  0.0207 -0.0694
 8395TIP3   OH249379   5.512   1.333   8.552  0.2625 -0.0617  0.4834
 8395TIP3    H149380   5.491   1.398   8.485 -0.5267 -0.6915  0.0966
 8395TIP3    H249381   5.595   1.362   8.589 -0.9835  2.2141  1.6535
 8396TIP3   OH249382   4.320   6.481   8.952  0.6021  0.0598  0.0270
 8396TIP3    H149383   4.378   6.439   8.888 -1.4032 -2.4135 -0.3648
 8396TIP3    H249384   4.351   6.449   9.037  0.0461 -1.0607 -0.1635
 8397TIP3   OH249385   5.738   5.424   9.097  0.4483  0.0415  0.2144
 8397TIP3    H149386   5.767   5.389   9.182  1.4850 -1.4336 -0.7007
 8397TIP3    H249387   5.645   5.403   9.092  0.1939  0.8216  1.2898
 8398TIP3   OH249388   3.161   6.353  10.211 -0.6467 -0.1602  0.8622
 8398TIP3    H149389   3.202   6.326  10.129 -0.6174 -1.1585  1.1926
 8398TIP3    H249390   3.070   6.324  10.204 -2.4084  4.7034 -1.1932
 8399TIP3   OH249391   5.277   3.716   9.536  0.3886  0.1540  0.1259
 8399TIP3    H149392   5.218   3.647   9.504  1.7555 -0.8184 -0.3925
 8399TIP3    H249393   5.355   3.707   9.482  0.6464  2.0831  0.1053
 8400TIP3   OH249394   5.446   2.899  10.797  0.1270 -0.1708  0.2096
 8400TIP3    H149395   5.500   2.861  10.866  1.0536 -0.3263 -0.5900
 8400TIP3    H249396   5.377   2.834  10.782  1.0189 -1.0103 -0.3214
 8401TIP3   OH249397   1.637   0.935   8.560  0.1875  0.2902 -0.0410
 8401TIP3    H149398   1.708   0.873   8.571 -1.4800 -1.8745 -0.9123
 8401TIP3    H249399   1.598   0.942   8.647  0.2812 -0.0047  0.0244
 8402TIP3   OH249400   2.651   0.227   9.954 -0.0284 -0.8366 -0.8593
 8402TIP3    H149401   2.679   0.197  10.041 -0.6004  2.3453  0.5787
 8402TIP3    H249402   2.731   0.233   9.903  1.1011  1.5552  0.9999
 8403TIP3   OH249403   4.346   5.309  11.416  0.0607  0.1506  0.0348
 8403TIP3    H149404   4.394   5.257  11.479  0.6787  0.2879 -0.3186
 8403TIP3    H249405   4.357   5.400  11.445 -0.0057  0.1806 -0.0318
 8404TIP3   OH249406   4.968   2.023  10.528  0.3515  0.9131  0.1656
 8404TIP3    H149407   5.005   2.035  10.616  1.4982  1.0391 -0.3120
 8404TIP3    H249408   5.016   1.948  10.492  0.3100  1.2267 -0.5585
 8405TIP3   OH249409   2.953   0.195  10.903 -0.1214  0.1022  0.1621
 8405TIP3    H149410   2.961   0.282  10.942  0.3664  0.5250 -0.8213
 8405TIP3    H249411   2.860   0.186  10.883 -0.0394  0.8562 -0.6773
 8406TIP3   OH249412   6.116   5.168  10.738  0.1106 -0.0344  0.0753
 8406TIP3    H149413   6.073   5.083  10.735 -0.9790  0.5060 -0.5589
 8406TIP3    H249414   6.056   5.224  10.787  1.9460 -0.1802  2.7072
 8407TIP3   OH249415   3.202   2.556  11.032  0.0122  0.5826  0.2795
 8407TIP3    H149416   3.115   2.523  11.057 -0.9244  0.5061 -2.7288
 8407TIP3    H249417   3.263   2.498  11.077 -1.5364 -1.1050  0.3514
 8408TIP3   OH249418   1.639   0.173   8.079  0.0305  0.2505 -0.2309
 8408TIP3    H149419   1.716   0.228   8.065 -0.5831  1.4750  0.9837
 8408TIP3    H249420   1.674   0.095   8.123  0.7764  0.0632 -1.1096
 8409TIP3   OH249421   4.964   5.144   8.733 -0.1820 -0.6792 -0.1039
 8409TIP3    H149422   4.962   5.238   8.713  0.2919 -0.3684  1.2373
 8409TIP3    H249423   5.038   5.111   8.682  0.8411  0.0483  0.8509
 8410TIP3   OH249424   2.689   2.222  10.422 -0.4843 -0.3006  0.0253
 8410TIP3    H149425   2.764   2.268  10.460  0.4456 -0.4783 -1.5095
 8410TIP3    H249426   2.710   2.129  10.430 -0.3116 -0.3421 -0.8079
 8411TIP3   OH249427   4.812   1.865   8.611 -0.3612 -0.3443 -0.3478
 8411TIP3    H149428   4.850   1.798   8.554 -0.5948  0.1337 -1.0815
 8411TIP3    H249429   4.726   1.830   8.634  0.1479 -1.0342  0.6205
 8412TIP3   OH249430   2.061   6.116   8.484  0.2268 -0.0809  0.0849
 8412TIP3    H149431   1.966   6.104   8.496  0.0981  2.1781  2.0888
 8412TIP3    H249432   2.070   6.144   8.394 -1.2717  1.4886  0.3752
 8413TIP3   OH249433   3.913   2.511   9.445 -0.7310 -0.0051 -0.3233
 8413TIP3    H149434   3.937   2.550   9.529  0.0449 -1.2975  0.0678
 8413TIP3    H249435   3.894   2.586   9.388  1.3305  0.9754  0.2183
 8414TIP3   OH249436   1.750   6.579   8.354 -0.3198 -0.0655  0.1349
 8414TIP3    H149437   1.664   6.549   8.323 -0.4759  1.1944 -0.7035
 8414TIP3    H249438   1.739   6.672   8.369  0.5265 -0.1464  1.4135
 8415TIP3   OH249439   0.360   1.037   9.502 -0.0731 -0.0137  0.1990
 8415TIP3    H149440   0.447   1.051   9.464  0.1420 -0.6089  0.4500
 8415TIP3    H249441   0.378   1.010   9.592 -0.5634  1.0328  0.6201
 8416TIP3   OH249442   5.253   3.078   8.766 -0.0531 -0.5515 -0.0359
 8416TIP3    H149443   5.326   3.121   8.723  0.0091 -0.3180  0.2989
 8416TIP3    H249444   5.177   3.097   8.710  0.0774 -0.4931 -0.1925
 8417TIP3   OH249445   1.328   4.909   8.942  0.4744  0.2063  0.0691
 8417TIP3    H149446   1.342   4.834   8.883  0.5295  0.3865 -0.1483
 8417TIP3    H249447   1.325   4.870   9.029  2.0519  0.1049  0.1162
 8418TIP3   OH249448   2.450   2.314  10.529  0.1519  0.0442  0.6540
 8418TIP3    H149449   2.538   2.279  10.515 -0.2912 -0.6374 -0.5352
 8418TIP3    H249450   2.458   2.407  10.509  0.3646 -0.2212 -0.5368
 8419TIP3   OH249451   6.679   1.362   9.121  0.0741  0.5618 -0.5372
 8419TIP3    H149452   6.585   1.383   9.123  0.3082  1.6918 -0.3867
 8419TIP3    H249453   6.712   1.411   9.045  0.8185  1.5430  0.3842
 8420TIP3   OH249454   5.077   2.410   8.657 -0.5994 -0.1060 -0.3724
 8420TIP3    H149455   5.013   2.481   8.656 -0.7233 -0.2051 -1.7346
 8420TIP3    H249456   5.144   2.438   8.719 -0.0713  1.7524 -1.6836
 8421TIP3   OH249457   5.308   1.252  10.186 -0.5264  0.1455 -0.2536
 8421TIP3    H149458   5.396   1.241  10.149 -0.0120  0.4252  0.8496
 8421TIP3    H249459   5.257   1.181  10.146  1.0652 -2.2883  1.6765
 8422TIP3   OH249460   1.006   0.102   9.000  0.1019 -0.4729 -0.0319
 8422TIP3    H149461   1.065   0.053   9.058  0.6761  1.4534  1.1369
 8422TIP3    H249462   0.988   0.183   9.049  1.1135  1.5612 -2.7692
 8423TIP3   OH249463   6.115   1.659  10.552 -0.1001 -0.0253 -0.3938
 8423TIP3    H149464   6.158   1.682  10.469  0.6179  0.0791  0.0002
 8423TIP3    H249465   6.024   1.689  10.541  0.2383  0.8985 -0.7731
 8424TIP3   OH249466   6.434   1.461  10.727  0.3217 -0.1217  0.0812
 8424TIP3    H149467   6.420   1.509  10.808 -0.8161 -0.0586 -0.1337
 8424TIP3    H249468   6.394   1.516  10.659  1.8242  0.1384 -0.6362
 8425TIP3   OH249469   3.005   4.367   7.972  0.5137 -0.2213 -0.3710
 8425TIP3    H149470   3.010   4.452   8.016  0.0799  0.0294 -0.7973
 8425TIP3    H249471   3.084   4.363   7.919  0.2714  0.1496 -0.7612
 8426TIP3   OH249472   0.235   2.361  10.497 -0.0560  0.0899 -0.0984
 8426TIP3    H149473   0.329   2.362  10.515 -0.0848 -0.4839  0.1229
 8426TIP3    H249474   0.200   2.301  10.563 -0.4827 -0.2332 -0.6155
 8427TIP3   OH249475   4.901   4.524   8.987 -0.1757  0.1867 -0.1062
 8427TIP3    H149476   4.886   4.539   8.894 -1.4062  2.8782  0.4510
 8427TIP3    H249477   4.818   4.490   9.020  0.8470 -2.7992 -0.2384
 8428TIP3   OH249478   0.186   2.682  10.433 -0.1817 -0.1752  0.0460
 8428TIP3    H149479   0.125   2.617  10.398 -0.5853 -1.0361  2.1575
 8428TIP3    H249480   0.131   2.755  10.460 -0.1247 -0.3226  0.5821
 8429TIP3   OH249481   4.595   6.290   8.828  0.0847 -0.3216  0.6242
 8429TIP3    H149482   4.675   6.270   8.877  1.2929  0.1383 -1.0663
 8429TIP3    H249483   4.570   6.207   8.787 -0.0921 -0.3823  0.8555
 8430TIP3   OH249484   6.737   3.084   8.592  0.2671 -0.0348  0.1151
 8430TIP3    H149485   6.781   3.044   8.667 -0.4422  0.3346  0.7408
 8430TIP3    H249486   6.740   3.018   8.523 -1.4981 -1.4619  1.3365
 8431TIP3   OH249487   3.906   2.188  11.413  0.2628  0.2059  0.0190
 8431TIP3    H149488   3.966   2.159  11.482  0.6756  0.7342 -0.1129
 8431TIP3    H249489   3.958   2.186  11.333 -0.1269 -0.1047 -0.2323
 8432TIP3   OH249490   4.023   2.847  10.877 -0.2439 -0.1140 -0.8265
 8432TIP3    H149491   4.109   2.881  10.854  0.1932 -1.4117 -1.1843
 8432TIP3    H249492   4.041   2.764  10.922 -1.2944 -0.2317 -0.5948
 8433TIP3   OH249493   2.634   0.819   9.689 -0.0382 -0.0981 -0.5521
 8433TIP3    H149494   2.564   0.875   9.722  0.5000 -0.0390  0.5188
 8433TIP3    H249495   2.705   0.829   9.752  0.4771 -1.1414 -0.9397
 8434TIP3   OH249496   3.772   4.785  10.244  0.0151 -0.5076 -0.0372
 8434TIP3    H149497   3.704   4.797  10.177  0.3993 -1.4101 -0.6188
 8434TIP3    H249498   3.780   4.690  10.252  0.4119 -0.4038  0.8512
 8435TIP3   OH249499   3.490   1.573   8.400 -0.8887 -0.0002  0.2349
 8435TIP3    H149500   3.504   1.613   8.314 -1.4004  0.3583  0.3154
 8435TIP3    H249501   3.419   1.510   8.386 -1.1510  0.2480  0.4552
 8436TIP3   OH249502   2.870   6.100   9.999 -0.0002 -0.5137  0.6516
 8436TIP3    H149503   2.938   6.083   9.934  0.7087  1.0401  0.9478
 8436TIP3    H249504   2.804   6.151   9.952 -0.0427 -0.3825  0.8512
 8437TIP3   OH249505   2.708   2.671  10.319  0.3072  0.5465 -0.4645
 8437TIP3    H149506   2.804   2.677  10.328  0.3014  0.0321 -0.0261
 8437TIP3    H249507   2.676   2.751  10.361  0.4703 -0.1387  1.0409
 8438TIP3   OH249508   1.533   5.307  10.677  0.6303  0.0200  0.1856
 8438TIP3    H149509   1.485   5.359  10.612  1.6909  1.8995  0.8333
 8438TIP3    H249510   1.605   5.268  10.627  0.0201 -0.5976 -0.2349
 8439TIP3   OH249511   6.313   4.783   9.477  0.1400  0.2293  0.4622
 8439TIP3    H149512   6.241   4.808   9.419 -0.1627 -2.6192 -0.5468
 8439TIP3    H249513   6.287   4.814   9.563 -1.9747 -0.1248  0.0036
 8440TIP3   OH249514   3.430   6.141   9.317 -0.7344 -0.1915  0.1640
 8440TIP3    H149515   3.503   6.090   9.350 -1.4873 -0.5870  1.2683
 8440TIP3    H249516   3.431   6.126   9.222  0.5792 -0.2106  0.1696
 8441TIP3   OH249517   5.277   2.098  10.256 -0.0501 -0.2344  0.0843
 8441TIP3    H149518   5.198   2.105  10.203 -0.8996  1.2962  1.4744
 8441TIP3    H249519   5.346   2.139  10.204 -1.3887  3.6104  1.0475
 8442TIP3   OH249520   1.540   6.082   9.447  0.5603  0.2476  0.0013
 8442TIP3    H149521   1.579   6.169   9.435 -1.2391  1.2492  0.8139
 8442TIP3    H249522   1.472   6.077   9.380  0.1357 -0.1861  0.4539
 8443TIP3   OH249523   0.746   4.973   9.036  0.8396 -0.1743  0.1989
 8443TIP3    H149524   0.698   5.047   8.999  0.6955 -0.0861  0.5580
 8443TIP3    H249525   0.680   4.922   9.083  0.7262 -1.1559 -0.9818
 8444TIP3   OH249526   0.095   1.880  10.909 -0.0366  0.1040 -0.2918
 8444TIP3    H149527   0.055   1.966  10.910  1.1322  0.7143  2.3222
 8444TIP3    H249528   0.026   1.821  10.939 -0.0654  0.5756  0.5986
 8445TIP3   OH249529   2.180   1.956  10.453  0.3504 -0.0951 -0.0477
 8445TIP3    H149530   2.168   2.015  10.379  2.5002 -0.8902 -1.1240
 8445TIP3    H249531   2.144   2.003  10.528 -2.0981  0.6481 -1.5744
 8446TIP3   OH249532   2.501   1.686   9.155 -0.3578  0.0855  0.0289
 8446TIP3    H149533   2.511   1.722   9.067 -1.4062 -2.4840 -1.2400
 8446TIP3    H249534   2.467   1.758   9.207  1.4641  2.0369 -1.3237
 8447TIP3   OH249535   5.921   2.146  10.889 -0.5299 -0.3947 -0.4621
 8447TIP3    H149536   5.973   2.066  10.883 -0.7076 -0.4543 -1.5144
 8447TIP3    H249537   5.921   2.181  10.800 -0.6619  0.6459 -0.0649
 8448TIP3   OH249538   6.389   6.416   9.619 -0.2673 -0.2415  0.0713
 8448TIP3    H149539   6.468   6.423   9.566  0.3442 -0.1877  0.9748
 8448TIP3    H249540   6.364   6.324   9.614  1.0041 -0.6930  1.3808
 8449TIP3   OH249541   1.905   2.837   9.746  0.2106  0.2780 -0.1873
 8449TIP3    H149542   1.840   2.842   9.676  0.3849 -1.0407 -0.4746
 8449TIP3    H249543   1.987   2.817   9.700  0.2181 -1.1542  0.4285
 8450TIP3   OH249544   3.673   3.650  11.189 -0.4697 -0.5205  0.5225
 8450TIP3    H149545   3.629   3.694  11.262  0.6008 -0.3778  1.0962
 8450TIP3    H249546   3.731   3.587  11.231 -0.6785 -1.2514 -0.2490
 8451TIP3   OH249547   5.599   3.524   9.745  0.1685 -0.6054 -0.4157
 8451TIP3    H149548   5.634   3.508   9.833  2.3013  0.4345 -0.9954
 8451TIP3    H249549   5.657   3.590   9.709 -0.2378 -1.4955 -2.8596
 8452TIP3   OH249550   6.606   2.304  10.682  0.1972 -0.4004  0.1567
 8452TIP3    H149551   6.686   2.290  10.633 -0.8642 -0.8341 -1.5544
 8452TIP3    H249552   6.601   2.399  10.692  1.2149 -0.4062  0.8244
 8453TIP3   OH249553   5.950   2.987   8.277  0.4235  0.0456  0.1555
 8453TIP3    H149554   5.898   2.957   8.351  0.6789 -2.0558 -0.4573
 8453TIP3    H249555   6.039   2.955   8.295  0.7099  0.4076 -0.5624
 8454TIP3   OH249556   3.120   1.311   8.673  0.3586 -0.4593  0.2656
 8454TIP3    H149557   3.105   1.248   8.603 -0.6918 -2.5761  2.2794
 8454TIP3    H249558   3.059   1.383   8.655  0.1176 -0.9468 -0.9509
 8455TIP3   OH249559   5.650   3.148  10.739 -0.1270 -0.2891 -0.2303
 8455TIP3    H149560   5.656   3.105  10.653  0.2159 -0.0726 -0.3157
 8455TIP3    H249561   5.559   3.134  10.766 -0.0197 -1.0725 -0.2552
 8456TIP3   OH249562   5.298   2.143   8.712 -0.6563 -0.1544 -0.1399
 8456TIP3    H149563   5.321   2.232   8.738  1.8487 -0.7936  0.0921
 8456TIP3    H249564   5.329   2.089   8.785 -0.5131 -1.3436 -1.0623
 8457TIP3   OH249565   1.483   0.124  10.238 -0.0048  0.4930 -0.2043
 8457TIP3    H149566   1.536   0.188  10.190 -0.7433  0.0398 -1.6745
 8457TIP3    H249567   1.537   0.100  10.313 -0.0229  3.3956  0.8460
 8458TIP3   OH249568   5.393   3.882  11.611 -0.0661  0.0029  0.1014
 8458TIP3    H149569   5.480   3.846  11.593 -0.1919  0.3414 -1.3288
 8458TIP3    H249570   5.389   3.962  11.559 -0.6390  0.8650  1.4510
 8459TIP3   OH249571   1.826   5.395   8.841 -0.1071  0.0312  0.2675
 8459TIP3    H149572   1.773   5.317   8.824  1.1270 -0.7482 -0.1558
 8459TIP3    H249573   1.776   5.444   8.906 -0.6082 -1.4446  1.0561
 8460TIP3   OH249574   0.180   3.455   9.714 -0.4621 -0.6792  0.1909
 8460TIP3    H149575   0.238   3.487   9.783 -0.8229 -0.9558  0.6286
 8460TIP3    H249576   0.113   3.404   9.761 -2.1768  1.2095 -0.0724
 8461TIP3   OH249577   2.651   3.861  11.532 -0.3383  0.3278  0.3758
 8461TIP3    H149578   2.604   3.942  11.515 -1.1001 -0.3116 -0.7182
 8461TIP3    H249579   2.660   3.857  11.627  0.7771  2.2645  0.3857
 8462TIP3   OH249580   4.695   4.794   8.257  0.2585 -0.7239  0.0675
 8462TIP3    H149581   4.625   4.788   8.323  0.0690  0.4602 -0.0050
 8462TIP3    H249582   4.744   4.872   8.281  2.0099 -1.9255  0.5157
 8463TIP3   OH249583   4.108   3.051   8.053  0.2545 -0.7478 -0.5257
 8463TIP3    H149584   4.044   3.048   8.124  1.0806 -0.2387  0.2537
 8463TIP3    H249585   4.169   2.980   8.072  2.3152  1.3186  1.1037
 8464TIP3   OH249586   0.095   6.346  10.808  0.4985  0.1534 -0.6027
 8464TIP3    H149587   0.148   6.424  10.790 -0.3257  0.6608 -0.8538
 8464TIP3    H249588   0.005   6.378  10.810  0.1498 -0.8013 -0.7397
 8465TIP3   OH249589   1.114   5.074   9.066 -0.3959  0.2372  0.2569
 8465TIP3    H149590   1.112   5.030   8.981  0.4336 -1.3132  0.9920
 8465TIP3    H249591   1.069   5.013   9.125  0.5723  0.4865  1.2781
 8466TIP3   OH249592   5.697   2.215  10.038  0.0723  0.3395 -0.3981
 8466TIP3    H149593   5.762   2.145  10.029 -1.3857 -1.2680  0.9504
 8466TIP3    H249594   5.630   2.194   9.973 -0.2028  0.6761 -0.2251
 8467TIP3   OH249595   4.051   5.879  10.556  0.7800  0.8828 -0.0436
 8467TIP3    H149596   4.117   5.880  10.486 -0.9010 -1.0867 -1.8174
 8467TIP3    H249597   4.055   5.791  10.591  0.8559  1.5439  1.6854
 8468TIP3   OH249598   4.020   6.339   8.424 -0.0237  0.1132 -0.0548
 8468TIP3    H149599   3.927   6.362   8.420  0.1887  0.8038 -2.6562
 8468TIP3    H249600   4.066   6.423   8.414  0.8757 -0.3011  0.5247
 8469TIP3   OH249601   4.226   2.325  10.908  0.0185 -0.3521  0.2145
 8469TIP3    H149602   4.218   2.248  10.964 -0.1422  0.1697  0.9141
 8469TIP3    H249603   4.145   2.325  10.857 -0.1081 -0.4894  0.4135
 8470TIP3   OH249604   2.817   0.993  10.451 -0.8362  0.0503  0.6744
 8470TIP3    H149605   2.907   1.014  10.426 -0.9000 -0.6696 -0.2137
 8470TIP3    H249606   2.778   0.959  10.371 -1.3269 -1.4778  1.5274
 8471TIP3   OH249607   4.670   0.230   9.978  0.3502 -0.2537 -0.6301
 8471TIP3    H149608   4.746   0.173   9.990  0.4522  0.0548  0.2658
 8471TIP3    H249609   4.604   0.174   9.936  0.3831 -1.0894  0.4004
 8472TIP3   OH249610   3.744   0.170   9.670  0.2796 -0.6889 -0.0956
 8472TIP3    H149611   3.671   0.123   9.630 -0.4279 -0.5604  1.0190
 8472TIP3    H249612   3.762   0.122   9.751  1.4044 -0.6843 -0.3262
 8473TIP3   OH249613   5.528   4.434  10.001 -0.2840 -0.8697 -0.3543
 8473TIP3    H149614   5.583   4.380   9.945  0.7437  1.6178 -1.9197
 8473TIP3    H249615   5.442   4.432   9.959  0.2242  0.1561 -1.5125
 8474TIP3   OH249616   2.656   1.776  11.081  0.7246 -0.0412 -0.3692
 8474TIP3    H149617   2.748   1.802  11.090  1.4546 -2.6750  0.9659
 8474TIP3    H249618   2.661   1.690  11.038 -1.1500 -0.0247 -0.6616
 8475TIP3   OH249619   3.192   0.070   9.817 -0.6010 -0.1512  0.1837
 8475TIP3    H149620   3.185  -0.025   9.826  2.9346 -0.4362  1.5690
 8475TIP3    H249621   3.210   0.084   9.724  0.9439 -1.1227  0.2952
 8476TIP3   OH249622   2.709   5.873   9.017 -0.1344  0.4894 -0.4513
 8476TIP3    H149623   2.708   5.818   9.095  0.3384 -0.2441 -0.9518
 8476TIP3    H249624   2.689   5.961   9.049  1.1610  0.4079  0.6646
 8477TIP3   OH249625   4.417   6.364   8.236  0.2203  0.4538  0.7427
 8477TIP3    H149626   4.447   6.399   8.153  0.0043  0.9482  0.8722
 8477TIP3    H249627   4.400   6.441   8.290  0.4531  0.1368  1.2779
 8478TIP3   OH249628   1.154   0.033  10.504  0.6353  0.0034  0.3394
 8478TIP3    H149629   1.196   0.117  10.524 -0.9012  0.9573 -0.1854
 8478TIP3    H249630   1.111   0.048  10.420  0.3896 -1.3480  0.2068
 8479TIP3   OH249631   0.960   1.835  10.794  0.0271  0.1116  0.1000
 8479TIP3    H149632   1.000   1.879  10.868 -0.6375  0.6107  0.1735
 8479TIP3    H249633   1.028   1.834  10.727  0.0264  1.3484  0.0624
 8480TIP3   OH249634   3.512   0.795   9.718 -0.1422  0.1086 -0.0461
 8480TIP3    H149635   3.455   0.849   9.664 -0.7178  1.9013  2.1919
 8480TIP3    H249636   3.548   0.856   9.783 -0.2561 -2.0677  2.1807
 8481TIP3   OH249637   0.325   3.556   8.290 -0.2260  0.2219  0.1928
 8481TIP3    H149638   0.414   3.520   8.295  0.0597  0.7545 -0.6935
 8481TIP3    H249639   0.307   3.588   8.379  0.9972  1.2760  0.0951
 8482TIP3   OH249640   0.561   1.122   8.725 -0.8135 -0.0546 -0.1210
 8482TIP3    H149641   0.621   1.182   8.768 -1.1654  0.4369 -0.3106
 8482TIP3    H249642   0.495   1.178   8.684 -0.8037 -0.5358 -0.8199
 8483TIP3   OH249643   2.099   6.054  10.195 -0.2705  0.0255  0.3522
 8483TIP3    H149644   2.017   6.042  10.243 -0.6217  0.0167 -0.2360
 8483TIP3    H249645   2.117   5.968  10.156 -1.1754  0.5708 -1.3549
 8484TIP3   OH249646   2.084   6.345  11.375  0.0977 -0.0884 -1.0140
 8484TIP3    H149647   2.061   6.255  11.350 -1.5760  0.1445 -0.4856
 8484TIP3    H249648   2.171   6.338  11.413 -0.4390 -1.7157  0.0303
 8485TIP3   OH249649   1.068   5.003   9.780  0.2910  0.4474  0.0609
 8485TIP3    H149650   1.138   5.059   9.813 -0.2908  0.4930  1.2758
 8485TIP3    H249651   1.006   5.063   9.739  1.2646  0.3445 -1.6703
 8486TIP3   OH249652   4.751   3.057   8.087 -0.0260 -0.8431  0.2938
 8486TIP3    H149653   4.791   3.091   8.007  0.9016  2.6095  2.0438
 8486TIP3    H249654   4.824   3.031   8.143 -0.5126 -0.4076  1.1554
 8487TIP3   OH249655   6.105   1.590   8.258 -0.2004  0.4977 -0.0142
 8487TIP3    H149656   6.046   1.661   8.234 -2.6855 -0.6869  2.1136
 8487TIP3    H249657   6.162   1.627   8.325 -0.6251  0.8501  0.1544
 8488TIP3   OH249658   3.357   2.643   9.853 -0.5925  0.3914 -0.3732
 8488TIP3    H149659   3.277   2.646   9.907  0.4979 -0.6297  1.4061
 8488TIP3    H249660   3.409   2.717   9.884 -0.2029  0.1390 -0.4251
 8489TIP3   OH249661   3.717   2.730   9.541  0.2077  0.3144  0.0168
 8489TIP3    H149662   3.749   2.655   9.593  4.1608  0.8462 -1.2904
 8489TIP3    H249663   3.628   2.705   9.516  1.4383 -4.2934 -0.7948
 8490TIP3   OH249664   0.390   4.626   8.342  0.0111 -0.1197  0.3394
 8490TIP3    H149665   0.325   4.561   8.366  1.2697 -0.9062  1.7221
 8490TIP3    H249666   0.423   4.597   8.257  1.8069 -2.3798  1.6849
 8491TIP3   OH249667   3.888   3.920   9.878 -0.4731 -0.1120  0.2371
 8491TIP3    H149668   3.799   3.890   9.862 -0.6916  0.1287  0.9411
 8491TIP3    H249669   3.877   4.001   9.928  0.1389 -0.5765  1.1557
 8492TIP3   OH249670   6.726   0.241  10.676  1.0769  0.3557  0.4926
 8492TIP3    H149671   6.711   0.149  10.699 -0.1039 -0.2115 -2.1001
 8492TIP3    H249672   6.658   0.289  10.723 -1.6127 -0.8052 -1.8451
 8493TIP3   OH249673   2.539   5.685   8.632  0.3205  0.3488  0.1679
 8493TIP3    H149674   2.601   5.677   8.560  0.9249 -0.1629  0.7378
 8493TIP3    H249675   2.545   5.777   8.659  0.7479  0.3289  0.1426
 8494TIP3   OH249676   6.021   6.410   7.920 -0.3691 -0.5894  0.0056
 8494TIP3    H149677   5.972   6.491   7.939  0.4074 -0.5452  2.0639
 8494TIP3    H249678   6.026   6.407   7.825 -0.1439  1.9771 -0.1291
 8495TIP3   OH249679   5.901   0.272   8.554 -0.2469  0.0700 -0.0416
 8495TIP3    H149680   5.816   0.239   8.581  0.1194  1.1628  2.7920
 8495TIP3    H249681   5.934   0.319   8.631  2.9570 -0.3824 -0.9978
 8496TIP3   OH249682   2.837   5.732   9.873 -0.0244  0.2044 -0.0224
 8496TIP3    H149683   2.774   5.776   9.816  1.5912  2.5119 -0.1793
 8496TIP3    H249684   2.817   5.766   9.961 -0.4872 -0.9055  0.3197
 8497TIP3   OH249685   1.825   5.798   8.460  0.1298  0.1326  0.5239
 8497TIP3    H149686   1.904   5.808   8.514  0.5682  2.8015 -0.4260
 8497TIP3    H249687   1.755   5.837   8.513 -0.1361 -0.3008  0.4969
 8498TIP3   OH249688   1.938   5.723  10.645  0.1894  0.4738  0.4061
 8498TIP3    H149689   1.925   5.629  10.658 -0.3294  0.5569  0.5147
 8498TIP3    H249690   1.854   5.755  10.612 -0.0102  1.0889  1.4550
 8499TIP3   OH249691   0.188   1.354   7.429 -0.0846  0.3010  0.5292
 8499TIP3    H149692   0.281   1.364   7.453 -0.4454  1.8618  1.4803
 8499TIP3    H249693   0.153   1.294   7.495  0.4880 -1.2987 -0.5791
 8500TIP3   OH249694   2.722   5.250  10.254 -0.2216  0.0246 -0.0488
 8500TIP3    H149695   2.767   5.167  10.245 -1.0804 -0.2294 -3.4067
 8500TIP3    H249696   2.788   5.310  10.288  1.9049 -0.9523 -2.1687
 8501TIP3   OH249697   0.353   2.888   8.598  0.2525  0.2948 -0.3933
 8501TIP3    H149698   0.437   2.893   8.643  0.6628  0.3512 -1.1392
 8501TIP3    H249699   0.292   2.859   8.664  1.2831 -1.9827 -0.3540
 8502TIP3   OH249700   5.956   1.812   8.008 -0.2092  0.4273 -0.3893
 8502TIP3    H149701   5.877   1.768   8.040  1.4818 -2.9721 -0.3500
 8502TIP3    H249702   5.954   1.800   7.913 -0.3482  1.5095 -0.5347
 8503TIP3   OH249703   0.715   6.459   7.938 -0.1201 -0.2898 -0.1763
 8503TIP3    H149704   0.748   6.541   7.903  0.2875  0.5612  2.0455
 8503TIP3    H249705   0.646   6.433   7.876  2.3697 -0.4410 -3.1337
 8504TIP3   OH249706   5.507   3.903  10.509 -0.3579  0.0735 -0.2322
 8504TIP3    H149707   5.601   3.913  10.522 -0.1147 -0.6144 -1.3267
 8504TIP3    H249708   5.477   3.989  10.481 -0.1237  0.3990  0.5190
 8505TIP3   OH249709   2.390   0.374   9.886  0.1436 -0.5798 -0.8149
 8505TIP3    H149710   2.458   0.337   9.942  0.5616  2.9547  1.3193
 8505TIP3    H249711   2.438   0.414   9.813  0.0894 -0.7818 -0.9589
 8506TIP3   OH249712   2.361   3.601   9.081  0.4324  0.2176  0.6871
 8506TIP3    H149713   2.406   3.673   9.127  0.6447  2.2263 -2.3847
 8506TIP3    H249714   2.270   3.609   9.109  0.8136  0.2495  2.0290
 8507TIP3   OH249715   0.667   2.084   9.034 -0.2858 -0.0140  0.1348
 8507TIP3    H149716   0.714   2.020   8.980  1.0439  0.6728  0.4496
 8507TIP3    H249717   0.624   2.031   9.101 -1.4076 -0.8168 -1.1663
 8508TIP3   OH249718   1.104   1.251  11.044 -0.0991  0.3886  0.2992
 8508TIP3    H149719   1.087   1.292  10.959  1.5724 -0.8438 -0.7092
 8508TIP3    H249720   1.193   1.217  11.036 -0.0534 -0.1073  2.4265
 8509TIP3   OH249721   0.801   3.533   9.226 -0.2473 -0.3546  0.6245
 8509TIP3    H149722   0.888   3.551   9.189 -0.7499 -0.2869 -0.5596
 8509TIP3    H249723   0.759   3.619   9.229 -0.2593 -0.3806  1.2435
 8510TIP3   OH249724   3.018   6.129   8.653 -0.4318  0.2489 -0.1114
 8510TIP3    H149725   3.040   6.088   8.737 -0.4441  0.1653 -0.1488
 8510TIP3    H249726   2.937   6.177   8.671 -1.3599 -1.1369 -0.5001
 8511TIP3   OH249727   0.903   2.876  11.735  0.0045 -0.8073 -0.0175
 8511TIP3    H149728   0.928   2.837  11.651 -1.4176 -0.3388 -0.6925
 8511TIP3    H249729   0.886   2.968  11.714 -0.5776 -0.7379  0.7514
 8512TIP3   OH249730   1.449   4.777  10.605 -0.0026 -0.4713 -0.3309
 8512TIP3    H149731   1.525   4.833  10.625 -0.0510 -0.5934  0.2298
 8512TIP3    H249732   1.483   4.688  10.610  0.2677 -0.4883 -2.0576
 8513TIP3   OH249733   1.922   2.521  10.544  0.1773 -0.4724 -0.4242
 8513TIP3    H149734   1.956   2.608  10.525 -0.5986 -0.4058 -1.6523
 8513TIP3    H249735   1.979   2.462  10.495  0.4700 -0.6241  0.0979
 8514TIP3   OH249736   2.372   3.448  11.289 -0.2512 -0.1071  0.4284
 8514TIP3    H149737   2.354   3.542  11.292  0.2711  0.0001  0.3914
 8514TIP3    H249738   2.393   3.424  11.379  0.4086 -0.0206  0.3010
 8515TIP3   OH249739   2.722   1.132   9.776 -0.3079  0.0730 -0.3325
 8515TIP3    H149740   2.797   1.091   9.820 -0.7193 -0.3806 -0.0390
 8515TIP3    H249741   2.656   1.142   9.845 -0.8033 -0.2520 -0.7513
 8516TIP3   OH249742   0.249   1.548   9.477 -0.3527  0.2196  0.2909
 8516TIP3    H149743   0.250   1.461   9.517  0.5583 -0.0045 -0.1799
 8516TIP3    H249744   0.234   1.531   9.384 -0.6212  0.6007  0.2634
 8517TIP3   OH249745   6.606   1.984   9.307 -0.2860  0.1553 -0.3798
 8517TIP3    H149746   6.619   1.945   9.220  0.5353 -0.5256  0.0349
 8517TIP3    H249747   6.517   1.959   9.331 -0.3881  0.0320 -0.8676
 8518TIP3   OH249748   3.518   4.796   8.934 -0.0803  0.4578 -0.3683
 8518TIP3    H149749   3.442   4.752   8.897 -0.3369  0.4261  0.1844
 8518TIP3    H249750   3.510   4.887   8.906  1.0092 -0.0192 -2.4106
 8519TIP3   OH249751   0.099   0.865  11.822 -0.1862 -0.1331  0.7158
 8519TIP3    H149752   0.175   0.868  11.880 -0.3761 -2.0404  1.1427
 8519TIP3    H249753   0.023   0.866  11.881 -0.4150 -0.7833  0.4462
 8520TIP3   OH249754   0.721   3.117   8.260  0.6033  0.1247  0.3378
 8520TIP3    H149755   0.637   3.121   8.305 -0.3490 -0.9047 -1.2983
 8520TIP3    H249756   0.757   3.032   8.284  0.4921 -0.0584 -0.1346
 8521TIP3   OH249757   5.636   2.785   9.133  0.1517 -0.4890 -0.6233
 8521TIP3    H149758   5.703   2.826   9.188 -0.6026 -0.9986  0.7185
 8521TIP3    H249759   5.676   2.702   9.104 -0.0176 -0.9580  0.4627
 8522TIP3   OH249760   3.307   3.667   9.092 -0.0598  0.7134  0.1297
 8522TIP3    H149761   3.316   3.576   9.064 -0.2853  0.9970 -0.9270
 8522TIP3    H249762   3.342   3.718   9.018  2.0372  1.4416  1.5304
 8523TIP3   OH249763   2.975   6.089  10.283  0.2168  0.1576 -0.0745
 8523TIP3    H149764   2.935   6.060  10.201  0.7778  0.1605 -0.3565
 8523TIP3    H249765   3.063   6.051  10.281 -0.4074 -1.4642  1.4351
 8524TIP3   OH249766   4.607   3.727   8.366  0.1783  0.3937 -0.1586
 8524TIP3    H149767   4.661   3.799   8.397 -0.8188  0.7614  0.8122
 8524TIP3    H249768   4.553   3.765   8.297  0.9115  0.1098 -0.8986
 8525TIP3   OH249769   5.430   6.448   8.980  0.6090  0.0548 -0.6830
 8525TIP3    H149770   5.467   6.494   9.055  0.3843 -1.4135  0.3615
 8525TIP3    H249771   5.457   6.500   8.904  0.1459  2.0508  0.4401
 8526TIP3   OH249772   6.234   0.667   7.574  0.4573 -0.0271  0.2537
 8526TIP3    H149773   6.252   0.582   7.536  1.6259  0.3948 -0.1721
 8526TIP3    H249774   6.170   0.650   7.643 -0.3387 -1.0483 -0.7017
 8527TIP3   OH249775   1.246   5.855   8.338 -0.0680 -0.2439  0.3152
 8527TIP3    H149776   1.222   5.772   8.296  0.5506 -0.0281 -0.5073
 8527TIP3    H249777   1.287   5.905   8.268 -0.3987  0.7472  0.8196
 8528TIP3   OH249778   0.379   2.565   9.729  0.6404 -0.1640 -0.4712
 8528TIP3    H149779   0.361   2.646   9.777 -1.8044 -0.7118 -0.3659
 8528TIP3    H249780   0.394   2.593   9.638  1.4753  0.5212 -0.1348
 8529TIP3   OH249781   2.120   2.460   8.963 -0.4229  0.3494 -0.2415
 8529TIP3    H149782   2.142   2.368   8.953  2.0448  0.9039 -0.4278
 8529TIP3    H249783   2.134   2.498   8.876  0.0941  1.1680  0.1793
 8530TIP3   OH249784   6.638   1.710  10.942  0.5046 -0.1823 -1.0795
 8530TIP3    H149785   6.671   1.669  11.021  1.2194  1.2475 -0.6005
 8530TIP3    H249786   6.542   1.705  10.950  0.5702  0.0358 -0.0686
 8531TIP3   OH249787   5.041   6.282  10.271  0.0975  0.2590 -0.0262
 8531TIP3    H149788   5.020   6.189  10.271 -0.8514  0.4485 -0.9074
 8531TIP3    H249789   4.957   6.325  10.252  0.8692  1.1738 -1.6074
 8532TIP3   OH249790   2.469   3.376   8.535 -0.4445 -0.3267 -0.6376
 8532TIP3    H149791   2.403   3.328   8.585  0.4605 -0.9649 -0.0344
 8532TIP3    H249792   2.544   3.317   8.531  0.4239  0.7391 -0.5128
 8533TIP3   OH249793   5.740   6.169   8.801 -0.0564  0.2380 -0.1745
 8533TIP3    H149794   5.647   6.177   8.782 -0.2406 -0.9971  0.0883
 8533TIP3    H249795   5.766   6.088   8.757  0.7790  0.3075  0.1742
 8534TIP3   OH249796   4.393   4.184  10.989  0.1978  0.1730 -0.3364
 8534TIP3    H149797   4.373   4.097  11.025  0.8202 -0.0910 -0.6112
 8534TIP3    H249798   4.352   4.183  10.902  2.6476 -0.9702 -1.5731
 8535TIP3   OH249799   1.381   1.920  11.517  0.4004  0.0944  0.4190
 8535TIP3    H149800   1.358   1.843  11.569 -0.9537 -0.8148 -1.4285
 8535TIP3    H249801   1.425   1.884  11.440  0.6752  1.2513  0.0212
 8536TIP3   OH249802   4.441   5.790   8.577 -0.1919 -0.1045  0.1676
 8536TIP3    H149803   4.390   5.869   8.596 -0.7576 -0.0947 -1.2352
 8536TIP3    H249804   4.532   5.816   8.592 -0.4750  0.3424  1.1925
 8537TIP3   OH249805   2.678   0.060   9.603 -0.0724  0.4486 -0.0584
 8537TIP3    H149806   2.758   0.078   9.555 -0.6669  1.4066 -0.7374
 8537TIP3    H249807   2.616   0.127   9.572 -1.4913 -0.9817 -0.4290
 8538TIP3   OH249808   1.959   1.486  11.277  0.0413  0.3009  0.1445
 8538TIP3    H149809   1.903   1.423  11.230  2.1870 -1.0771 -0.7553
 8538TIP3    H249810   1.940   1.570  11.235  0.5349 -0.5814 -1.9959
 8539TIP3   OH249811   0.571   1.266  10.762  0.1749 -0.5819 -0.0957
 8539TIP3    H149812   0.635   1.311  10.707  1.3795 -1.7612  0.2853
 8539TIP3    H249813   0.547   1.188  10.713  0.6566 -1.2338  0.6819
 8540TIP3   OH249814   2.514   3.186  10.609 -0.2405 -0.2211 -0.1584
 8540TIP3    H149815   2.439   3.148  10.654  1.3679 -4.4364 -0.6183
 8540TIP3    H249816   2.590   3.156  10.659  1.2957  1.0434 -1.6225
 8541TIP3   OH249817   4.032   5.723   9.463 -0.5320 -0.1077 -0.5385
 8541TIP3    H149818   3.967   5.790   9.484 -1.2901 -0.7524 -0.7811
 8541TIP3    H249819   3.988   5.640   9.482  0.7659 -0.5324  0.8109
 8542TIP3   OH249820   5.111   3.663   8.663 -0.4858 -0.2220 -0.2086
 8542TIP3    H149821   5.194   3.697   8.629 -0.8298  0.5401 -0.3090
 8542TIP3    H249822   5.045   3.724   8.631 -1.0745 -0.7399 -0.0047
 8543TIP3   OH249823   6.313   5.895   8.396  0.0762  0.0292 -0.1024
 8543TIP3    H149824   6.346   5.839   8.325  2.1442  0.0397  0.7789
 8543TIP3    H249825   6.341   5.850   8.476 -0.4500  1.0491  0.6716
 8544TIP3   OH249826   3.518   6.512   8.693 -0.6669 -0.3457  0.2465
 8544TIP3    H149827   3.610   6.535   8.706 -0.6941 -0.2781  0.3221
 8544TIP3    H249828   3.513   6.480   8.603 -0.7613  0.6102 -0.0916
 8545TIP3   OH249829   6.564   5.744  10.931 -0.1220  0.2443  0.5518
 8545TIP3    H149830   6.518   5.676  10.980 -1.1369  0.6866  0.2338
 8545TIP3    H249831   6.646   5.703  10.905 -0.4894 -0.6878  0.8142
 8546TIP3   OH249832   6.099   3.585   8.858 -0.5266 -0.1633  0.5146
 8546TIP3    H149833   6.154   3.552   8.929  1.1112  3.6187  1.2544
 8546TIP3    H249834   6.137   3.548   8.779  0.1715 -1.2368  1.3248
 8547TIP3   OH249835   3.234   3.561  10.113 -0.4617 -0.2759  0.5651
 8547TIP3    H149836   3.165   3.607  10.161 -1.4026 -0.0125 -1.0051
 8547TIP3    H249837   3.227   3.470  10.142 -1.8127 -0.3521  0.0444
 8548TIP3   OH249838   6.724   5.159   8.247  0.1561  0.8163 -0.2326
 8548TIP3    H149839   6.737   5.079   8.297  0.8048  0.5454 -0.8273
 8548TIP3    H249840   6.713   5.130   8.157 -0.9733  1.3050 -0.2672
 8549TIP3   OH249841   1.362   0.740   8.224 -0.5204 -0.1766 -1.0497
 8549TIP3    H149842   1.302   0.791   8.170 -3.4346 -2.1345  0.0744
 8549TIP3    H249843   1.367   0.654   8.182  1.0114 -0.2885 -0.7255
 8550TIP3   OH249844   4.766   0.389  18.932 -0.0572 -0.3626  0.0567
 8550TIP3    H149845   4.749   0.361  18.843  1.1093  1.6473 -0.8761
 8550TIP3    H249846   4.821   0.320  18.969 -0.4515 -1.1531 -0.7991
 8551TIP3   OH249847   5.604   1.682   8.921  0.0947 -0.4950  0.4635
 8551TIP3    H149848   5.622   1.672   9.014 -3.0779 -2.3250  1.0161
 8551TIP3    H249849   5.616   1.594   8.885 -0.4449 -0.1965 -0.4857
 8552TIP3   OH249850   5.075   1.218  10.004  0.0886  0.3843 -0.8804
 8552TIP3    H149851   4.986   1.244  10.025  0.3887 -0.1312  1.2045
 8552TIP3    H249852   5.124   1.300   9.995 -0.2489  0.6334 -0.4109
 8553TIP3   OH249853   2.832   2.813   8.367  0.3359 -0.2368 -0.1156
 8553TIP3    H149854   2.910   2.766   8.398 -1.3672 -3.0210  0.2368
 8553TIP3    H249855   2.824   2.789   8.275 -1.2038 -1.7001  0.3541
 8554TIP3   OH249856   5.351   3.065   8.465 -0.2544  0.2287  0.5202
 8554TIP3    H149857   5.401   3.080   8.545  0.0750  2.2419 -0.0148
 8554TIP3    H249858   5.279   3.128   8.469 -1.7519 -1.3882  0.4160
 8555TIP3   OH249859   5.342   5.924   8.638  0.6118 -0.0994  0.5921
 8555TIP3    H149860   5.406   5.984   8.600  0.8357 -0.1899  0.8203
 8555TIP3    H249861   5.273   5.918   8.573  0.6508  0.3021  0.5086
 8556TIP3   OH249862   5.968   3.680   8.460  0.2668 -0.1063  0.2859
 8556TIP3    H149863   6.002   3.759   8.504  1.3154 -1.0361  1.1980
 8556TIP3    H249864   5.997   3.690   8.369  0.9379  0.2779  0.5306
 8557TIP3   OH249865   1.216   4.132   9.954 -0.7290  0.1277 -0.3619
 8557TIP3    H149866   1.126   4.102   9.966 -0.9720  1.2972  0.9605
 8557TIP3    H249867   1.244   4.091   9.872 -1.3465 -2.8908  0.7990
 8558TIP3   OH249868   5.433   5.037   8.529  0.0098 -0.7961  0.3331
 8558TIP3    H149869   5.487   4.974   8.577  0.5922  0.8140  1.8994
 8558TIP3    H249870   5.495   5.084   8.473 -0.2552 -0.8854 -0.0388
 8559TIP3   OH249871   1.112   1.267  11.657 -0.3711  0.2409 -0.3163
 8559TIP3    H149872   1.163   1.198  11.614 -0.4987  1.7837 -3.0920
 8559TIP3    H249873   1.043   1.219  11.704  1.6505 -1.6868  0.8875
 8560TIP3   OH249874   0.594   2.703   8.126 -0.2491 -0.4306  0.9341
 8560TIP3    H149875   0.666   2.763   8.148 -2.1665  1.9199  1.2428
 8560TIP3    H249876   0.515   2.756   8.139 -1.9448 -1.8736 -2.4766
 8561TIP3   OH249877   6.139   3.613   8.164 -0.2935 -0.4858  0.7627
 8561TIP3    H149878   6.086   3.693   8.170  2.4063  1.5450 -0.2146
 8561TIP3    H249879   6.153   3.587   8.255 -1.0149  0.3061  1.1196
 8562TIP3   OH249880   2.723   1.867  17.566  0.4360  0.1914 -0.6098
 8562TIP3    H149881   2.774   1.940  17.531  0.0160 -0.0527 -1.7849
 8562TIP3    H249882   2.640   1.870  17.518 -0.9172  0.9013  1.6135
 8563TIP3   OH249883   0.559   1.082  11.004 -0.1884  0.3741  0.7535
 8563TIP3    H149884   0.473   1.040  11.005  0.3268 -0.8832 -1.4513
 8563TIP3    H249885   0.559   1.134  10.923  0.9769  0.7115  0.9519
 8564TIP3   OH249886   5.187   1.094   8.350  0.1088  0.6668 -0.3163
 8564TIP3    H149887   5.230   1.010   8.363 -2.0137 -0.7695 -1.9232
 8564TIP3    H249888   5.187   1.134   8.437  1.6796 -0.6800  0.3764
 8565TIP3   OH249889   5.405   0.275   9.989 -0.2225  0.0233 -0.1083
 8565TIP3    H149890   5.322   0.283   9.941  0.1333  2.0809 -0.4742
 8565TIP3    H249891   5.386   0.312  10.075 -0.0053 -0.6658  0.2369
 8566TIP3   OH249892   2.716   5.806  11.108  0.2289 -0.4060  0.2041
 8566TIP3    H149893   2.686   5.845  11.190 -0.6548 -1.6788  0.5242
 8566TIP3    H249894   2.801   5.767  11.131 -0.2281 -1.1652  0.6653
 8567TIP3   OH249895   1.065   1.630  10.091  0.2018 -0.2206 -0.1741
 8567TIP3    H149896   1.116   1.565  10.139  0.1520 -0.6457 -0.6873
 8567TIP3    H249897   1.041   1.586  10.009  1.3686  0.8788 -1.1668
 8568TIP3   OH249898   0.717   5.649   8.080  0.0077 -0.2945 -0.3858
 8568TIP3    H149899   0.724   5.591   8.156 -0.9994  1.1615  0.8809
 8568TIP3    H249900   0.800   5.697   8.080 -0.8311  1.2699  1.1994
 8569TIP3   OH249901   1.476   4.473   9.714 -0.0489 -0.2305 -0.0710
 8569TIP3    H149902   1.518   4.541   9.661  0.2258  0.9178  1.5723
 8569TIP3    H249903   1.528   4.395   9.697  1.7583  0.7704  0.6230
 8570TIP3   OH249904   0.236   6.247  10.446 -0.1528  0.4160  0.8239
 8570TIP3    H149905   0.241   6.219  10.355  0.9047  0.1140  0.9647
 8570TIP3    H249906   0.249   6.341  10.443  1.0806  0.2545  0.7550
 8571TIP3   OH249907   1.571   3.218  11.426 -0.2453 -0.1222  0.3047
 8571TIP3    H149908   1.554   3.217  11.520 -0.1111 -1.0784  0.3354
 8571TIP3    H249909   1.629   3.143  11.412  0.2268  0.3671 -0.4536
 8572TIP3   OH249910   0.533   2.206   8.335  0.1016 -0.5926 -0.1574
 8572TIP3    H149911   0.610   2.153   8.312  0.9396  0.4717  0.1012
 8572TIP3    H249912   0.480   2.150   8.391  2.0502 -0.4578  1.9548
 8573TIP3   OH249913   6.669   4.260   9.234 -0.1505  0.0521 -0.6665
 8573TIP3    H149914   6.674   4.323   9.162  0.4007  0.3712 -0.3584
 8573TIP3    H249915   6.744   4.281   9.289  0.7691 -1.6941 -1.1919
 8574TIP3   OH249916   6.541   4.721   9.943  0.3426 -0.4195 -0.2366
 8574TIP3    H149917   6.536   4.655  10.013 -0.8364 -0.4800 -0.3564
 8574TIP3    H249918   6.634   4.733   9.928  0.5899 -1.6474  0.1876
 8575TIP3   OH249919   2.104   3.323   8.896  0.6538  0.4297 -0.0212
 8575TIP3    H149920   2.193   3.318   8.929  0.5241 -2.1783  0.1381
 8575TIP3    H249921   2.049   3.322   8.975  0.4426 -0.5912 -0.1773
 8576TIP3   OH249922   1.691   1.807   9.325  0.1289  0.2638 -0.2952
 8576TIP3    H149923   1.642   1.888   9.313  0.3346  0.5229  0.5237
 8576TIP3    H249924   1.777   1.835   9.356  0.4093 -0.2397 -0.6149
 8577TIP3   OH249925   6.517   3.615   8.891 -0.4701 -0.1358 -0.5196
 8577TIP3    H149926   6.461   3.571   8.956  0.3066  0.4163  0.5617
 8577TIP3    H249927   6.457   3.668   8.839 -0.9974  0.2333  0.4348
 8578TIP3   OH249928   4.557   3.172   8.309  0.1942 -0.2247  0.3585
 8578TIP3    H149929   4.543   3.254   8.262 -0.2016  0.5385  1.7433
 8578TIP3    H249930   4.619   3.123   8.254 -0.0849  0.6978 -0.8225
 8579TIP3   OH249931   2.490   3.974  10.020  0.4163 -0.2910 -0.3153
 8579TIP3    H149932   2.487   4.070  10.027  0.4609 -0.1706 -1.7263
 8579TIP3    H249933   2.425   3.944  10.084  2.2492  0.5366  2.0756
 8580TIP3   OH249934   6.217   2.546   9.369  0.0307  0.3028  0.6519
 8580TIP3    H149935   6.205   2.487   9.295 -0.7331 -2.7349  3.0170
 8580TIP3    H249936   6.301   2.520   9.407  0.8877  2.4741  0.4232
 8581TIP3   OH249937   0.402   1.879   7.923 -0.2080  0.6966  0.2378
 8581TIP3    H149938   0.406   1.901   8.016  0.7018 -0.7017  0.5615
 8581TIP3    H249939   0.364   1.791   7.921  2.2849 -0.4485 -0.4664
 8582TIP3   OH249940   0.333   0.612   9.041 -0.3248  0.4217 -0.4110
 8582TIP3    H149941   0.319   0.554   9.116 -0.2522  0.0190 -0.7019
 8582TIP3    H249942   0.361   0.695   9.079 -2.8831  1.0936  0.1792
 8583TIP3   OH249943   5.622   4.129  10.179  0.0862 -0.1820  0.2943
 8583TIP3    H149944   5.691   4.152  10.242  0.4720  0.2172 -0.2694
 8583TIP3    H249945   5.582   4.213  10.156 -0.9025 -0.4448  0.9534
 8584TIP3   OH249946   1.495   1.997   9.877 -0.7847 -0.1707  0.0833
 8584TIP3    H149947   1.559   2.011   9.807  0.5681  1.1644  1.5108
 8584TIP3    H249948   1.499   1.903   9.894  0.0882 -0.2520 -0.4934
 8585TIP3   OH249949   0.564   1.931  10.004  0.4233  0.3065  0.0231
 8585TIP3    H149950   0.645   1.891   9.972 -0.2766 -1.9936  0.9908
 8585TIP3    H249951   0.592   1.990  10.074  1.2259 -1.1620  0.9811
 8586TIP3   OH249952   5.490   5.595   8.439  0.1680 -0.0943 -0.0320
 8586TIP3    H149953   5.466   5.509   8.472 -1.5882  0.1176 -0.6385
 8586TIP3    H249954   5.413   5.624   8.391  2.0643  0.1190 -3.2833
 8587TIP3   OH249955   6.490   1.433  11.334 -0.1385 -0.4300  0.1583
 8587TIP3    H149956   6.408   1.394  11.305 -0.0373 -1.1529  0.8163
 8587TIP3    H249957   6.501   1.511  11.279 -0.7907 -0.8395 -0.5632
 8588TIP3   OH249958   5.075   5.475   9.763  0.0635  0.6292 -0.1385
 8588TIP3    H149959   5.050   5.557   9.719 -0.8835  0.5154  0.1694
 8588TIP3    H249960   5.004   5.415   9.743  0.3379  0.1392  0.3530
 8589TIP3   OH249961   2.827   5.139  11.236  0.4482 -0.0202 -0.2554
 8589TIP3    H149962   2.897   5.203  11.246  0.6555 -0.6090  2.9968
 8589TIP3    H249963   2.757   5.169  11.294 -1.4089 -0.3237 -2.2005
 8590TIP3   OH249964   0.051   4.252  10.020 -0.3264 -0.4989 -0.0882
 8590TIP3    H149965   0.022   4.162  10.007  0.4227 -0.7080 -0.3633
 8590TIP3    H249966   0.145   4.245  10.036 -0.2568  0.2382 -0.1422
 8591TIP3   OH249967   2.143   4.138  10.843 -0.0344 -0.3748  0.2250
 8591TIP3    H149968   2.106   4.214  10.888 -0.7819  0.6499 -1.9824
 8591TIP3    H249969   2.122   4.064  10.900 -2.1682  0.6504  0.8673
 8592TIP3   OH249970   3.927   5.511  10.889  0.1899 -0.2110 -0.2609
 8592TIP3    H149971   3.917   5.450  10.816 -0.0573 -0.7056  0.1835
 8592TIP3    H249972   3.840   5.520  10.926  0.2644  0.2442 -0.1794
 8593TIP3   OH249973   6.722   4.571   8.115  0.0475  0.2026 -0.0466
 8593TIP3    H149974   6.661   4.500   8.095 -0.1023  0.5097 -0.6986
 8593TIP3    H249975   6.808   4.533   8.097 -0.0070  0.0560  0.0002
 8594TIP3   OH249976   5.122   0.376  10.978 -0.5938 -0.7602  0.0401
 8594TIP3    H149977   5.090   0.295  11.017 -1.3825 -0.0960  0.8279
 8594TIP3    H249978   5.072   0.445  11.022 -0.2846  0.1262 -0.9511
 8595TIP3   OH249979   4.263   0.937  10.348 -0.1178  0.1694  0.3817
 8595TIP3    H149980   4.221   0.929  10.434  2.3928 -0.5000  1.6270
 8595TIP3    H249981   4.354   0.957  10.367  0.2740  1.2658 -2.1949
 8596TIP3   OH249982   5.847   2.732   8.440  0.5034  0.0223 -0.2795
 8596TIP3    H149983   5.840   2.748   8.534  0.0976  0.2158 -0.3396
 8596TIP3    H249984   5.911   2.661   8.432 -1.0248 -1.4834  0.2791
 8597TIP3   OH249985   0.385   3.552  11.019  0.5015 -0.2189 -0.2355
 8597TIP3    H149986   0.365   3.622  10.957  0.3328 -2.1275 -2.4548
 8597TIP3    H249987   0.307   3.496  11.018  0.2346 -0.0149  2.2405
 8598TIP3   OH249988   6.651   3.982   9.291 -0.2383  0.3716 -0.0661
 8598TIP3    H149989   6.590   3.993   9.364 -0.8891  2.2423 -0.8455
 8598TIP3    H249990   6.678   4.071   9.268  1.9293 -0.3210 -0.4902
 8599TIP3   OH249991   2.750   1.347   7.905 -0.3830 -0.3043 -0.2466
 8599TIP3    H149992   2.658   1.348   7.878  0.0827  1.3388 -2.0213
 8599TIP3    H249993   2.763   1.432   7.947  0.3248 -0.5401  0.0242
 8600TIP3   OH249994   6.677   4.558   9.499 -0.2626 -0.7678 -0.2146
 8600TIP3    H149995   6.644   4.633   9.449  0.7552 -1.6947 -2.4139
 8600TIP3    H249996   6.756   4.531   9.453 -1.4204 -4.1542 -0.5484
 8601TIP3   OH249997   1.157   0.830   8.742  0.1030  0.6636  0.0260
 8601TIP3    H149998   1.129   0.740   8.756 -0.3904  0.5993 -1.2426
 8601TIP3    H249999   1.252   0.825   8.734  0.0646  0.2236 -0.1749
 8602TIP3   OH250000   2.638   3.936  11.132 -0.0512 -0.3969 -0.7337
 8602TIP3    H150001   2.681   3.890  11.060  1.3829  0.0307 -0.1776
 8602TIP3    H250002   2.613   3.866  11.193  0.4842 -0.5867 -0.7314
 8603TIP3   OH250003   6.197   2.926  10.806 -0.6282  0.6712  0.3686
 8603TIP3    H150004   6.191   2.972  10.890 -1.8288  0.9279  0.1699
 8603TIP3    H250005   6.206   2.834  10.830 -0.0470  0.8301  0.7720
 8604TIP3   OH250006   5.445   2.166   9.205  0.6372  0.5366  0.2774
 8604TIP3    H150007   5.475   2.178   9.295 -0.0580  1.7129  0.3649
 8604TIP3    H250008   5.385   2.238   9.190 -1.5565 -1.2726 -0.1583
 8605TIP3   OH250009   2.348   1.219   9.828  0.1989  0.0536  0.0864
 8605TIP3    H150010   2.259   1.196   9.801  0.4011  0.4608 -0.9487
 8605TIP3    H250011   2.344   1.218   9.924 -0.8434 -0.2119  0.0598
 8606TIP3   OH250012   5.681   1.538  10.058  0.3342  0.2013  0.1991
 8606TIP3    H150013   5.603   1.535  10.004  0.0554  1.8501  0.4527
 8606TIP3    H250014   5.694   1.448  10.087 -1.9280  0.0111  0.7973
 8607TIP3   OH250015   2.380   1.691   9.639 -0.1931  0.5940  0.0819
 8607TIP3    H150016   2.329   1.611   9.634 -1.4697  1.4376 -1.8566
 8607TIP3    H250017   2.446   1.674   9.706 -1.6164 -1.3509  1.0741
 8608TIP3   OH250018   3.919   4.287   8.942  0.3331  0.6468 -0.2824
 8608TIP3    H150019   3.979   4.334   9.000 -0.2981 -0.6543  1.5375
 8608TIP3    H250020   3.884   4.217   8.997 -2.3347  0.9497 -1.4681
 8609TIP3   OH250021   2.084   3.180  11.260  0.3095  0.0018  0.1970
 8609TIP3    H150022   2.046   3.096  11.284 -1.2825  0.6564  0.1138
 8609TIP3    H250023   2.098   3.226  11.343 -0.2492  0.2219  0.1779
 8610TIP3   OH250024   1.724   5.939  10.870 -0.1785  0.3380  0.1237
 8610TIP3    H150025   1.640   5.894  10.861 -0.9754  1.6269  0.8518
 8610TIP3    H250026   1.717   6.015  10.812  1.0182 -0.2556 -0.8417
 8611TIP3   OH250027   3.099   1.743   8.669 -0.3717  0.5234 -0.5062
 8611TIP3    H150028   3.194   1.743   8.656 -0.2865  1.3931  0.0495
 8611TIP3    H250029   3.086   1.698   8.752 -0.5658 -0.8240 -1.2369
 8612TIP3   OH250030   5.811   2.828   7.903  1.1620  0.7402 -0.3724
 8612TIP3    H150031   5.821   2.923   7.896 -1.4211  1.2058  0.8234
 8612TIP3    H250032   5.796   2.813   7.996 -0.4724 -0.5358 -0.7906
 8613TIP3   OH250033   1.904   5.026   8.566 -0.2626 -0.1337 -0.2542
 8613TIP3    H150034   1.942   4.956   8.618  0.3459 -0.4757 -1.1414
 8613TIP3    H250035   1.979   5.070   8.525 -0.5661  1.4831  0.8110
 8614TIP3   OH250036   5.671   3.653  10.158 -0.0493  0.0746  0.2952
 8614TIP3    H150037   5.761   3.679  10.138 -0.0005  2.0750  2.7376
 8614TIP3    H250038   5.621   3.735  10.158 -1.6607 -0.8609  0.0929
 8615TIP3   OH250039   3.382   3.857   8.518 -0.1067 -0.2914  0.1410
 8615TIP3    H150040   3.367   3.943   8.556 -0.3897 -0.1030 -0.3970
 8615TIP3    H250041   3.295   3.817   8.513 -0.1464 -0.1031 -0.8096
 8616TIP3   OH250042   5.324   0.167  10.490 -0.4940 -0.7210 -0.0688
 8616TIP3    H150043   5.374   0.187  10.411  1.5625 -2.7638  0.6094
 8616TIP3    H250044   5.350   0.234  10.553 -0.4851 -0.3685 -0.4440
 8617TIP3   OH250045   0.832   5.217   9.903  0.2106 -0.4440 -0.2362
 8617TIP3    H150046   0.888   5.295   9.906 -0.3100 -0.0904  1.6362
 8617TIP3    H250047   0.745   5.250   9.925  0.0136 -1.5580  0.7082
 8618TIP3   OH250048   2.225   2.812   8.727 -0.2550 -0.1168 -0.1419
 8618TIP3    H150049   2.173   2.836   8.650  1.0523 -0.2065 -1.0718
 8618TIP3    H250050   2.197   2.874   8.795 -0.2750  1.0193 -1.1577
 8619TIP3   OH250051   3.744   0.848   9.400 -0.0239 -0.4190  0.5434
 8619TIP3    H150052   3.793   0.930   9.407  0.7665 -1.0149  2.6816
 8619TIP3    H250053   3.653   0.873   9.415 -0.2293  0.4314 -1.6771
 8620TIP3   OH250054   6.281   6.521  10.778 -0.4364  0.3381 -0.2458
 8620TIP3    H150055   6.325   6.535  10.862 -0.6639 -1.8458  0.2944
 8620TIP3    H250056   6.349   6.486  10.722 -0.1816  2.1715 -1.1657
 8621TIP3   OH250057   4.820   4.232   8.319 -0.1058 -0.3115 -0.2639
 8621TIP3    H150058   4.738   4.249   8.273 -0.5367 -0.6885  0.3636
 8621TIP3    H250059   4.833   4.308   8.375  0.6713  0.3807 -1.3443
 8622TIP3   OH250060   6.391   6.061  10.425 -0.3749  0.4239  0.2295
 8622TIP3    H150061   6.444   6.139  10.408  0.6660 -0.0470  1.2094
 8622TIP3    H250062   6.312   6.095  10.467  0.6654  0.8664  1.9146
 8623TIP3   OH250063   5.043   5.233   8.377  0.3773 -0.0379  0.3378
 8623TIP3    H150064   5.112   5.286   8.337  0.2629  0.1009  0.3261
 8623TIP3    H250065   4.986   5.296   8.420  1.0189 -0.2513  1.5266
 8624TIP3   OH250066   3.168   2.449   8.065 -0.1017  0.2490 -0.3014
 8624TIP3    H150067   3.246   2.440   8.011 -1.3876 -1.3173 -2.0547
 8624TIP3    H250068   3.181   2.388   8.137  0.3401  0.0954 -0.5091
 8625TIP3   OH250069   2.363   4.753   8.775  0.0868 -0.3425  0.1050
 8625TIP3    H150070   2.434   4.690   8.756  1.2318  0.8911  0.1132
 8625TIP3    H250071   2.346   4.794   8.690  0.4337  0.4032  0.3895
 8626TIP3   OH250072   5.810   4.149  10.798  0.1654 -0.0335  0.3341
 8626TIP3    H150073   5.741   4.097  10.840  0.9137 -2.4339 -1.1829
 8626TIP3    H250074   5.882   4.087  10.786  1.3568  1.5358 -1.0616
 8627TIP3   OH250075   5.648   3.993  10.973 -0.2600 -0.4345 -0.0248
 8627TIP3    H150076   5.555   4.014  10.957 -0.0344  1.2084  0.6146
 8627TIP3    H250077   5.646   3.907  11.015 -1.6508  0.3070  1.5577
 8628TIP3   OH250078   3.649   1.246   9.668  0.4350  0.4776 -0.2660
 8628TIP3    H150079   3.719   1.181   9.678 -0.0305  0.1709  1.1218
 8628TIP3    H250080   3.655   1.301   9.746 -1.8417 -0.5194  0.7040
 8629TIP3   OH250081   6.402   5.134   8.080  0.1543  0.0172 -0.5320
 8629TIP3    H150082   6.394   5.200   8.148 -0.3302 -1.1605  0.5856
 8629TIP3    H250083   6.337   5.158   8.015 -1.4580 -0.4692  0.8418
 8630TIP3   OH250084   2.028   1.909   8.942  0.7768  0.4793 -1.1420
 8630TIP3    H150085   2.078   1.843   8.989 -0.7558 -0.6666 -1.0643
 8630TIP3    H250086   2.034   1.883   8.850  1.4909  1.1667 -1.3048
 8631TIP3   OH250087   4.063   3.147   9.920 -0.0648  0.0634  0.0712
 8631TIP3    H150088   4.072   3.240   9.904 -0.0140  0.0942  0.2753
 8631TIP3    H250089   4.005   3.116   9.851  1.7706 -0.1904 -1.4385
 8632TIP3   OH250090   5.775   2.022  10.478 -0.3402  0.1101  0.0996
 8632TIP3    H150091   5.683   1.998  10.486 -0.3360  0.1617  0.2877
 8632TIP3    H250092   5.783   2.103  10.529  0.1749 -0.7898  1.4953
 8633TIP3   OH250093   0.833   0.131   9.954  0.3830 -0.0829 -0.3649
 8633TIP3    H150094   0.772   0.058   9.970 -0.6130  1.0587  1.3903
 8633TIP3    H250095   0.839   0.136   9.859  0.1455 -2.1674 -0.5472
 8634TIP3   OH250096   3.904   3.868   8.124 -0.2214  0.1086 -0.3765
 8634TIP3    H150097   3.942   3.796   8.175 -0.3649  0.1197 -0.2545
 8634TIP3    H250098   3.819   3.835   8.095  0.3614 -0.3485 -1.6349
 8635TIP3   OH250099   3.014   4.569   8.160 -0.3427 -0.1857 -0.3733
 8635TIP3    H150100   3.087   4.627   8.136  1.2420 -0.6349  2.7485
 8635TIP3    H250101   2.974   4.612   8.236 -0.9968 -1.7302  0.1961
 8636TIP3   OH250102   5.650   1.968   9.370 -0.2197  0.1582 -0.5503
 8636TIP3    H150103   5.571   1.963   9.318 -1.4877  1.7628  1.0795
 8636TIP3    H250104   5.636   1.905   9.441 -1.0482  1.9179  0.9217
 8637TIP3   OH250105   3.808   4.428  10.883  0.1949 -0.4511 -0.1191
 8637TIP3    H150106   3.785   4.520  10.868 -0.7789 -0.7128 -0.3403
 8637TIP3    H250107   3.769   4.407  10.967  0.5365 -0.6285 -0.0045
 8638TIP3   OH250108   5.161   0.255   8.655  0.4317 -0.2155 -0.2378
 8638TIP3    H150109   5.243   0.294   8.685 -0.3879  1.6845 -0.2913
 8638TIP3    H250110   5.187   0.193   8.587  1.7742  1.1268 -1.0088
 8639TIP3   OH250111   3.017   2.468  10.107 -0.0171  0.2928 -0.1435
 8639TIP3    H150112   3.016   2.511  10.192 -1.7331 -1.7921  1.0136
 8639TIP3    H250113   2.925   2.452  10.087  0.4695 -1.9636 -0.8833
 8640TIP3   OH250114   1.798   4.659  10.596  0.2812  0.3437 -0.4331
 8640TIP3    H150115   1.774   4.749  10.573  1.0889  0.8332  0.5839
 8640TIP3    H250116   1.788   4.655  10.691 -0.6967 -0.9500 -0.5615
 8641TIP3   OH250117   4.963   3.633   8.306 -0.1510 -0.1178 -0.0696
 8641TIP3    H150118   5.043   3.581   8.311  0.4963  0.6972 -1.4009
 8641TIP3    H250119   4.903   3.579   8.255  0.5690  0.4493 -1.5729
 8642TIP3   OH250120   2.028   5.337   9.523  0.2926  0.1440  0.0126
 8642TIP3    H150121   2.026   5.423   9.482 -0.4223 -0.7553 -1.9678
 8642TIP3    H250122   1.953   5.337   9.583 -0.9455  0.2454 -1.4851
 8643TIP3   OH250123   2.670   4.045  10.838  0.3005  0.0892 -0.0406
 8643TIP3    H150124   2.667   3.952  10.858  1.4406 -0.3622 -1.7284
 8643TIP3    H250125   2.578   4.072  10.834 -0.0728 -1.1626 -0.3540
 8644TIP3   OH250126   5.382   1.415   9.735  0.0349 -0.1278  0.5494
 8644TIP3    H150127   5.320   1.395   9.805 -0.0995  0.7405  0.6881
 8644TIP3    H250128   5.438   1.483   9.772  2.9229 -2.7479  1.4851
 8645TIP3   OH250129   2.898   5.569   8.332 -0.3442 -0.1051  0.0048
 8645TIP3    H150130   2.877   5.476   8.332 -1.3093  0.1065 -0.2343
 8645TIP3    H250131   2.944   5.583   8.249 -0.5824 -0.2826 -0.1574
 8646TIP3   OH250132   1.576   1.202   8.564  0.0032  0.5805  0.2032
 8646TIP3    H150133   1.489   1.220   8.599  0.4574  1.1027  1.0756
 8646TIP3    H250134   1.570   1.112   8.530 -0.8090  0.5380  0.4427
 8647TIP3   OH250135   2.262   5.307   9.231 -0.3785 -0.5789 -0.4234
 8647TIP3    H150136   2.175   5.308   9.270 -0.5403  2.1461 -0.6629
 8647TIP3    H250137   2.246   5.312   9.137 -0.1271  3.3332 -0.4206
 8648TIP3   OH250138   6.560   3.941   8.888  0.4708 -0.1643 -0.9678
 8648TIP3    H150139   6.619   3.929   8.962 -1.5552  1.8648  1.1173
 8648TIP3    H250140   6.543   4.035   8.886 -0.8436 -0.3817 -3.0267
 8649TIP3   OH250141   6.743   1.365   9.493  0.2009  0.1059  0.0763
 8649TIP3    H150142   6.767   1.277   9.522  0.9594  0.6799  1.2308
 8649TIP3    H250143   6.810   1.389   9.429  1.8278  1.0174  2.0129
 8650TIP3   OH250144   2.576   3.051   8.862 -0.2315  0.0497 -0.2748
 8650TIP3    H150145   2.643   3.012   8.806 -0.8198 -0.2975 -0.7550
 8650TIP3    H250146   2.523   2.976   8.890 -0.2060  0.2782  0.3934
 8651TIP3   OH250147   0.616   3.285  10.857 -0.0185  0.8462  0.0019
 8651TIP3    H150148   0.660   3.363  10.891  1.1873  0.1891  0.0123
 8651TIP3    H250149   0.687   3.234  10.815 -1.1205  0.7851 -1.9254
 8652TIP3   OH250150   0.552   5.532  10.433 -0.0555 -0.1179 -0.0758
 8652TIP3    H150151   0.468   5.578  10.432  0.1311  0.2437 -1.0520
 8652TIP3    H250152   0.599   5.570  10.506 -0.3904  0.3541 -0.0973
 8653TIP3   OH250153   5.536   3.712   9.445 -0.3002 -0.4401 -0.1158
 8653TIP3    H150154   5.626   3.681   9.438 -0.5384 -0.8964 -1.5586
 8653TIP3    H250155   5.537   3.800   9.407 -0.1812  0.1900  1.3051
 8654TIP3   OH250156   1.161   1.683   9.137  0.6220  0.0611 -0.4129
 8654TIP3    H150157   1.231   1.720   9.190  0.5484  0.8203 -0.8343
 8654TIP3    H250158   1.200   1.604   9.099  2.2786  1.9393 -2.9383
 8655TIP3   OH250159   6.377   2.079   8.547 -0.2408  0.0009 -0.2848
 8655TIP3    H150160   6.465   2.040   8.546 -0.5277 -0.7629  1.0690
 8655TIP3    H250161   6.377   2.135   8.625 -1.0953 -0.4142  0.0332
 8656TIP3   OH250162   2.514   4.445  10.644  1.1151 -0.2658 -0.4554
 8656TIP3    H150163   2.582   4.491  10.596  0.9271 -1.0074 -1.4649
 8656TIP3    H250164   2.559   4.370  10.684  0.6708 -1.6425 -2.3909
 8657TIP3   OH250165   5.216   1.447   9.942  0.6070  0.2632  0.1219
 8657TIP3    H150166   5.174   1.522   9.899  0.8057  0.5290  0.3891
 8657TIP3    H250167   5.261   1.485  10.018  2.5407  0.2024 -0.9360
 8658TIP3   OH250168   4.365   6.556   8.660  0.0029 -0.2945 -0.2738
 8658TIP3    H150169   4.452   6.518   8.654 -0.9502 -2.4270 -3.2456
 8658TIP3    H250170   4.356   6.608   8.580 -1.5929 -0.5591 -0.3065
 8659TIP3   OH250171   4.917   2.162  10.113 -0.3078  0.0985 -0.5987
 8659TIP3    H150172   5.008   2.138  10.093 -0.1040  0.9075 -0.6672
 8659TIP3    H250173   4.923   2.213  10.194 -0.8947 -1.2928  0.3649
 8660TIP3   OH250174   2.443   0.097  10.617  0.7940 -0.9492  0.1450
 8660TIP3    H150175   2.348   0.112  10.619  0.9754  0.3325 -0.0728
 8660TIP3    H250176   2.467   0.083  10.709  0.9424  2.6536  0.7810
 8661TIP3   OH250177   0.909   5.256   8.841  0.5508  0.2747 -0.0416
 8661TIP3    H150178   0.897   5.335   8.893  0.7762 -0.2238  0.7798
 8661TIP3    H250179   0.993   5.221   8.869 -0.2130 -1.0597  0.6980
 8662TIP3   OH250180   0.995   0.147  10.259 -0.6240  0.3650 -0.3666
 8662TIP3    H150181   0.947   0.215  10.306 -1.6824  0.1302 -1.0599
 8662TIP3    H250182   1.080   0.186  10.239 -1.0074  1.2795 -0.2543
 8663TIP3   OH250183   1.473   5.454   9.547 -0.6348 -0.1003 -0.2999
 8663TIP3    H150184   1.402   5.423   9.491 -0.5801  0.8760 -0.9466
 8663TIP3    H250185   1.535   5.381   9.549 -2.2143 -1.4777  1.3467
 8664TIP3   OH250186   2.924   2.981  11.234 -0.1806  0.7531 -0.1113
 8664TIP3    H150187   2.914   3.037  11.157  0.0108 -1.6154 -1.9572
 8664TIP3    H250188   3.016   2.955  11.234 -0.8211 -1.7042 -0.9312
 8665TIP3   OH250189   6.579   3.000   8.114 -0.0023  0.3759 -0.3903
 8665TIP3    H150190   6.585   2.960   8.027  2.0668 -1.5046  0.5032
 8665TIP3    H250191   6.575   3.094   8.097  0.7034  0.0800 -2.5223
 8666TIP3   OH250192   6.302   0.755   8.915 -0.0356 -0.7288  0.1320
 8666TIP3    H150193   6.388   0.762   8.873 -0.5181 -0.3954 -0.8285
 8666TIP3    H250194   6.268   0.671   8.886 -0.3288 -0.5452 -0.0591
 8667TIP3   OH250195   1.436   3.143   7.670 -0.3347 -0.2798  0.2942
 8667TIP3    H150196   1.363   3.205   7.680  0.5543  0.7721  0.5118
 8667TIP3    H250197   1.401   3.060   7.701 -0.7700  0.7030  2.7297
 8668TIP3   OH250198   3.577   1.781  10.590  0.6086  0.1690 -0.4532
 8668TIP3    H150199   3.512   1.847  10.566  1.2377  0.6609 -0.8153
 8668TIP3    H250200   3.577   1.781  10.686 -0.2275 -0.1467 -0.4414
 8669TIP3   OH250201   5.731   5.227   9.397 -0.0404  0.0340  0.0518
 8669TIP3    H150202   5.775   5.258   9.477  0.0472  1.3587 -0.4863
 8669TIP3    H250203   5.782   5.149   9.371  0.3138 -0.0428  0.9262
 8670TIP3   OH250204   2.286   0.776   7.966  0.4886 -0.6377  0.0200
 8670TIP3    H150205   2.271   0.769   8.060 -0.6040  1.1837  0.0155
 8670TIP3    H250206   2.351   0.846   7.957 -0.5172  0.2307 -0.6429
 8671TIP3   OH250207   4.426   5.048   8.701 -0.0726  0.2518  0.3767
 8671TIP3    H150208   4.364   5.119   8.719 -0.3003 -0.2698  1.7678
 8671TIP3    H250209   4.511   5.091   8.700 -0.3337  0.7835 -0.3652
 8672TIP3   OH250210   0.721   5.865  10.577 -0.0402  0.5213  0.3217
 8672TIP3    H150211   0.775   5.905  10.646  1.9638  0.5586 -1.1934
 8672TIP3    H250212   0.726   5.926  10.504  0.2257 -0.8507 -0.8347
 8673TIP3   OH250213   0.700   0.591   8.013 -0.0735  0.4145 -0.3801
 8673TIP3    H150214   0.666   0.508   7.980 -1.2772  0.1913  1.3298
 8673TIP3    H250215   0.792   0.573   8.033 -0.3839 -0.5746  0.1876
 8674TIP3   OH250216   6.495   5.118   9.246  0.4422 -0.2409 -0.1683
 8674TIP3    H150217   6.563   5.110   9.180  1.3812 -1.7043  0.9149
 8674TIP3    H250218   6.537   5.161   9.320 -0.6996  1.7224 -0.5976
 8675TIP3   OH250219   4.700   0.067   9.211 -0.0852 -0.0732 -0.2292
 8675TIP3    H150220   4.659  -0.017   9.191 -0.8224  0.3499 -0.5250
 8675TIP3    H250221   4.793   0.046   9.221 -0.4840 -1.2712  1.6728
 8676TIP3   OH250222   6.357   0.026   8.487 -0.2807  0.4667  0.4819
 8676TIP3    H150223   6.386   0.066   8.404 -1.8301  0.9153  0.1178
 8676TIP3    H250224   6.329   0.101   8.540 -1.4063  0.0159  0.5363
 8677TIP3   OH250225   6.606   4.209   8.880 -0.3000  0.1249 -0.0623
 8677TIP3    H150226   6.531   4.244   8.832 -0.7463  0.3202  0.7557
 8677TIP3    H250227   6.641   4.285   8.928 -1.1084 -0.4465  1.5088
 8678TIP3   OH250228   2.000   2.069  10.629  0.4384  0.7187 -0.5387
 8678TIP3    H150229   2.009   2.079  10.724 -2.6660 -0.1763 -0.0322
 8678TIP3    H250230   1.962   1.982  10.618 -1.3827  1.6630 -2.3973
 8679TIP3   OH250231   6.542   1.446  10.996 -0.4054 -0.5085 -0.0408
 8679TIP3    H150232   6.549   1.454  11.091  0.6667  0.0078 -0.1474
 8679TIP3    H250233   6.455   1.479  10.976 -1.7112 -3.0158  0.9862
 8680TIP3   OH250234   2.779   6.186   9.707 -0.8732  0.1866  0.5362
 8680TIP3    H150235   2.715   6.202   9.776 -1.7500 -3.9309  0.9064
 8680TIP3    H250236   2.740   6.118   9.653  1.5628  0.3500 -1.6234
 8681TIP3   OH250237   1.045   0.445   8.610  0.0606 -0.0082  0.3072
 8681TIP3    H150238   1.017   0.359   8.641 -0.0059  0.5948  2.0100
 8681TIP3    H250239   1.033   0.441   8.515 -1.8681 -1.2035  0.5354
 8682TIP3   OH250240   2.079   5.089   9.784 -0.2492 -0.3212 -0.5250
 8682TIP3    H150241   2.146   5.025   9.763  0.0712  0.3269 -1.5513
 8682TIP3    H250242   2.118   5.173   9.762 -0.6160  0.2556  0.9057
 8683TIP3   OH250243   2.671   4.942   9.826 -0.2463  1.0139  0.1872
 8683TIP3    H150244   2.588   4.918   9.785  0.3998 -1.1251  0.0215
 8683TIP3    H250245   2.723   4.980   9.755 -0.9681  2.2088  0.2564
 8684TIP3   OH250246   3.675   2.879  11.705  0.1595  0.2208  1.0506
 8684TIP3    H150247   3.719   2.934  11.640 -0.6976 -1.6845 -1.2962
 8684TIP3    H250248   3.745   2.849  11.762  0.8333  2.5784  1.5631
 8685TIP3   OH250249   0.282   5.007   8.752 -0.9166 -0.2737  0.2994
 8685TIP3    H150250   0.352   4.965   8.703 -0.3985 -0.7253  1.3765
 8685TIP3    H250251   0.205   5.001   8.695 -0.0012  0.5830 -1.0590
 8686TIP3   OH250252   2.728   0.427  10.314  0.4366 -0.2826 -0.6779
 8686TIP3    H150253   2.791   0.481  10.266  2.1742 -1.2083  0.4529
 8686TIP3    H250254   2.780   0.356  10.352 -0.9653 -0.1177  1.8102
 8687TIP3   OH250255   0.069   0.564   9.826  0.1315  0.2318 -0.2956
 8687TIP3    H150256   0.022   0.634   9.781 -0.4716 -0.1428 -0.2675
 8687TIP3    H250257   0.009   0.535   9.894  0.2128 -0.5630 -0.5470
 8688TIP3   OH250258   2.575   1.182  10.074  0.3459 -0.5657 -0.2762
 8688TIP3    H150259   2.497   1.183  10.130 -0.7559  3.1775 -1.5504
 8688TIP3    H250260   2.646   1.209  10.132 -0.0074 -0.6352  0.1937
 8689TIP3   OH250261   3.120   2.005   8.482 -0.0989  0.1207 -0.3087
 8689TIP3    H150262   3.120   1.930   8.541  0.1919 -0.9486 -1.6109
 8689TIP3    H250263   3.036   2.048   8.498 -0.2385 -0.4342  0.5190
 8690TIP3   OH250264   5.456   6.562   8.641  0.2009  0.1276  0.1060
 8690TIP3    H150265   5.525   6.606   8.593  0.7873 -1.1133 -0.2406
 8690TIP3    H250266   5.388   6.546   8.576  0.0681  0.3577  0.1882
 8691TIP3   OH250267   3.402   3.350   8.372  0.3540  0.4553 -0.5030
 8691TIP3    H150268   3.338   3.391   8.430  1.9873  2.3129  0.0951
 8691TIP3    H250269   3.423   3.267   8.413  1.3136  1.6407  1.5597
 8692TIP3   OH250270   1.231   3.871   8.674 -0.5413 -0.9470  0.0766
 8692TIP3    H150271   1.222   3.943   8.736  0.2434 -1.1922  0.4918
 8692TIP3    H250272   1.325   3.865   8.658 -0.7602 -0.5877 -1.5106
 8693TIP3   OH250273   4.164   1.094   9.046  0.1916 -0.4029  0.5928
 8693TIP3    H150274   4.124   1.180   9.036  0.2206 -0.3453  0.9642
 8693TIP3    H250275   4.236   1.094   8.982  0.1019 -0.2079  0.4897
 8694TIP3   OH250276   3.612   4.271   8.957  0.1628  0.1517  0.0750
 8694TIP3    H150277   3.684   4.210   8.940  0.5121 -0.0754  2.0801
 8694TIP3    H250278   3.656   4.348   8.994 -0.5125  0.4519  0.2576
 8695TIP3   OH250279   3.572   4.338  10.465 -0.0679  0.0249  0.0663
 8695TIP3    H150280   3.600   4.332  10.374  0.2962  1.1622  0.0894
 8695TIP3    H250281   3.510   4.411  10.466 -1.6021 -1.2213  0.3809
 8696TIP3   OH250282   5.370   2.479   9.402 -0.1462  0.8006 -0.4414
 8696TIP3    H150283   5.346   2.473   9.309 -0.2372  0.0533 -0.3750
 8696TIP3    H250284   5.448   2.423   9.410  0.4418  1.6265 -0.2526
 8697TIP3   OH250285   4.678   2.570  10.323  0.2299 -0.6363  0.2153
 8697TIP3    H150286   4.737   2.643  10.303 -1.5352  0.5568 -1.0042
 8697TIP3    H250287   4.595   2.613  10.343 -0.3875 -2.2809  1.2819
 8698TIP3   OH250288   4.435   4.117   9.234  0.2072  0.2199  0.4866
 8698TIP3    H150289   4.395   4.032   9.254 -0.0078  0.5266  1.4110
 8698TIP3    H250290   4.526   4.107   9.262  0.1803  0.2930  0.6009
 8699TIP3   OH250291   5.466   2.980   9.432  0.6788 -0.0367 -0.3857
 8699TIP3    H150292   5.463   2.925   9.510 -3.1180 -0.1246 -0.4317
 8699TIP3    H250293   5.451   2.919   9.360  2.5099  0.2924 -1.1127
 8700TIP3   OH250294   6.011   1.794   9.617 -0.3826  0.3266  0.1044
 8700TIP3    H150295   5.991   1.810   9.525  0.9158  0.2029 -0.2116
 8700TIP3    H250296   5.931   1.757   9.652 -0.6449 -0.3724 -1.1657
 8701TIP3   OH250297   1.608   2.255  10.302 -0.9764  0.5230  0.3432
 8701TIP3    H150298   1.682   2.230  10.357  0.3402  1.1154 -1.1016
 8701TIP3    H250299   1.590   2.178  10.248 -0.5452  0.8160 -0.2250
 8702TIP3   OH250300   4.493   2.426  10.929 -0.1246 -0.1714  0.4309
 8702TIP3    H150301   4.519   2.444  11.019 -0.3789 -1.0422  0.6873
 8702TIP3    H250302   4.413   2.375  10.936  0.0302 -0.5305 -0.2852
 8703TIP3   OH250303   4.332   3.669   9.942 -0.7704  0.0191 -0.3117
 8703TIP3    H150304   4.373   3.632  10.020  0.9834  1.2619 -0.5915
 8703TIP3    H250305   4.249   3.705   9.973  0.6854  2.1395  1.4222
 8704TIP3   OH250306   2.572   2.027   9.017 -0.1263 -0.3392  0.1711
 8704TIP3    H150307   2.620   1.945   9.025 -0.9598 -0.8827 -0.2600
 8704TIP3    H250308   2.497   2.016   9.076 -0.1517  0.1856  0.2417
 8705TIP3   OH250309   4.284   4.750   8.376  0.0381 -0.7230  0.4940
 8705TIP3    H150310   4.245   4.777   8.459 -0.5269 -0.7865  0.2535
 8705TIP3    H250311   4.267   4.822   8.316 -0.7569 -1.2495  0.0692
 8706TIP3   OH250312   1.291   4.698  10.231 -0.1832 -0.7787 -0.0565
 8706TIP3    H150313   1.279   4.732  10.142 -0.1357 -0.4388  0.0673
 8706TIP3    H250314   1.229   4.625  10.237 -0.4177 -0.5979 -0.2565
 8707TIP3   OH250315   4.109   0.174   9.862 -0.1991  0.0411 -0.0214
 8707TIP3    H150316   4.037   0.225   9.826  0.2344  0.4392 -0.3422
 8707TIP3    H250317   4.151   0.134   9.786  0.8498  1.0564 -0.0049
 8708TIP3   OH250318   4.244   2.623   9.163 -0.3148  0.6932  0.2507
 8708TIP3    H150319   4.311   2.558   9.141 -1.7453 -0.9021  0.4122
 8708TIP3    H250320   4.236   2.676   9.084  0.9611  0.7863  0.1569
 8709TIP3   OH250321   0.442   2.036  10.507 -0.3332 -0.5114  0.1761
 8709TIP3    H150322   0.358   2.077  10.524  0.4042  0.1799  2.5465
 8709TIP3    H250323   0.443   2.020  10.413 -1.9822  1.9276 -0.3245
 8710TIP3   OH250324   0.821   1.550  11.587  0.0374 -0.0415  0.1486
 8710TIP3    H150325   0.733   1.512  11.579  0.3046 -1.0064  1.3395
 8710TIP3    H250326   0.807   1.644  11.580 -1.0776 -0.1888  0.1258
 8711TIP3   OH250327   4.352   6.338   9.201  0.6829 -0.2537  0.1143
 8711TIP3    H150328   4.328   6.246   9.196  0.5375 -0.3858  2.2265
 8711TIP3    H250329   4.286   6.377   9.258  0.0429  1.4463 -1.7130
 8712TIP3   OH250330   2.623   3.308  12.008 -0.0937 -0.2690  0.0553
 8712TIP3    H150331   2.540   3.303  12.056 -0.3906  3.2163  0.1619
 8712TIP3    H250332   2.600   3.350  11.925  1.3806 -0.3082 -0.3972
 8713TIP3   OH250333   3.102   2.055   9.570 -0.2019  0.1998  0.1825
 8713TIP3    H150334   3.155   2.133   9.552 -0.3067  0.0060 -1.0572
 8713TIP3    H250335   3.160   1.997   9.619  0.4641  0.3363 -0.4227
 8714TIP3   OH250336   5.295   3.877  10.963 -0.0577  0.1255 -0.0921
 8714TIP3    H150337   5.207   3.877  11.001 -0.3802 -0.7289 -0.8221
 8714TIP3    H250338   5.328   3.789  10.979 -0.1017 -0.1758 -1.5512
 8715TIP3   OH250339   5.664   6.038  11.173  0.1800  0.1638 -0.0962
 8715TIP3    H150340   5.687   6.128  11.151 -0.6437  0.4217  0.0702
 8715TIP3    H250341   5.592   6.046  11.235 -1.2196 -0.6175 -1.5467
 8716TIP3   OH250342   3.977   5.344  10.699  0.5555 -0.4254  0.6985
 8716TIP3    H150343   3.971   5.277  10.631  0.5367  0.5054 -0.2441
 8716TIP3    H250344   4.061   5.386  10.685 -1.3879  3.0922 -2.0419
 8717TIP3   OH250345   3.557   2.954  11.374 -0.1622 -0.1160 -0.1088
 8717TIP3    H150346   3.629   2.905  11.412 -1.1265 -0.9101  0.7661
 8717TIP3    H250347   3.598   3.015  11.312  1.2748 -0.1802  0.7532
 8718TIP3   OH250348   6.365   1.068   8.393  0.0532  0.1704 -0.0507
 8718TIP3    H150349   6.348   1.150   8.439  0.6792  0.4963 -0.3888
 8718TIP3    H250350   6.279   1.027   8.383 -0.0543 -0.0880  1.7231
 8719TIP3   OH250351   1.555   3.606   8.396 -0.5594 -0.3495  0.6721
 8719TIP3    H150352   1.611   3.551   8.341 -1.1986 -0.8255  0.4850
 8719TIP3    H250353   1.615   3.644   8.461 -0.1075 -1.2601  0.7980
 8720TIP3   OH250354   5.811   1.827  10.274  0.3839  0.2687  0.7003
 8720TIP3    H150355   5.809   1.848  10.180 -0.3554 -0.0134  0.6510
 8720TIP3    H250356   5.797   1.911  10.317 -0.9271  0.1510  0.5250
 8721TIP3   OH250357   1.108   1.083   9.328 -0.1393  0.0097  0.3332
 8721TIP3    H150358   1.044   1.059   9.261  0.8424 -0.3135 -0.5013
 8721TIP3    H250359   1.119   1.003   9.380  0.6929 -0.3913 -0.4447
 8722TIP3   OH250360   4.909   2.616   9.489 -0.6624 -0.0510 -0.5301
 8722TIP3    H150361   4.821   2.631   9.455 -1.0771 -1.2433 -0.0236
 8722TIP3    H250362   4.953   2.566   9.421 -1.3981 -2.1776  0.4739
 8723TIP3   OH250363   1.697   4.637   9.619  0.0887 -0.0535  0.2627
 8723TIP3    H150364   1.746   4.596   9.548  0.8339  1.5275 -0.1842
 8723TIP3    H250365   1.637   4.697   9.574  0.9698  1.3968  0.9541
 8724TIP3   OH250366   0.968   0.653  10.104  0.8255  0.4778  0.3033
 8724TIP3    H150367   0.899   0.608  10.152 -2.0327  1.8351 -2.1806
 8724TIP3    H250368   1.010   0.584  10.051  0.2082 -0.1024  0.5612
 8725TIP3   OH250369   0.506   2.878  10.302 -0.5510 -0.2097 -0.1069
 8725TIP3    H150370   0.521   2.843  10.214  0.1686 -0.3979  0.0870
 8725TIP3    H250371   0.454   2.811  10.346  0.7827 -1.0366  0.2526
 8726TIP3   OH250372   4.424   0.356   9.625  0.5536  0.3475 -0.0058
 8726TIP3    H150373   4.417   0.403   9.541 -0.5461  1.4132  0.6620
 8726TIP3    H250374   4.413   0.264   9.601  0.7468  0.5868 -1.0948
 8727TIP3   OH250375   6.591   5.511   9.399 -0.4788  0.7097  0.3218
 8727TIP3    H150376   6.535   5.578   9.361 -1.9382 -0.8451 -0.3877
 8727TIP3    H250377   6.561   5.503   9.489 -0.0281  1.2511  0.5314
 8728TIP3   OH250378   3.770   4.783   9.027 -0.0490  0.6334  0.3200
 8728TIP3    H150379   3.684   4.777   8.985 -0.5745  1.1481  1.2836
 8728TIP3    H250380   3.758   4.848   9.097  1.0206  0.4138  0.7278
 8729TIP3   OH250381   0.075   6.018   9.341  0.2710  0.4306 -0.2353
 8729TIP3    H150382   0.022   5.958   9.288  0.1439  0.0866  0.2779
 8729TIP3    H250383   0.024   6.099   9.342 -0.3834  0.0223  0.4699
 8730TIP3   OH250384   2.289   5.960  11.222  0.0245  0.4309  0.0733
 8730TIP3    H150385   2.343   6.003  11.156 -2.0586  1.7367 -0.8817
 8730TIP3    H250386   2.340   5.883  11.248 -0.2063 -2.0242 -5.2860
 8731TIP3   OH250387   3.836   0.452   8.309 -0.2423 -0.1103  0.2433
 8731TIP3    H150388   3.894   0.379   8.290  0.1581  0.4062 -0.5799
 8731TIP3    H250389   3.886   0.508   8.369 -0.1482 -0.0088  0.0723
 8732TIP3   OH250390   1.049   2.184   9.277 -0.1346  0.2980 -0.2979
 8732TIP3    H150391   1.054   2.169   9.371 -0.0579 -0.8733 -0.4708
 8732TIP3    H250392   0.980   2.249   9.266 -0.2331  0.3460  0.5596
 8733TIP3   OH250393   2.597   5.849   9.787 -0.1694 -0.2621 -0.6620
 8733TIP3    H150394   2.602   5.914   9.717  1.9720  1.0011  0.5592
 8733TIP3    H250395   2.533   5.884   9.849  0.8906  0.6953 -0.0663
 8734TIP3   OH250396   5.715   4.210  10.459  1.1099 -0.1651 -0.1851
 8734TIP3    H150397   5.622   4.188  10.450  1.2259 -0.9058  0.3288
 8734TIP3    H250398   5.719   4.266  10.537  1.1431 -0.4588  0.0254
 8735TIP3   OH250399   2.008   0.922  10.925  0.5218  0.4838  0.0382
 8735TIP3    H150400   2.042   0.997  10.974 -0.5516  0.4421  0.8867
 8735TIP3    H250401   2.029   0.941  10.834  1.7298  1.0143  0.4078
 8736TIP3   OH250402   0.554   2.624   8.797  0.0161  0.1578  0.1302
 8736TIP3    H150403   0.569   2.713   8.764  1.1901  0.6527  1.8426
 8736TIP3    H250404   0.641   2.587   8.808 -0.4037 -0.6480  0.9054
 8737TIP3   OH250405   5.005   3.226   9.460 -0.0152 -0.3561  0.5181
 8737TIP3    H150406   5.041   3.170   9.391  0.2780  1.8278 -1.2356
 8737TIP3    H250407   4.919   3.189   9.479 -0.7236 -0.2813 -2.1034
 8738TIP3   OH250408   1.609   4.773   8.226 -0.1647 -0.2395 -0.0180
 8738TIP3    H150409   1.567   4.803   8.146  0.2927  0.1543 -0.1114
 8738TIP3    H250410   1.580   4.682   8.236  0.6762 -0.6580 -1.2455
 8739TIP3   OH250411   2.894   0.457   7.950  0.0570  0.4164 -0.4806
 8739TIP3    H150412   2.906   0.363   7.933 -1.2392 -0.0096  0.7407
 8739TIP3    H250413   2.813   0.462   8.000 -0.3469  2.2906 -1.2424
 8740TIP3   OH250414   2.022   5.787   8.665  0.1817  0.3849  0.2690
 8740TIP3    H150415   2.027   5.775   8.760  0.7631 -0.8939  0.1032
 8740TIP3    H250416   2.110   5.765   8.634 -0.3471 -0.4628 -0.6779
 8741TIP3   OH250417   0.559   5.151   9.928 -0.0966 -0.3967 -0.0320
 8741TIP3    H150418   0.480   5.201   9.907 -0.4862  0.0096  2.1434
 8741TIP3    H250419   0.532   5.093  10.000  1.9102  0.9006  1.9024
 8742TIP3   OH250420   3.326   3.598   8.250  0.5415  0.5184  0.2813
 8742TIP3    H150421   3.234   3.594   8.224  0.7083 -1.4133 -0.1919
 8742TIP3    H250422   3.330   3.548   8.332  1.1265  0.9287  0.5146
 8743TIP3   OH250423   0.917   4.179  11.827  0.1422  0.1993  0.0207
 8743TIP3    H150424   1.007   4.209  11.824  0.7714 -1.6415 -0.9789
 8743TIP3    H250425   0.913   4.123  11.905 -0.8096  2.1259  1.4297
 8744TIP3   OH250426   2.108   1.392   8.509 -0.0126 -0.4433 -0.2363
 8744TIP3    H150427   2.095   1.486   8.499  0.0330 -0.4908 -0.8216
 8744TIP3    H250428   2.040   1.353   8.454 -0.1520 -0.7548  0.1546
 8745TIP3   OH250429   2.548   0.777   9.996  1.0482 -0.4800 -0.1302
 8745TIP3    H150430   2.612   0.715  10.031  0.3190 -1.1448  0.0445
 8745TIP3    H250431   2.510   0.818  10.074  3.5965  2.4458 -0.2043
 8746TIP3   OH250432   0.036   3.896   8.448  0.5100  0.3268  0.4102
 8746TIP3    H150433  -0.001   3.975   8.487  0.2150  0.6516 -0.5085
 8746TIP3    H250434   0.038   3.915   8.354  0.0904 -0.9057  0.1457
 8747TIP3   OH250435   6.314   6.333  10.382 -0.0290 -0.5804 -0.2524
 8747TIP3    H150436   6.374   6.407  10.375 -0.7002 -0.0695 -0.6001
 8747TIP3    H250437   6.294   6.327  10.476 -0.2303 -0.1176 -0.2666
 8748TIP3   OH250438   4.989   3.999   9.409  0.0588 -0.7609  0.1128
 8748TIP3    H150439   4.982   4.094   9.415 -0.3365 -0.7690 -0.1777
 8748TIP3    H250440   4.999   3.982   9.316  0.6722 -0.9744  0.2114
 8749TIP3   OH250441   6.244   4.992   8.352 -0.0686  0.1393 -0.8565
 8749TIP3    H150442   6.200   4.967   8.433  0.6420 -0.0470 -0.5162
 8749TIP3    H250443   6.230   5.086   8.345 -0.5227  0.0797 -0.7581
 8750TIP3   OH250444   3.487   3.793  10.423  0.4114 -0.1600  0.5954
 8750TIP3    H150445   3.416   3.854  10.403  1.1535  0.7809  0.7435
 8750TIP3    H250446   3.510   3.754  10.338  0.3493  0.2485  0.3877
 8751TIP3   OH250447   6.365   2.781  10.063  0.0325  0.3155 -0.5146
 8751TIP3    H150448   6.390   2.871  10.042  0.6118 -0.2701 -2.5651
 8751TIP3    H250449   6.447   2.737  10.081 -0.3824  0.6501  2.9155
 8752TIP3   OH250450   5.140   4.555   8.416  0.8258 -0.1140 -0.2572
 8752TIP3    H150451   5.050   4.575   8.393  0.4754 -2.1796 -0.8881
 8752TIP3    H250452   5.163   4.620   8.482 -1.6204 -0.3958  0.9876
 8753TIP3   OH250453   2.128   3.909  10.974  0.3892  0.0936  0.5395
 8753TIP3    H150454   2.130   3.880  11.066 -1.2120  0.2731  0.6669
 8753TIP3    H250455   2.204   3.867  10.934  1.0555 -0.0773  1.9201
 8754TIP3   OH250456   3.718   5.736   9.194 -0.1653 -0.4223 -0.1173
 8754TIP3    H150457   3.777   5.668   9.163 -0.8419 -1.5361  0.9544
 8754TIP3    H250458   3.731   5.809   9.134  1.9622 -0.7983 -0.1870
 8755TIP3   OH250459   4.163   0.516   9.800 -0.5312 -0.1706  0.0284
 8755TIP3    H150460   4.241   0.477   9.761 -1.6194 -1.0778 -1.3638
 8755TIP3    H250461   4.090   0.467   9.762 -1.9270  2.2500 -0.6724
 8756TIP3   OH250462   2.634   4.202   8.217 -0.2217 -0.2524  0.0770
 8756TIP3    H150463   2.649   4.189   8.310 -0.7981  0.4322  0.2695
 8756TIP3    H250464   2.543   4.231   8.210  0.1907  0.9594 -0.5744
 8757TIP3   OH250465   5.932   0.581   9.805 -0.4938  0.2120 -0.2327
 8757TIP3    H150466   5.950   0.574   9.899  0.5786 -1.1514 -0.5031
 8757TIP3    H250467   5.963   0.498   9.768  1.2725  1.6005 -2.1103
 8758TIP3   OH250468   3.247   6.548  10.994  0.0579  0.1936 -0.4107
 8758TIP3    H150469   3.314   6.546  11.063  2.5076  0.2022 -2.6077
 8758TIP3    H250470   3.188   6.619  11.019  0.4049 -0.2756  1.9967
 8759TIP3   OH250471   0.040   2.579   9.623  0.0643  0.6870  0.1803
 8759TIP3    H150472  -0.049   2.547   9.632 -0.1141  0.9295 -0.6518
 8759TIP3    H250473   0.089   2.532   9.690 -0.3220 -0.8682 -0.5660
 8760TIP3   OH250474   2.661   2.625   8.546 -0.3015  0.2585 -0.4674
 8760TIP3    H150475   2.576   2.663   8.524 -0.2593 -0.9267 -3.0187
 8760TIP3    H250476   2.719   2.654   8.476  1.1886  0.2691  0.7253
 8761TIP3   OH250477   2.437   1.872   9.416 -0.0495  0.2253 -0.2701
 8761TIP3    H150478   2.456   1.819   9.493  1.1089  0.2370 -0.5328
 8761TIP3    H250479   2.500   1.944   9.419 -2.5943  2.5824  0.9429
 8762TIP3   OH250480   1.375   1.385  10.810 -0.0198 -0.4545 -0.4465
 8762TIP3    H150481   1.398   1.470  10.846 -2.1036 -0.0221 -0.0192
 8762TIP3    H250482   1.391   1.323  10.881 -0.3515 -0.1556 -0.1133
 8763TIP3   OH250483   3.978   6.620   9.619 -0.1284  0.1773  0.1316
 8763TIP3    H150484   4.036   6.553   9.655 -0.5590  0.7980  2.1219
 8763TIP3    H250485   3.890   6.592   9.644 -0.3983  0.9134  0.0463
 8764TIP3   OH250486   5.513   6.403  16.911  0.2629 -0.0550  0.3455
 8764TIP3    H150487   5.478   6.317  16.887 -0.2121 -0.1456  1.3129
 8764TIP3    H250488   5.599   6.384  16.949  2.0686  0.2571 -3.1242
 8765TIP3   OH250489   4.518   4.661   9.752 -0.2537 -0.3880 -0.5709
 8765TIP3    H150490   4.610   4.640   9.734 -0.3034 -1.2066  0.1078
 8765TIP3    H250491   4.489   4.594   9.814 -0.9185  0.6559  0.2860
 8766TIP3   OH250492   2.173   4.956   8.256  0.3303  0.2296  0.2847
 8766TIP3    H150493   2.249   4.952   8.197  0.6972 -0.8104  0.8001
 8766TIP3    H250494   2.201   5.014   8.327  1.3419 -1.5268  1.3851
 8767TIP3   OH250495   6.368   4.411   9.492  0.2020 -0.1153 -0.4028
 8767TIP3    H150496   6.403   4.479   9.550  0.0018 -0.5223  0.2033
 8767TIP3    H250497   6.379   4.447   9.404  2.8752 -0.5405 -0.3221
 8768TIP3   OH250498   0.658   1.891   8.608 -0.4634  0.4436  0.3910
 8768TIP3    H150499   0.705   1.973   8.630  1.0176 -0.2686  0.0265
 8768TIP3    H250500   0.567   1.910   8.628 -0.0971  2.0656  0.6959
 8769TIP3   OH250501   2.557   1.799  10.300  0.2123  0.9752 -0.3758
 8769TIP3    H150502   2.503   1.778  10.377  0.4512  0.6305 -0.3024
 8769TIP3    H250503   2.524   1.742  10.231  0.0712  1.2067 -0.5011
 8770TIP3   OH250504   3.658   4.432   8.079  0.5769 -0.2778 -0.4427
 8770TIP3    H150505   3.680   4.513   8.125  0.2123  0.5766 -1.7195
 8770TIP3    H250506   3.723   4.369   8.110 -0.0115  0.0586  1.6843
 8771TIP3   OH250507   5.571   1.940  10.808  0.2137  0.4275 -0.1142
 8771TIP3    H150508   5.485   1.913  10.840  0.4673 -2.2850 -1.4239
 8771TIP3    H250509   5.633   1.896  10.867  0.6521 -1.7879 -2.0892
 8772TIP3   OH250510   6.742   1.774   9.847 -0.2843  0.1120 -0.5166
 8772TIP3    H150511   6.771   1.703   9.790  0.1493  1.1895 -1.6785
 8772TIP3    H250512   6.663   1.740   9.889 -2.1125  0.1880 -3.6680
 8773TIP3   OH250513   5.335   0.126   7.857 -0.4101 -0.0342 -0.1608
 8773TIP3    H150514   5.401   0.195   7.866  1.7019 -1.8347 -1.0067
 8773TIP3    H250515   5.370   0.068   7.789 -1.5358 -2.5075  1.2428
 8774TIP3   OH250516   5.313   5.856  10.271  0.1186 -0.1365 -0.1873
 8774TIP3    H150517   5.319   5.940  10.316  3.4377 -0.7937  0.8209
 8774TIP3    H250518   5.400   5.842  10.233 -0.9742 -2.1471 -2.2176
 8775TIP3   OH250519   1.150   5.747   9.523  0.1436  0.0657 -0.0352
 8775TIP3    H150520   1.078   5.768   9.463 -0.5899  0.2309  0.8840
 8775TIP3    H250521   1.219   5.714   9.466 -1.0724 -1.2190 -0.8431
 8776TIP3   OH250522   5.519   0.242  18.616  0.2256  0.0741  0.1344
 8776TIP3    H150523   5.462   0.318  18.630 -2.0072 -1.7988  2.1148
 8776TIP3    H250524   5.581   0.245  18.688 -0.0047 -0.0895  0.3408
 8777TIP3   OH250525   6.284   5.587   8.532  0.0434 -0.0352 -1.0041
 8777TIP3    H150526   6.373   5.623   8.527 -0.5535  1.6816 -0.0908
 8777TIP3    H250527   6.247   5.603   8.446  0.3850 -0.1272 -1.1716
 8778TIP3   OH250528   1.357   3.806  10.369  0.2291 -0.6643 -0.5984
 8778TIP3    H150529   1.429   3.852  10.413 -1.2583 -0.1799  1.4222
 8778TIP3    H250530   1.335   3.863  10.295  1.4195 -0.4658 -0.8337
 8779TIP3   OH250531   2.924   3.748  10.869 -0.1407  0.8016 -0.4368
 8779TIP3    H150532   2.992   3.814  10.855  2.0203 -0.6225  2.2828
 8779TIP3    H250533   2.964   3.666  10.839 -1.0845  0.1092  0.1263
 8780TIP3   OH250534   0.157   1.954   9.350  0.4935 -0.5767 -0.7059
 8780TIP3    H150535   0.189   2.040   9.324 -0.3596  0.2380  0.7992
 8780TIP3    H250536   0.062   1.965   9.357  0.1852 -2.0564 -1.9398
 8781TIP3   OH250537   0.808   5.151  10.574  0.0095  0.5796  0.4465
 8781TIP3    H150538   0.727   5.194  10.602  1.0085  3.6313 -0.9216
 8781TIP3    H250539   0.877   5.215  10.592  1.7655 -0.8684 -0.7922
 8782TIP3   OH250540   3.605   0.690  10.165 -0.0417  0.3556  0.4188
 8782TIP3    H150541   3.565   0.611  10.203 -1.0511  0.7803  0.2649
 8782TIP3    H250542   3.699   0.675  10.173 -0.2239 -0.6353  0.8727
 8783TIP3   OH250543   2.055   2.872   7.814 -0.1746 -0.1526 -0.2344
 8783TIP3    H150544   1.975   2.923   7.797 -0.4125 -0.2851  0.4720
 8783TIP3    H250545   2.063   2.870   7.909  0.0423 -1.1107 -0.2636
 8784TIP3   OH250546   2.370   4.127   8.506  0.1328 -0.0333  0.8165
 8784TIP3    H150547   2.317   4.105   8.429  1.8349 -0.2673 -0.3279
 8784TIP3    H250548   2.309   4.173   8.564 -1.2976 -0.2076 -0.4817
 8785TIP3   OH250549   0.480   0.367   7.963  0.4352  0.3549 -0.0250
 8785TIP3    H150550   0.393   0.389   7.994  0.3313  0.4585 -0.3822
 8785TIP3    H250551   0.485   0.271   7.970  0.7048  0.4335  1.0481
 8786TIP3   OH250552   4.853   5.788   9.114  0.6070 -0.2654  0.1847
 8786TIP3    H150553   4.887   5.869   9.075  0.9153 -0.1535  0.6720
 8786TIP3    H250554   4.764   5.780   9.080  0.1040  0.9833  1.1603
 8787TIP3   OH250555   2.994   1.421   9.379  0.5102 -1.1422 -0.2549
 8787TIP3    H150556   2.977   1.338   9.422  0.9404 -0.6736  0.8674
 8787TIP3    H250557   2.925   1.479   9.409  0.3222 -1.0323 -0.8801
 8788TIP3   OH250558   2.132   0.455   8.859  0.2006  0.3911 -0.2544
 8788TIP3    H150559   2.146   0.502   8.941 -0.9850  1.2693 -0.5268
 8788TIP3    H250560   2.078   0.515   8.806 -1.6223 -1.3849 -0.5061
 8789TIP3   OH250561   2.029   5.625   9.227 -0.5089  0.2194 -0.0592
 8789TIP3    H150562   2.031   5.542   9.180  1.4217 -0.0271  0.3628
 8789TIP3    H250563   2.039   5.601   9.319 -1.3029  0.8485  0.1986
 8790TIP3   OH250564   2.901   0.251   9.833 -0.1395 -0.8179 -0.1379
 8790TIP3    H150565   2.852   0.273   9.754  0.5823 -1.7440 -0.8575
 8790TIP3    H250566   2.971   0.194   9.803  1.2025  0.2235  0.9183
 8791TIP3   OH250567   0.038   5.303   9.151 -0.2186 -0.2076 -0.1165
 8791TIP3    H150568  -0.045   5.333   9.113  1.1543  3.4140 -0.5960
 8791TIP3    H250569   0.016   5.280   9.241 -1.5913  1.7078  0.0861
 8792TIP3   OH250570   1.424   6.533  10.029 -0.8066  0.4662 -0.2875
 8792TIP3    H150571   1.391   6.554  10.116  0.1690  1.3847 -0.1182
 8792TIP3    H250572   1.422   6.616   9.981  1.9536  0.7876 -0.0061
 8793TIP3   OH250573   4.141   3.468  10.239 -0.5158 -0.0111  0.1456
 8793TIP3    H150574   4.224   3.513  10.249  0.6130 -1.7027 -1.0188
 8793TIP3    H250575   4.116   3.442  10.328  1.1828 -1.0819  0.3584
 8794TIP3   OH250576   6.600   2.396   8.923  0.2670  0.1291  0.1190
 8794TIP3    H150577   6.692   2.413   8.907  0.1374  0.6974 -0.0684
 8794TIP3    H250578   6.597   2.362   9.012  0.6092  0.6060  0.3192
 8795TIP3   OH250579   3.442   4.373  11.234  0.0095  0.2904  0.4289
 8795TIP3    H150580   3.387   4.421  11.296 -0.4678  0.3207 -0.0144
 8795TIP3    H250581   3.509   4.436  11.208 -0.3718  0.5904  0.1661
 8796TIP3   OH250582   2.794   5.799  10.842  0.5765 -0.2197 -0.8355
 8796TIP3    H150583   2.749   5.842  10.915 -0.1797  1.0404 -1.9814
 8796TIP3    H250584   2.819   5.714  10.876  0.4809  0.4237  0.9735
 8797TIP3   OH250585   3.918   0.704   9.971 -0.0619 -0.4462  0.3293
 8797TIP3    H150586   3.969   0.649  10.031 -1.8907 -0.6073  1.8441
 8797TIP3    H250587   3.959   0.791   9.978 -0.6068 -0.2866  2.4274
 8798TIP3   OH250588   1.449   3.572  10.200 -0.2731 -0.3198 -0.1851
 8798TIP3    H150589   1.362   3.569  10.159 -0.8703 -1.1930  1.1011
 8798TIP3    H250590   1.441   3.639  10.268 -0.1477 -0.9006  0.4027
 8799TIP3   OH250591   5.885   2.983   9.640 -0.1188 -0.6506  0.6897
 8799TIP3    H150592   5.828   2.919   9.598 -0.9330  0.0073  0.7586
 8799TIP3    H250593   5.866   2.975   9.733  0.0832 -0.5934  0.7370
 8800TIP3   OH250594   3.366   3.221   8.847  0.4357  0.2417 -0.3451
 8800TIP3    H150595   3.461   3.210   8.843  0.3610 -0.9148  0.3154
 8800TIP3    H250596   3.334   3.180   8.767  0.6059  2.9838 -1.9251
 8801TIP3   OH250597   0.634   1.972  10.949  0.2504  0.2496 -0.1413
 8801TIP3    H150598   0.623   1.934  10.862  0.6010 -0.1149 -0.0274
 8801TIP3    H250599   0.666   1.900  11.004 -2.1407 -0.1513  0.8531
 8802TIP3   OH250600   0.244   0.763   8.699 -0.5511  0.2450  0.4665
 8802TIP3    H150601   0.179   0.737   8.764 -1.8784 -0.5641 -1.0920
 8802TIP3    H250602   0.324   0.717   8.725 -1.1067 -0.2220  1.3948
 8803TIP3   OH250603   1.407   2.400  10.525 -0.3458  0.0968 -0.9824
 8803TIP3    H150604   1.390   2.345  10.449 -0.0498  1.6367 -2.2030
 8803TIP3    H250605   1.502   2.402  10.533 -0.3422 -2.4122  1.2840
 8804TIP3   OH250606   0.288   3.210   8.240 -0.3704  0.6880 -0.6744
 8804TIP3    H150607   0.339   3.172   8.169 -0.8559 -1.4998  0.0610
 8804TIP3    H250608   0.232   3.139   8.271 -2.7271  2.5358 -0.3757
 8805TIP3   OH250609   5.887   4.969   8.365 -0.1350  0.0291 -0.3630
 8805TIP3    H150610   5.923   4.881   8.355  0.7891  0.3967 -0.4293
 8805TIP3    H250611   5.963   5.027   8.356 -0.6771  0.8172 -0.0035
 8806TIP3   OH250612   2.063   6.639  11.308  0.4885 -0.0834 -0.0070
 8806TIP3    H150613   2.042   6.545  11.313  2.1667 -0.4287  2.8448
 8806TIP3    H250614   2.154   6.641  11.277  0.1148  0.7027 -1.1062
 8807TIP3   OH250615   5.245   5.490  10.861  0.6552 -0.3682 -0.5655
 8807TIP3    H150616   5.166   5.441  10.883 -0.9162  2.1880 -0.1759
 8807TIP3    H250617   5.311   5.422  10.846 -1.0445 -2.5569  1.1088
 8808TIP3   OH250618   4.990   5.139   9.569  0.2412  0.1164  0.2266
 8808TIP3    H150619   5.025   5.218   9.528  1.2447 -0.4547 -0.0516
 8808TIP3    H250620   5.050   5.120   9.641 -0.5000  0.1002  0.8515
 8809TIP3   OH250621   1.614   6.082  10.424  0.3589  0.2715 -0.3598
 8809TIP3    H150622   1.546   6.046  10.367 -0.2776 -1.4175  1.3787
 8809TIP3    H250623   1.616   6.175  10.403 -2.5118  0.3896 -0.4704
 8810TIP3   OH250624   3.088   0.724   8.705  0.0070  0.1128  0.8632
 8810TIP3    H150625   3.043   0.690   8.628  0.4650 -1.4050  1.2484
 8810TIP3    H250626   3.160   0.777   8.668 -0.5011  0.4143  0.2685
 8811TIP3   OH250627   3.485   6.084  10.154 -0.1564 -0.4942  0.2021
 8811TIP3    H150628   3.549   6.112  10.219  0.2898 -1.3728  0.1538
 8811TIP3    H250629   3.525   6.107  10.070 -0.0019 -0.8409  0.1802
 8812TIP3   OH250630   0.990   6.604  10.618 -0.1912  0.1784 -0.9340
 8812TIP3    H150631   0.941   6.616  10.699  1.2804 -1.9760  0.3652
 8812TIP3    H250632   1.052   6.677  10.616 -0.1650  0.1878 -0.0517
 8813TIP3   OH250633   5.148   0.500   9.394  0.0657 -0.2033 -0.1900
 8813TIP3    H150634   5.122   0.474   9.305  1.1295  1.1283 -0.9261
 8813TIP3    H250635   5.158   0.595   9.389  3.4881 -0.4034  0.3961
 8814TIP3   OH250636   1.065   5.876  11.277 -0.3947 -0.2022 -0.0526
 8814TIP3    H150637   1.155   5.866  11.307 -0.5511  0.6316  0.7351
 8814TIP3    H250638   1.020   5.919  11.350 -1.2357  0.1450 -0.7577
 8815TIP3   OH250639   4.442   5.159   9.104 -0.0662  0.2595  0.0985
 8815TIP3    H150640   4.527   5.159   9.147  1.0568  1.9305 -1.9260
 8815TIP3    H250641   4.453   5.100   9.030 -0.3369  1.1595 -0.6854
 8816TIP3   OH250642   2.011   2.288  11.227 -0.3740  0.4021  0.2056
 8816TIP3    H150643   1.927   2.302  11.272 -0.4294  0.4011  0.1018
 8816TIP3    H250644   2.003   2.202  11.186 -0.4086  0.5008  0.0042
 8817TIP3   OH250645   6.585   0.390  11.283  0.1391 -0.0794 -0.4247
 8817TIP3    H150646   6.565   0.460  11.345 -1.2605  0.9406 -1.9710
 8817TIP3    H250647   6.650   0.427  11.225  0.0569 -0.3772 -0.7104
 8818TIP3   OH250648   5.921   4.448   8.408  0.1839  0.4998 -0.1151
 8818TIP3    H150649   5.891   4.358   8.392  0.8482  0.2658 -0.0986
 8818TIP3    H250650   5.969   4.471   8.328  0.5777  0.5940  0.1467
 8819TIP3   OH250651   6.063   0.623   7.802  0.2306  0.1613  0.4031
 8819TIP3    H150652   5.997   0.556   7.821 -0.7460  0.3902 -1.7843
 8819TIP3    H250653   6.092   0.654   7.887  0.2030 -2.5264  1.4885
 8820TIP3   OH250654   4.393   1.756   7.972  0.3715  0.4556 -0.2222
 8820TIP3    H150655   4.440   1.839   7.963  1.4438 -0.3218 -2.8784
 8820TIP3    H250656   4.307   1.772   7.935  0.6683  0.3713 -0.9828
 8821TIP3   OH250657   0.932   3.435  10.582 -0.4006  0.0554 -0.1446
 8821TIP3    H150658   0.991   3.454  10.510 -0.4477 -1.0526 -0.4948
 8821TIP3    H250659   0.953   3.501  10.649  0.3430  0.4533 -0.7604
 8822TIP3   OH250660   2.605   5.435  10.647 -0.3747  0.4868  0.9585
 8822TIP3    H150661   2.651   5.358  10.680 -0.9647 -0.1537  0.3030
 8822TIP3    H250662   2.529   5.400  10.601 -0.8371  1.4778  0.9466
 8823TIP3   OH250663   5.391   1.017   9.094 -0.2799  0.4394  0.3486
 8823TIP3    H150664   5.459   0.950   9.106  1.0106  1.9630  1.9600
 8823TIP3    H250665   5.363   1.040   9.182 -1.2489  1.5002 -0.1995
 8824TIP3   OH250666   2.951   1.499   8.580 -0.5619 -0.1203  0.2132
 8824TIP3    H150667   2.981   1.501   8.490 -0.4807  0.7814  0.2538
 8824TIP3    H250668   2.969   1.586   8.614 -1.3116 -0.2008  0.8652
 8825TIP3   OH250669   1.513   5.067   8.299  0.0336  0.6969 -0.0608
 8825TIP3    H150670   1.446   5.016   8.252 -0.5477  2.0518 -0.7650
 8825TIP3    H250671   1.519   5.149   8.250 -0.7906  2.2983  2.3608
 8826TIP3   OH250672   4.338   3.361   9.465 -0.1309 -0.4401 -0.0798
 8826TIP3    H150673   4.302   3.305   9.534  1.6730 -1.1722  0.3080
 8826TIP3    H250674   4.372   3.300   9.399 -0.5079  0.2410 -0.9260
 8827TIP3   OH250675   1.546   0.722   9.439 -0.4859  0.1409  0.5739
 8827TIP3    H150676   1.569   0.814   9.452  0.3994 -0.0608  0.5076
 8827TIP3    H250677   1.621   0.686   9.391 -0.5918 -0.7245  1.0473
 8828TIP3   OH250678   2.642   3.782  10.856  0.3496 -0.1146  0.6455
 8828TIP3    H150679   2.732   3.750  10.844  0.2874 -0.6783  1.6179
 8828TIP3    H250680   2.610   3.797  10.767  0.5609 -2.2766  0.1569
 8829TIP3   OH250681   1.489   0.294   8.411 -0.2514 -0.3013  0.3603
 8829TIP3    H150682   1.425   0.248   8.357  0.8207  0.4221 -1.6414
 8829TIP3    H250683   1.454   0.288   8.500 -4.1363  1.6618 -0.7711
 8830TIP3   OH250684   4.903   6.427   8.592 -0.0037 -0.0952 -0.7666
 8830TIP3    H150685   4.911   6.437   8.497 -0.1322  1.0757 -0.6733
 8830TIP3    H250686   4.982   6.468   8.627 -0.7105  0.9634 -0.3290
 8831TIP3   OH250687   5.622   2.802  11.054 -0.2312  0.0353  0.5393
 8831TIP3    H150688   5.572   2.845  11.122 -0.4462 -1.6070  1.4778
 8831TIP3    H250689   5.703   2.853  11.047 -0.3859  0.4716  1.7392
 8832TIP3   OH250690   1.594   1.568   9.427 -0.6056 -0.1418 -0.5473
 8832TIP3    H150691   1.584   1.659   9.398  1.0725  0.3790  0.3155
 8832TIP3    H250692   1.525   1.556   9.493 -0.9230  0.4676 -0.7608
 8833TIP3   OH250693   5.217   6.714   8.921  0.3363 -0.2178  0.0852
 8833TIP3    H150694   5.247   6.698   9.010  0.3889  0.0928  0.1252
 8833TIP3    H250695   5.188   6.629   8.889  1.7682 -0.6390 -0.1575
 8834TIP3   OH250696   3.154   2.849  10.245 -0.8100  0.4920 -0.3524
 8834TIP3    H150697   3.085   2.907  10.279 -1.3694 -0.0331 -0.5701
 8834TIP3    H250698   3.226   2.908  10.223 -1.1907  1.0535 -0.1290
 8835TIP3   OH250699   0.140   4.206   9.475  0.3109  0.0823 -0.0856
 8835TIP3    H150700   0.180   4.133   9.430  1.5825 -0.4249  1.7458
 8835TIP3    H250701   0.075   4.165   9.534  1.0751  0.3770  0.9963
 8836TIP3   OH250702   2.489   1.442   9.243 -0.2213 -0.3165  0.4158
 8836TIP3    H150703   2.517   1.533   9.227  0.6856 -0.4178  1.2750
 8836TIP3    H250704   2.513   1.395   9.163 -0.3229  0.1216  0.1255
 8837TIP3   OH250705   1.497   3.804   9.208 -0.3608 -0.0838  0.0471
 8837TIP3    H150706   1.580   3.782   9.166 -1.5712 -1.1877 -1.9822
 8837TIP3    H250707   1.453   3.862   9.145 -2.6181 -2.5017 -0.8324
 8838TIP3   OH250708   5.527   2.807   9.918 -0.0619  0.3592  0.5157
 8838TIP3    H150709   5.581   2.873   9.961  0.2688 -0.3147  1.1564
 8838TIP3    H250710   5.438   2.840   9.926  0.1862  1.1838 -0.0170
 8839TIP3   OH250711   0.554   5.907   8.906  0.0792  0.2304 -0.3659
 8839TIP3    H150712   0.551   5.988   8.855 -1.0857  1.6007  1.7185
 8839TIP3    H250713   0.632   5.916   8.962 -0.5025  0.3386  0.4543
 8840TIP3   OH250714   6.438   5.076  10.161  0.6648 -0.4419  0.0342
 8840TIP3    H150715   6.372   5.059  10.228 -0.2891  1.7161 -0.2681
 8840TIP3    H250716   6.407   5.028  10.084  0.2683 -0.6709  0.3333
 8841TIP3   OH250717   1.450   1.177   8.915  0.0202 -0.0850  0.3805
 8841TIP3    H150718   1.462   1.270   8.897 -2.7792  0.3371  0.2161
 8841TIP3    H250719   1.355   1.165   8.918  0.2773 -2.9938  0.1638
 8842TIP3   OH250720   1.613   6.586  10.275 -0.3872  0.6416  0.0216
 8842TIP3    H150721   1.661   6.664  10.304  0.1243  0.5741 -0.5979
 8842TIP3    H250722   1.615   6.592  10.179  0.5890 -0.6734 -0.0618
 8843TIP3   OH250723   5.371   3.526   9.191  0.3321  0.6103 -0.2303
 8843TIP3    H150724   5.404   3.535   9.281 -0.9376 -2.5558  0.6738
 8843TIP3    H250725   5.448   3.501   9.140  0.5918 -0.1957  0.5306
 8844TIP3   OH250726   0.587   4.443  11.048 -0.0969 -0.3443  0.6416
 8844TIP3    H150727   0.541   4.371  11.092 -1.0893  0.7346  1.4277
 8844TIP3    H250728   0.517   4.495  11.008  0.7101 -0.7274 -1.4038
 8845TIP3   OH250729   2.356   4.301   9.305  0.4753  0.2991  0.2236
 8845TIP3    H150730   2.440   4.334   9.336  1.0802 -0.4920 -0.5436
 8845TIP3    H250731   2.377   4.248   9.228 -0.7339  0.1772 -0.0487
 8846TIP3   OH250732   2.580   2.863  10.481 -0.3449  0.0473 -0.0212
 8846TIP3    H150733   2.542   2.796  10.539  0.4741 -0.1186  0.3261
 8846TIP3    H250734   2.651   2.902  10.532  1.1405 -0.8817 -1.2941
 8847TIP3   OH250735   1.674   5.513   8.482  0.5106  0.4882  0.6179
 8847TIP3    H150736   1.599   5.454   8.476  0.9179 -0.1559  1.5677
 8847TIP3    H250737   1.672   5.563   8.401  0.2121 -0.9058 -0.2675
 8848TIP3   OH250738   5.683   3.262   8.819  0.0877 -0.4392  0.3866
 8848TIP3    H150739   5.712   3.196   8.882  0.8396  0.7734  1.3893
 8848TIP3    H250740   5.765   3.295   8.781 -0.3155 -0.5521 -0.5955
 8849TIP3   OH250741   4.052   3.982   9.147  0.2552 -0.1050  0.6353
 8849TIP3    H150742   4.131   4.035   9.154  0.4381  0.0607 -1.9116
 8849TIP3    H250743   4.037   3.951   9.237  2.5601  0.7296  1.3979
 8850TIP3   OH250744   0.001   6.083   9.942 -0.3850  0.4305 -0.6142
 8850TIP3    H150745  -0.068   6.067   9.877  0.2046  0.1588 -1.1745
 8850TIP3    H250746  -0.042   6.065  10.026 -1.0567  0.4572 -0.9423
 8851TIP3   OH250747   0.294   3.286   8.504  0.1415  0.0967 -0.3539
 8851TIP3    H150748   0.302   3.285   8.408 -2.7021 -1.5921 -0.6959
 8851TIP3    H250749   0.203   3.311   8.520  0.4859  0.0894  1.9075
 8852TIP3   OH250750   2.750   3.217   9.005 -0.2058  0.0104 -0.0155
 8852TIP3    H150751   2.692   3.158   8.957  0.1117 -1.0149  0.8254
 8852TIP3    H250752   2.816   3.242   8.940 -2.2599  2.2979 -1.3957
 8853TIP3   OH250753   0.396   4.596  10.936 -0.2073 -0.2600 -0.2944
 8853TIP3    H150754   0.428   4.680  10.904  0.5616 -0.1049  0.8226
 8853TIP3    H250755   0.327   4.571  10.875 -1.0534  1.6074 -0.1456
 8854TIP3   OH250756   4.040   3.742  10.490 -0.1535 -0.3966  0.2076
 8854TIP3    H150757   4.065   3.806  10.423  0.0667 -4.3477 -4.0251
 8854TIP3    H250758   4.121   3.694  10.508 -0.6516 -0.6621  1.9358
 8855TIP3   OH250759   4.952   1.822   8.335 -0.6841 -0.4885 -0.5467
 8855TIP3    H150760   5.011   1.753   8.367 -0.3250 -0.0120 -0.1525
 8855TIP3    H250761   4.939   1.801   8.243  1.3194  0.1951 -1.0493
 8856TIP3   OH250762   5.555   0.837  11.211 -0.1290  0.2455 -0.0571
 8856TIP3    H150763   5.526   0.928  11.211 -0.1118  0.3034  2.0391
 8856TIP3    H250764   5.645   0.840  11.177 -0.5518  0.8021 -1.1884
 8857TIP3   OH250765   4.157   6.736   8.483  0.3883 -0.2188  0.4313
 8857TIP3    H150766   4.064   6.753   8.468  0.4384  0.8489  1.2107
 8857TIP3    H250767   4.197   6.823   8.487  1.4756 -0.6732 -0.1913
 8858TIP3   OH250768   6.109   5.630   8.323 -0.0936 -0.3730  0.2778
 8858TIP3    H150769   6.053   5.646   8.247 -1.8035  1.7287  1.8229
 8858TIP3    H250770   6.056   5.574   8.380 -0.0807  0.4365  1.1251
 8859TIP3   OH250771   0.116   1.047   8.954 -0.1254  0.0813  0.3559
 8859TIP3    H150772   0.031   1.018   8.988 -0.1879 -0.7718 -0.4859
 8859TIP3    H250773   0.177   0.978   8.980 -0.0419 -0.2288 -0.6257
 8860TIP3   OH250774   6.219   4.919   9.681  0.3003 -0.2136 -0.4214
 8860TIP3    H150775   6.242   4.937   9.772 -0.4080  2.0832 -0.6187
 8860TIP3    H250776   6.140   4.865   9.687 -0.9683  1.6147  0.4233
 8861TIP3   OH250777   4.171   0.782   9.745 -0.1250 -0.4197 -0.2900
 8861TIP3    H150778   4.159   0.692   9.775 -0.4950  0.1953  1.4870
 8861TIP3    H250779   4.102   0.795   9.680  1.4090 -2.1480 -2.4414
 8862TIP3   OH250780   6.218   6.532  10.196 -0.0662 -0.2158 -0.1133
 8862TIP3    H150781   6.261   6.603  10.148  0.0367 -0.9825 -1.1798
 8862TIP3    H250782   6.246   6.452  10.152 -1.2584 -0.8447  0.2172
 8863TIP3   OH250783   4.020   3.401   9.147  0.0972 -0.0482 -0.0433
 8863TIP3    H150784   4.106   3.442   9.133 -0.1946  0.2158 -1.2390
 8863TIP3    H250785   3.995   3.370   9.060 -1.1198  0.0979  0.2433
 8864TIP3   OH250786   2.317   3.331   9.053 -0.2203 -0.0007  0.6178
 8864TIP3    H150787   2.360   3.416   9.061  1.3837 -0.7492  0.4363
 8864TIP3    H250788   2.285   3.311   9.140  0.2781  0.3599  0.8884
 8865TIP3   OH250789   5.055   1.827   9.138  0.1784  0.0412  0.1650
 8865TIP3    H150790   5.141   1.865   9.123 -0.0508  0.9427  1.0267
 8865TIP3    H250791   5.056   1.800   9.230 -0.7424  0.8484  0.4336
 8866TIP3   OH250792   0.381   3.115   8.007  0.0302  0.3414  0.9395
 8866TIP3    H150793   0.377   3.022   8.030  0.3547  0.1692  0.3073
 8866TIP3    H250794   0.374   3.117   7.912  0.4929  0.9416  0.9132
 8867TIP3   OH250795   6.026   4.846   9.153  0.1543 -0.4415  0.5145
 8867TIP3    H150796   6.056   4.809   9.070 -1.3234 -0.6413  0.0348
 8867TIP3    H250797   6.101   4.895   9.186  0.3694  0.7653 -1.5954
 8868TIP3   OH250798   2.142   1.017   9.186  0.1403  0.2779  0.0462
 8868TIP3    H150799   2.124   1.077   9.114  1.2119  0.6028  0.0425
 8868TIP3    H250800   2.236   1.025   9.202  0.2349 -1.1191  0.2948
 8869TIP3   OH250801   0.288   0.283   8.327 -0.0563  0.4272  0.2614
 8869TIP3    H150802   0.312   0.354   8.387  1.0899 -0.1251  0.4765
 8869TIP3    H250803   0.351   0.214   8.344 -1.6903 -1.0400  0.6948
 8870TIP3   OH250804   0.021   5.422  10.177  0.1580 -0.0569  0.3559
 8870TIP3    H150805  -0.069   5.440  10.150  0.4261 -0.7986 -1.1054
 8870TIP3    H250806   0.012   5.356  10.246 -0.3965 -0.5606 -0.1870
 8871TIP3   OH250807   4.442   0.383   9.151 -0.2167  0.0056  0.4870
 8871TIP3    H150808   4.535   0.406   9.151  0.4862 -2.5499  1.1624
 8871TIP3    H250809   4.404   0.437   9.082  2.0383  0.1272 -0.7448
 8872TIP3   OH250810   4.800   1.476   8.767  0.0721 -0.6810  0.0405
 8872TIP3    H150811   4.825   1.568   8.753 -0.4012 -0.6388 -0.5465
 8872TIP3    H250812   4.846   1.451   8.848  0.3866  0.0014  0.0802
 8873TIP3   OH250813   3.140   2.602   9.660 -0.0885  0.0616 -0.3612
 8873TIP3    H150814   3.199   2.543   9.707  0.4689 -0.2097 -1.3693
 8873TIP3    H250815   3.127   2.675   9.719  1.1715  0.0653 -0.0591
 8874TIP3   OH250816   3.044   4.297   8.258  0.2678  0.2548  0.1725
 8874TIP3    H150817   3.028   4.387   8.286 -1.9501 -0.0842  0.1422
 8874TIP3    H250818   3.055   4.302   8.163  0.7702  0.5542  0.2436
 8875TIP3   OH250819   1.062   4.551   9.939  0.7018  0.4367 -0.1118
 8875TIP3    H150820   1.102   4.638   9.945  0.4467  0.6411 -1.1857
 8875TIP3    H250821   1.133   4.494   9.909  1.0409  0.1272  1.2147
 8876TIP3   OH250822   3.619   1.350   9.931  0.6360  0.6182  0.4550
 8876TIP3    H150823   3.525   1.336   9.918  0.7392 -0.6153  0.9642
 8876TIP3    H250824   3.625   1.412  10.003  0.2196 -1.2209  2.1428
 8877TIP3   OH250825   0.546   2.956   9.830  0.0755  0.3549 -0.1357
 8877TIP3    H150826   0.512   3.027   9.775  0.1009  0.4115 -0.0799
 8877TIP3    H250827   0.632   2.937   9.794 -0.5429 -0.7089 -1.1229
 8878TIP3   OH250828   0.123   0.966   9.847 -0.2516 -0.2037  0.2842
 8878TIP3    H150829   0.029   0.978   9.834 -0.0369  0.0933 -1.1371
 8878TIP3    H250830   0.137   0.987   9.939 -1.4293  0.7297  0.2782
 8879TIP3   OH250831   5.555   1.000  10.485  0.2188  0.0890 -0.2977
 8879TIP3    H150832   5.499   1.076  10.505 -1.5215 -0.7916 -1.5077
 8879TIP3    H250833   5.602   1.025  10.405  0.0114  0.0870 -0.4214
 8880TIP3   OH250834   1.930   4.382   9.062 -0.1142  0.7682 -0.2759
 8880TIP3    H150835   1.980   4.410   8.986  1.3185  0.9068  0.6777
 8880TIP3    H250836   1.930   4.458   9.121 -0.9985  0.5904 -0.0288
 8881TIP3   OH250837   4.924   1.184   8.327 -0.0380 -0.3655 -0.2508
 8881TIP3    H150838   4.897   1.208   8.416 -2.4007 -0.8404 -0.7569
 8881TIP3    H250839   5.017   1.163   8.334 -0.2791 -0.8590  2.2116
 8882TIP3   OH250840   0.595   6.653  10.778  0.4457 -0.5482  0.2979
 8882TIP3    H150841   0.637   6.637  10.863 -0.8599 -0.7182  0.9342
 8882TIP3    H250842   0.621   6.742  10.754 -1.4720  0.6458  2.2963
 8883TIP3   OH250843   4.330   4.966  10.101 -0.0879  0.5900 -1.0080
 8883TIP3    H150844   4.331   4.931  10.190 -0.3717 -0.9567 -1.5873
 8883TIP3    H250845   4.395   4.914  10.054 -0.3857  0.9762 -1.8612
 8884TIP3   OH250846   3.102   0.494   7.798  0.6609 -0.7414 -0.4608
 8884TIP3    H150847   3.024   0.483   7.853  1.2016 -1.3896  0.1967
 8884TIP3    H250848   3.093   0.582   7.761  1.1946  0.5315  2.1688
 8885TIP3   OH250849   2.296   2.608   9.745 -0.2511  0.1867 -0.5440
 8885TIP3    H150850   2.339   2.569   9.668 -1.4958 -0.8614 -0.7337
 8885TIP3    H250851   2.311   2.702   9.735  1.8966 -0.1036 -0.6477
 8886TIP3   OH250852   5.830   6.584   8.091 -0.3036 -0.5166  0.0290
 8886TIP3    H150853   5.856   6.493   8.101 -1.5855 -0.7602  1.8101
 8886TIP3    H250854   5.741   6.587   8.126 -1.0007  1.0833 -1.6962
 8887TIP3   OH250855   3.402   5.890   8.304 -0.4168  0.1055 -0.0683
 8887TIP3    H150856   3.484   5.849   8.276 -0.1876 -0.6423  1.5323
 8887TIP3    H250857   3.335   5.850   8.249  0.2727  0.7555 -1.4336
 8888TIP3   OH250858   5.226   4.712   9.468  0.2264 -0.3280  0.4208
 8888TIP3    H150859   5.261   4.800   9.483  0.1276 -0.3515  0.8168
 8888TIP3    H250860   5.248   4.692   9.377  1.1986 -0.3215  0.6411
 8889TIP3   OH250861   5.964   4.888  10.307  0.3014  0.6788  0.0518
 8889TIP3    H150862   5.883   4.839  10.317 -0.2148  1.4098 -0.4969
 8889TIP3    H250863   5.944   4.975  10.340  0.1369  1.5789 -2.2559
 8890TIP3   OH250864   2.278   0.774   8.251 -0.3239 -0.2453  0.3147
 8890TIP3    H150865   2.365   0.754   8.286  1.1176  1.3243 -2.0697
 8890TIP3    H250866   2.266   0.867   8.272 -1.2572 -0.3396  0.2259
 8891TIP3   OH250867   5.747   0.953  10.934  0.5060  0.0256  0.0883
 8891TIP3    H150868   5.671   0.987  10.982  0.4635 -1.8740  1.4812
 8891TIP3    H250869   5.710   0.918  10.853  0.0010 -0.2708  0.4444
 8892TIP3   OH250870   5.460   0.395  10.620 -0.5032  0.1397  0.6613
 8892TIP3    H150871   5.505   0.315  10.647 -1.7980 -0.4387  1.1649
 8892TIP3    H250872   5.471   0.398  10.525 -1.4716 -1.3028  0.4697
 8893TIP3   OH250873   0.172   6.602  10.720  0.0186  0.3501 -0.2905
 8893TIP3    H150874   0.231   6.677  10.715  1.0581 -0.5040 -1.4909
 8893TIP3    H250875   0.087   6.635  10.692  0.2780  1.2478 -0.0310
 8894TIP3   OH250876   5.261   5.611   9.574 -0.4051  0.3858  0.5477
 8894TIP3    H150877   5.185   5.668   9.563 -1.3521 -0.2960  2.9917
 8894TIP3    H250878   5.224   5.526   9.597  1.0092 -1.0680 -2.1032
 8895TIP3   OH250879   3.641   2.608   8.831 -0.4228 -0.0613 -0.4913
 8895TIP3    H150880   3.558   2.595   8.786 -0.2125  0.8191 -1.1640
 8895TIP3    H250881   3.645   2.703   8.847 -0.8671 -0.4147  2.1235
 8896TIP3   OH250882   5.186   2.629   7.983 -0.3313  0.0789 -0.5165
 8896TIP3    H150883   5.189   2.555   7.923  0.3752  0.2637 -0.7204
 8896TIP3    H250884   5.277   2.638   8.014 -0.1057  1.7081 -1.5510
 8897TIP3   OH250885   3.602   0.920   9.004  0.2312  0.3165 -0.1093
 8897TIP3    H150886   3.646   0.925   9.089  1.3549 -0.2095 -0.6506
 8897TIP3    H250887   3.579   0.827   8.995  0.9378  0.2002 -0.7807
 8898TIP3   OH250888   1.662   2.392   8.240 -0.2359 -0.2806  0.0013
 8898TIP3    H150889   1.621   2.306   8.236 -1.1662  0.1642 -0.4394
 8898TIP3    H250890   1.598   2.447   8.287  0.2916  0.1938  0.1762
 8899TIP3   OH250891   1.999   3.847   9.688  0.6903 -0.6826 -0.1166
 8899TIP3    H150892   1.997   3.759   9.726 -0.2349  0.1193  1.7904
 8899TIP3    H250893   2.020   3.905   9.761 -1.4595  0.9684 -0.7031
 8900TIP3   OH250894   2.572   5.984  10.384  0.4516  0.4642  0.3525
 8900TIP3    H150895   2.652   6.034  10.395 -0.7526  2.6693 -0.2725
 8900TIP3    H250896   2.590   5.899  10.424  3.2681  0.6587 -0.3392
 8901TIP3   OH250897   2.861   3.341  10.325 -0.0650  0.1884  0.5290
 8901TIP3    H150898   2.819   3.334  10.239  0.9892 -0.5700  0.0492
 8901TIP3    H250899   2.905   3.257  10.336 -0.0134  0.3618  1.7300
 8902TIP3   OH250900   3.001   3.835  11.275 -0.2898  0.4029 -0.1872
 8902TIP3    H150901   2.969   3.922  11.298 -0.2696 -0.1361  2.0879
 8902TIP3    H250902   3.095   3.839  11.292 -0.1999  0.0705 -0.5876
 8903TIP3   OH250903   3.169   0.535  10.748 -0.0531  0.0067  0.1247
 8903TIP3    H150904   3.188   0.531  10.842  0.1099  0.4363  0.1101
 8903TIP3    H250905   3.111   0.610  10.738 -1.8774 -1.3131  0.1708
 8904TIP3   OH250906   1.340   2.629   9.812 -0.2597  0.1326  0.3796
 8904TIP3    H150907   1.395   2.634   9.890 -0.1748 -1.2468  0.4286
 8904TIP3    H250908   1.394   2.665   9.741 -0.2561  1.1748  0.8960
 8905TIP3   OH250909   4.169   5.412   8.917 -0.7645  0.2436  0.3441
 8905TIP3    H150910   4.144   5.504   8.901  3.7713  1.5194 -0.7899
 8905TIP3    H250911   4.243   5.418   8.977 -1.3849 -2.8940  1.5786
 8906TIP3   OH250912   4.377   0.448   8.615  0.7393 -0.1234  0.1517
 8906TIP3    H150913   4.460   0.488   8.641  1.1977 -0.6197 -0.4970
 8906TIP3    H250914   4.354   0.391   8.688 -0.6563  2.3047  1.7487
 8907TIP3   OH250915   2.466   3.494   8.850 -0.2079 -0.2409  0.3189
 8907TIP3    H150916   2.453   3.552   8.926 -0.7705  0.3897 -0.2432
 8907TIP3    H250917   2.408   3.530   8.783 -0.8613 -1.6978  0.0770
 8908TIP3   OH250918   2.004   5.181   9.176  0.5076 -0.5536 -0.2989
 8908TIP3    H150919   1.939   5.121   9.142 -2.4603  1.5211  1.2795
 8908TIP3    H250920   1.998   5.258   9.120  1.0237 -0.0229  0.3539
 8909TIP3   OH250921   4.440   4.929   9.704 -0.3289 -0.1720  0.2453
 8909TIP3    H150922   4.457   4.844   9.744  1.5104  0.0705  0.0537
 8909TIP3    H250923   4.415   4.908   9.614 -0.2727 -0.5171  0.3107
 8910TIP3   OH250924   5.928   6.745   7.859  0.7065  0.0411 -0.1701
 8910TIP3    H150925   5.885   6.703   7.933 -2.2935 -2.2034 -2.9555
 8910TIP3    H250926   5.883   6.829   7.850 -0.5425 -0.6723 -0.7758
 8911TIP3   OH250927   2.160   2.563   7.998 -0.0062 -0.1723 -0.5239
 8911TIP3    H150928   2.192   2.499   7.935 -0.7692 -1.4602  0.3466
 8911TIP3    H250929   2.238   2.594   8.044  0.5955  1.0385 -2.2884
 8912TIP3   OH250930   2.241   4.301   9.627 -0.1062  0.4216  0.2855
 8912TIP3    H150931   2.151   4.287   9.598 -0.2317  1.7811 -0.0547
 8912TIP3    H250932   2.233   4.359   9.704  0.3927 -0.8215  1.3133
 8913TIP3   OH250933   2.571   3.447  10.727 -0.5145 -0.4424  0.6596
 8913TIP3    H150934   2.552   3.368  10.676  3.9217 -0.6791 -1.1517
 8913TIP3    H250935   2.578   3.516  10.661 -0.7533  0.6510  1.7521
 8914TIP3   OH250936   6.191   4.527   8.513  0.1339  0.0757 -0.0456
 8914TIP3    H150937   6.221   4.495   8.598 -0.5876 -1.2135 -0.2373
 8914TIP3    H250938   6.100   4.498   8.507 -0.2802  1.4066 -0.6648
 8915TIP3   OH250939   2.887   6.428  10.060  0.6013  0.6488  0.3910
 8915TIP3    H150940   2.857   6.418  10.150  0.6040  0.9402  0.4260
 8915TIP3    H250941   2.846   6.356  10.012 -0.6506  1.3769  0.3120
 8916TIP3   OH250942   2.478   0.539  10.185  0.1373 -0.2559  0.2047
 8916TIP3    H150943   2.498   0.631  10.203 -1.0400  0.1834 -0.6594
 8916TIP3    H250944   2.541   0.491  10.239 -0.5992  1.0120  2.3298
 8917TIP3   OH250945   1.845   6.476  11.027 -0.0802  0.2796  0.0637
 8917TIP3    H150946   1.844   6.467  10.931  1.2430 -1.7300  0.1888
 8917TIP3    H250947   1.857   6.570  11.041  0.9794  0.4815 -1.7718
 8918TIP3   OH250948   5.093   1.724   9.407  0.0865 -0.2720 -0.3529
 8918TIP3    H150949   5.075   1.792   9.472  0.5790  1.1489 -1.6493
 8918TIP3    H250950   5.120   1.648   9.458 -2.1090 -0.0742  1.2388
 8919TIP3   OH250951   0.165   5.131  11.341  0.5918 -0.1410 -0.0531
 8919TIP3    H150952   0.117   5.067  11.288  0.6238 -0.7793  0.6675
 8919TIP3    H250953   0.183   5.203  11.281  0.0476 -0.5532 -0.7313
 8920TIP3   OH250954   5.574   3.339   9.559 -0.1095  0.1599 -0.2072
 8920TIP3    H150955   5.657   3.353   9.512 -0.8794  1.6469 -1.2036
 8920TIP3    H250956   5.577   3.403   9.630 -0.2225 -0.0975  0.0304
 8921TIP3   OH250957   4.814   5.610   9.891  0.0452 -0.0815  0.2809
 8921TIP3    H150958   4.803   5.516   9.878  2.3152 -0.2416 -0.8822
 8921TIP3    H250959   4.772   5.650   9.815  0.5928 -0.2498 -0.1100
 8922TIP3   OH250960   3.600   1.421  10.468  0.1073 -0.6968  0.1621
 8922TIP3    H150961   3.632   1.421  10.558  0.6481  0.3512 -0.0093
 8922TIP3    H250962   3.505   1.429  10.475  0.2368  0.7215  0.6433
 8923TIP3   OH250963   5.472   5.367   9.104  0.2697 -0.1691 -0.4245
 8923TIP3    H150964   5.471   5.272   9.093  0.2019  0.0014 -2.2284
 8923TIP3    H250965   5.403   5.384   9.169  1.1119 -1.4174  0.8374
 8924TIP3   OH250966   0.666   6.156   8.000 -1.2431  0.1854  0.0173
 8924TIP3    H150967   0.606   6.230   8.006 -1.0931  0.3128 -0.0452
 8924TIP3    H250968   0.640   6.099   8.073 -2.0190 -0.1977 -0.5425
 8925TIP3   OH250969   0.095   1.450   7.765  0.7428 -0.7511  0.0000
 8925TIP3    H150970   0.149   1.382   7.807  1.2700 -0.5883 -0.4161
 8925TIP3    H250971   0.045   1.402   7.699  0.2273 -0.9328  0.5025
 8926TIP3   OH250972   2.727   5.164  10.763 -0.4154 -0.2116  0.3496
 8926TIP3    H150973   2.728   5.069  10.753 -1.8224 -0.1628 -0.4360
 8926TIP3    H250974   2.682   5.178  10.847 -1.0552 -0.2222  0.0135
 8927TIP3   OH250975   3.235   0.934   8.406  0.8216 -0.3970  0.2661
 8927TIP3    H150976   3.296   0.924   8.333  1.4233  0.4840  0.6292
 8927TIP3    H250977   3.272   0.879   8.475  1.9701  1.1117  0.9289
 8928TIP3   OH250978   6.624   1.924   8.639  0.0151  0.4015 -0.3909
 8928TIP3    H150979   6.625   1.867   8.715 -0.4326  2.1086  0.9431
 8928TIP3    H250980   6.648   2.010   8.672 -0.3083  1.2302 -2.1578
 8929TIP3   OH250981   1.105   3.249   8.811 -0.1148  0.3789  0.0780
 8929TIP3    H150982   1.162   3.324   8.793 -0.5820  0.3977 -1.5280
 8929TIP3    H250983   1.017   3.287   8.819 -0.4527 -0.0086 -1.3869
 8930TIP3   OH250984   6.551   1.617   8.604 -0.2579 -0.5850 -0.3054
 8930TIP3    H150985   6.627   1.561   8.620 -1.4053 -1.9949  0.4079
 8930TIP3    H250986   6.491   1.562   8.554 -0.7762  0.5630 -0.9969
 8931TIP3   OH250987   6.131   2.387   7.980  0.2387 -0.2898  0.5757
 8931TIP3    H150988   6.081   2.400   8.061  0.6790  0.7660  0.6869
 8931TIP3    H250989   6.093   2.448   7.917  0.8836 -0.0165  0.4382
 8932TIP3   OH250990   6.508   2.571   7.939  0.0931  0.0648 -0.3636
 8932TIP3    H150991   6.448   2.584   7.866 -0.8986  2.8209  0.8235
 8932TIP3    H250992   6.572   2.641   7.930  1.9539 -1.5428 -0.3757
 8933TIP3   OH250993   1.553   1.155   9.214  0.0197  0.0372  0.6853
 8933TIP3    H150994   1.634   1.201   9.194 -0.6988  0.5856 -1.2181
 8933TIP3    H250995   1.501   1.218   9.263  0.0525  0.3441  0.3297
 8934TIP3   OH250996   3.964   2.467  10.571 -0.3894  0.1974 -0.4940
 8934TIP3    H150997   4.008   2.549  10.593  0.8268 -0.2015 -1.3039
 8934TIP3    H250998   3.915   2.487  10.491  0.2560  0.0533 -0.9406
 8935TIP3   OH250999   1.519   4.558   9.080  0.1027 -0.1567  0.1214
 8935TIP3    H151000   1.453   4.492   9.055 -1.3732  0.9782  0.8635
 8935TIP3    H251001   1.578   4.512   9.139 -0.7764 -0.8864  0.4569
 8936TIP3   OH251002   6.425   2.559   9.136 -0.2508 -0.3437 -0.2437
 8936TIP3    H151003   6.489   2.609   9.188  1.0373 -0.8488 -1.2870
 8936TIP3    H251004   6.399   2.618   9.066  0.1751 -0.6426 -0.6524
 8937TIP3   OH251005   1.668   0.170   9.799 -0.2588  0.1512 -0.6532
 8937TIP3    H151006   1.631   0.085   9.776 -0.3906  0.2938 -0.9722
 8937TIP3    H251007   1.592   0.226   9.818 -0.1429 -0.3095  1.4519
 8938TIP3   OH251008   5.904   0.554  10.103  0.3535 -0.2265 -0.1629
 8938TIP3    H151009   5.964   0.497  10.150  0.7020 -0.0575 -0.4016
 8938TIP3    H251010   5.829   0.498  10.083 -0.1883 -0.0779  1.3432
 8939TIP3   OH251011   6.577   3.126   9.038 -0.4547 -0.6548  0.2406
 8939TIP3    H151012   6.538   3.171   9.113 -1.3674 -0.0942 -0.5435
 8939TIP3    H251013   6.512   3.135   8.969  0.0916 -1.7341 -0.4297
 8940TIP3   OH251014   4.308   5.602   8.460 -0.1664  0.0254 -0.0672
 8940TIP3    H151015   4.335   5.679   8.510  0.3345  0.8166 -1.4968
 8940TIP3    H251016   4.325   5.625   8.369  0.2036 -1.8739 -0.5267
 8941TIP3   OH251017   3.778   4.687  11.230  0.0986  0.6353 -0.6239
 8941TIP3    H151018   3.791   4.606  11.279  0.7349  0.3599 -1.2399
 8941TIP3    H251019   3.866   4.721  11.215 -0.1953  2.9151  2.0029
 8942TIP3   OH251020   4.083   6.219  10.262 -0.1618  0.1539 -0.0166
 8942TIP3    H151021   4.059   6.168  10.340 -2.3313 -0.0956 -0.8030
 8942TIP3    H251022   4.036   6.302  10.272  1.0646  0.9031 -0.1732
 8943TIP3   OH251023   0.888   5.019  10.089  0.0608  0.1092  0.1438
 8943TIP3    H151024   0.942   5.089  10.125  1.4877 -0.4582 -0.8087
 8943TIP3    H251025   0.857   5.053  10.005  0.2491 -0.1633 -0.0376
 8944TIP3   OH251026   3.610   2.430   9.060 -0.2360  0.0139 -0.4231
 8944TIP3    H151027   3.617   2.471   8.974 -0.0792  1.2221  0.1480
 8944TIP3    H251028   3.627   2.501   9.122 -1.6396 -0.5417  0.6449
 8945TIP3   OH251029   1.480   1.516   7.849 -0.0336 -0.2429 -0.2710
 8945TIP3    H151030   1.528   1.491   7.928  2.0655  1.5123 -0.8793
 8945TIP3    H251031   1.487   1.440   7.792  0.5769 -0.6406  0.3096
 8946TIP3   OH251032   0.787   2.766   9.795 -0.4374 -0.0875 -0.2770
 8946TIP3    H151033   0.809   2.752   9.703  0.2185  0.9633 -0.2981
 8946TIP3    H251034   0.768   2.679   9.829  0.4317 -0.6248 -1.1284
 8947TIP3   OH251035   1.644   0.855   9.882  0.1442  0.0164  0.3772
 8947TIP3    H151036   1.600   0.771   9.875  0.8012 -0.4945  1.9583
 8947TIP3    H251037   1.736   0.835   9.869  0.3018  0.4968  0.7392
 8948TIP3   OH251038   1.099   1.526  11.677 -0.4965 -0.4224 -0.1957
 8948TIP3    H151039   1.005   1.540  11.665 -0.5794 -0.4637  0.4158
 8948TIP3    H251040   1.108   1.431  11.680 -0.4749 -0.4101  0.0897
 8949TIP3   OH251041   3.725   4.678   8.692  0.3417  0.0703  0.1349
 8949TIP3    H151042   3.663   4.607   8.707  1.6535 -1.6283 -1.8534
 8949TIP3    H251043   3.674   4.747   8.649 -1.0041  0.5047  2.3046
 8950TIP3   OH251044   1.653   6.296  10.938 -0.0396 -0.4127  0.0547
 8950TIP3    H151045   1.688   6.252  10.861  1.8226  1.2118 -0.1035
 8950TIP3    H251046   1.730   6.311  10.994 -1.2003 -0.7163  1.8021
 8951TIP3   OH251047   5.114   3.799   9.925  0.6720 -0.0250  0.0578
 8951TIP3    H151048   5.131   3.888   9.893  3.1279 -0.2687  0.5224
 8951TIP3    H251049   5.145   3.742   9.855  0.2682 -0.5269  0.2835
 8952TIP3   OH251050   3.207   3.283  10.109 -0.3345 -0.4045  0.1614
 8952TIP3    H151051   3.142   3.255  10.044 -1.6632  2.4780  0.0839
 8952TIP3    H251052   3.292   3.263  10.068 -1.1281 -1.5807 -1.0195
 8953TIP3   OH251053   0.726   1.812   7.858  0.4866  0.5701  0.2751
 8953TIP3    H151054   0.643   1.813   7.810  0.0402 -2.6089  0.7915
 8953TIP3    H251055   0.704   1.850   7.943 -0.2922  0.4005  0.1626
 8954TIP3   OH251056   0.472   3.584   8.936 -0.0308 -0.1503  0.1509
 8954TIP3    H151057   0.546   3.531   8.965  1.4923  1.5678 -0.3902
 8954TIP3    H251058   0.489   3.670   8.973 -2.0616  0.1581  0.4305
 8955TIP3   OH251059   3.667   3.825  10.991  0.2038 -0.1111  0.5511
 8955TIP3    H151060   3.605   3.785  10.931  1.0408 -0.1928 -0.2786
 8955TIP3    H251061   3.664   3.770  11.070  1.0474 -1.6051 -0.4138
 8956TIP3   OH251062   4.411   5.705   9.054 -0.1630  0.6472  0.4390
 8956TIP3    H151063   4.402   5.610   9.047  2.1231  0.4163 -0.0356
 8956TIP3    H251064   4.386   5.725   9.145  1.0546 -0.6547  1.0843
 8957TIP3   OH251065   5.664   3.242  10.361  0.1923  0.1324 -0.2372
 8957TIP3    H151066   5.600   3.185  10.403  0.0362 -0.6965 -1.5711
 8957TIP3    H251067   5.627   3.330  10.371 -1.1970 -0.3310 -1.0249
 8958TIP3   OH251068   1.829   3.898   8.344 -0.4207 -0.2312 -0.0762
 8958TIP3    H151069   1.913   3.934   8.372 -0.1960 -0.0049 -1.0212
 8958TIP3    H251070   1.764   3.955   8.385 -0.0755  1.8387 -2.1923
 8959TIP3   OH251071   3.259   4.692   8.069 -0.3718  0.4159 -0.2765
 8959TIP3    H151072   3.297   4.655   7.989 -1.0935  2.1188 -1.4770
 8959TIP3    H251073   3.334   4.724   8.119  0.0855 -0.6339 -0.2671
 8960TIP3   OH251074   2.380   2.680   8.508 -0.3818 -0.1884 -0.3803
 8960TIP3    H151075   2.326   2.759   8.523  0.0214  0.1727 -0.8000
 8960TIP3    H251076   2.365   2.659   8.416 -0.9758 -0.9814 -0.1139
 8961TIP3   OH251077   1.772   4.936  10.361  0.0107 -0.1204  0.2121
 8961TIP3    H151078   1.756   4.892  10.277 -0.6658  0.4371  0.0292
 8961TIP3    H251079   1.859   4.973  10.352  0.3760 -0.9799  0.1728
 8962TIP3   OH251080   2.800   1.874  10.158 -0.2562  0.0040  0.3599
 8962TIP3    H151081   2.872   1.838  10.105  0.3797  0.7857  0.6634
 8962TIP3    H251082   2.751   1.798  10.187  0.5492 -0.5635  0.2787
 8963TIP3   OH251083   1.156   4.085   9.438  0.0150  0.6270 -0.2604
 8963TIP3    H151084   1.112   4.030   9.373 -1.2309  2.8612 -1.4053
 8963TIP3    H251085   1.112   4.065   9.520  1.1959 -1.7712 -0.1208
 8964TIP3   OH251086   3.631   1.123   9.407  0.3759  0.2040  0.4634
 8964TIP3    H151087   3.677   1.137   9.324  1.3766 -0.4991  0.8834
 8964TIP3    H251088   3.682   1.172   9.472 -0.3962  0.7462  0.6850
 8965TIP3   OH251089   2.716   0.261   9.007  0.2771  0.1208 -0.4111
 8965TIP3    H151090   2.690   0.261   9.099 -1.3372 -0.9570 -0.8329
 8965TIP3    H251091   2.800   0.215   9.007  0.3475  0.2150  0.5387
 8966TIP3   OH251092   5.374   2.477   9.889 -0.1875  0.0538  0.0272
 8966TIP3    H151093   5.421   2.559   9.906  0.9211 -0.6118  0.2410
 8966TIP3    H251094   5.419   2.439   9.814 -1.6759  0.3627 -1.0733
 8967TIP3   OH251095   0.691   2.513  10.758 -0.5769  0.2257 -0.1292
 8967TIP3    H151096   0.730   2.556  10.834 -0.8660 -0.6435  0.5286
 8967TIP3    H251097   0.703   2.575  10.686  0.8801  0.5133  0.3341
 8968TIP3   OH251098   0.908   1.260   8.665 -0.1097 -0.1336 -0.6765
 8968TIP3    H151099   0.933   1.169   8.653 -0.1645 -0.3594  0.7955
 8968TIP3    H251100   0.927   1.301   8.581 -1.7763 -1.8569 -1.9928
 8969TIP3   OH251101   1.837   3.179   9.888 -0.3142  0.3473 -0.0475
 8969TIP3    H151102   1.856   3.258   9.938  0.6933 -0.1312  0.3592
 8969TIP3    H251103   1.894   3.112   9.926 -0.7910 -0.4565 -0.7027
 8970TIP3   OH251104   4.861   6.493   8.308  0.5007 -0.2213 -0.1918
 8970TIP3    H151105   4.943   6.521   8.268  0.7941 -1.4763 -0.5065
 8970TIP3    H251106   4.801   6.566   8.293  1.5040  0.6384 -0.1002
 8971TIP3   OH251107   4.036   0.288   8.236  0.0766  0.0223 -0.4860
 8971TIP3    H151108   4.076   0.244   8.161 -0.0133 -0.9664  0.0213
 8971TIP3    H251109   4.102   0.283   8.305  0.0620  0.6955 -0.4193
 8972TIP3   OH251110   6.150   4.714   8.924  0.5616 -0.0474 -0.2063
 8972TIP3    H151111   6.244   4.725   8.943  1.1827 -0.1819 -2.7520
 8972TIP3    H251112   6.139   4.620   8.909  0.3261  0.1266 -1.1933
 8973TIP3   OH251113   6.736   4.560  10.967 -0.2635 -0.0546 -0.3993
 8973TIP3    H151114   6.740   4.500  11.042  1.2092  0.4600 -0.0298
 8973TIP3    H251115   6.786   4.637  10.995 -0.2527  0.4311 -1.6690
 8974TIP3   OH251116   2.852   3.100  11.545 -0.1650  0.9241 -0.1647
 8974TIP3    H151117   2.911   3.051  11.487 -1.9733  0.6198 -1.8739
 8974TIP3    H251118   2.841   3.043  11.621  1.2273  0.7118 -0.0927
 8975TIP3   OH251119   3.977   3.279   8.915  0.0779 -0.3952  0.3434
 8975TIP3    H151120   3.913   3.210   8.894  0.1704  0.4335 -3.3609
 8975TIP3    H251121   4.059   3.231   8.929 -0.2210 -1.1565 -0.4119
 8976TIP3   OH251122   6.050   1.888  10.829 -0.2147 -0.1389  0.6058
 8976TIP3    H151123   6.118   1.912  10.766  0.7018 -1.1392  1.1720
 8976TIP3    H251124   6.097   1.842  10.899 -1.2192  0.8672  1.9909
 8977TIP3   OH251125   2.049   0.951   9.530  0.5835  0.0055 -0.3414
 8977TIP3    H151126   2.134   0.941   9.487  1.1959 -0.0543  0.8404
 8977TIP3    H251127   1.985   0.931   9.462  1.4369  1.8492 -1.7691
 8978TIP3   OH251128   6.752   6.558  10.095  0.3366  0.4703 -0.2325
 8978TIP3    H151129   6.691   6.488  10.118  1.5387 -0.4206  0.3155
 8978TIP3    H251130   6.696   6.635  10.085 -0.8329 -0.1984  0.7722
 8979TIP3   OH251131   2.616   6.669   9.037  0.0468  0.0412  0.2692
 8979TIP3    H151132   2.531   6.627   9.054  0.2955 -0.8491 -0.6016
 8979TIP3    H251133   2.596   6.743   8.981 -0.1861 -0.0293  0.2573
 8980TIP3   OH251134   2.981   5.384   8.609  0.4428 -0.5829  0.1683
 8980TIP3    H151135   3.002   5.402   8.701  1.4021 -0.9178  0.0229
 8980TIP3    H251136   3.024   5.456   8.561 -0.1071 -0.3751 -0.0135
 8981TIP3   OH251137   4.162   2.264  10.156  0.2100  0.2973 -0.3958
 8981TIP3    H151138   4.223   2.263  10.083  0.0991 -0.4526 -0.4856
 8981TIP3    H251139   4.078   2.288  10.117  0.1499 -0.1089 -0.5174
 8982TIP3   OH251140   6.368   1.309   8.211  0.0672  0.0118 -0.7219
 8982TIP3    H151141   6.296   1.324   8.149  0.7450 -0.0308 -1.5375
 8982TIP3    H251142   6.407   1.226   8.183 -0.2428 -0.5255  0.3918
 8983TIP3   OH251143   3.824   1.519   8.072  0.1708  0.1920 -0.7882
 8983TIP3    H151144   3.730   1.518   8.054 -0.2387 -2.2495  0.9261
 8983TIP3    H251145   3.843   1.430   8.102  2.6613  1.1401  0.7244
 8984TIP3   OH251146   4.612   4.851  10.338  0.2784  0.4620  0.0105
 8984TIP3    H151147   4.691   4.806  10.306  0.3864  0.2207  0.6188
 8984TIP3    H251148   4.646   4.919  10.396  0.0966  1.1032 -0.6245
 8985TIP3   OH251149   6.251   4.136   8.659 -0.5276  0.5895 -0.1322
 8985TIP3    H151150   6.300   4.096   8.587  0.8696  1.2550  0.4020
 8985TIP3    H251151   6.179   4.076   8.676 -0.6483  0.2152 -1.8041
 8986TIP3   OH251152   0.704   4.944   9.751  0.2696  0.2642  0.4229
 8986TIP3    H151153   0.678   4.874   9.811 -0.2228 -0.2653 -0.3937
 8986TIP3    H251154   0.711   5.022   9.807  1.6195 -0.5729  1.5040
 8987TIP3   OH251155   6.627   3.498  11.147 -0.3175 -0.7236 -0.1206
 8987TIP3    H151156   6.680   3.465  11.219  1.2707  0.1270 -0.8508
 8987TIP3    H251157   6.591   3.419  11.106  1.0296 -1.3902 -0.0770
 8988TIP3   OH251158   4.263   1.673   8.498 -0.3542 -0.8349  0.5481
 8988TIP3    H151159   4.329   1.742   8.500  1.0597 -1.9357 -2.1360
 8988TIP3    H251160   4.213   1.690   8.418 -0.2436 -2.6361  0.0516
 8989TIP3   OH251161   5.793   2.779   8.695 -0.0985 -0.4126 -0.1118
 8989TIP3    H151162   5.745   2.855   8.725  1.6569  1.0066 -0.7325
 8989TIP3    H251163   5.823   2.735   8.775  1.5280  1.3496  0.3135
 8990TIP3   OH251164   5.558   5.494  10.157  0.7351 -0.1725  0.0976
 8990TIP3    H151165   5.544   5.419  10.214  1.2565  0.3166  0.9051
 8990TIP3    H251166   5.597   5.560  10.215 -0.8059  1.1472 -0.3041
 8991TIP3   OH251167   5.089   6.249   9.254 -0.8015  0.4438  0.7858
 8991TIP3    H151168   5.152   6.200   9.308  0.2072  1.5135  0.6148
 8991TIP3    H251169   5.112   6.226   9.164 -1.2796  0.1060  0.7467
 8992TIP3   OH251170   3.091   0.962  10.399 -0.5354 -0.2979 -0.6332
 8992TIP3    H151171   3.122   1.051  10.382 -1.5172 -0.0725 -1.3491
 8992TIP3    H251172   3.138   0.935  10.478  1.3256  0.0774 -1.5434
 8993TIP3   OH251173   0.335   5.750  10.059 -0.0559  0.2952  0.2817
 8993TIP3    H151174   0.333   5.838  10.097  1.3828  0.7458 -0.6207
 8993TIP3    H251175   0.243   5.729  10.044 -0.3702  2.5679 -1.5231
 8994TIP3   OH251176   3.502   0.170   9.826  0.0843 -0.0773 -0.4395
 8994TIP3    H151177   3.554   0.091   9.834  0.0212 -0.0521  0.2549
 8994TIP3    H251178   3.468   0.186   9.914 -0.8362  0.0809 -0.8102
 8995TIP3   OH251179   1.664   4.284   9.716 -0.5159 -0.3028  0.6921
 8995TIP3    H151180   1.707   4.206   9.682 -0.9118  1.0927 -3.6505
 8995TIP3    H251181   1.731   4.352   9.714 -0.4472 -0.1824  3.4262
 8996TIP3   OH251182   0.753   6.073  10.398  0.4073 -0.4002 -0.2652
 8996TIP3    H151183   0.745   6.117  10.483  1.2606 -0.7154 -0.0095
 8996TIP3    H251184   0.748   6.145  10.335  0.6484 -0.0568  0.0949
 8997TIP3   OH251185   1.193   4.353   9.740  0.0476 -0.0720 -0.0479
 8997TIP3    H151186   1.148   4.310   9.812 -2.0615 -1.2681 -1.9269
 8997TIP3    H251187   1.278   4.309   9.735 -0.4189 -1.0982  0.7062
 8998TIP3   OH251188   3.776   3.418  10.325  0.6738 -0.9622 -0.0080
 8998TIP3    H151189   3.818   3.470  10.256  0.2729 -3.0946 -1.9758
 8998TIP3    H251190   3.797   3.464  10.406  1.1063  1.7171 -1.5276
 8999TIP3   OH251191   0.332   2.591   8.965 -0.3124 -0.1923  0.0920
 8999TIP3    H151192   0.351   2.543   9.046  0.5268  1.6763  1.0838
 8999TIP3    H251193   0.418   2.604   8.924 -0.3724  1.3071  0.3900
 9000TIP3   OH251194   0.103   2.216  11.320 -0.4409  0.3633 -0.6273
 9000TIP3    H151195   0.094   2.124  11.346 -0.7112  0.8361  1.0832
 9000TIP3    H251196   0.174   2.216  11.256  2.0525 -0.6542  1.9210
 9001TIP3   OH251197   1.934   0.297   9.288 -0.7034  0.0563 -0.0282
 9001TIP3    H151198   2.026   0.271   9.280 -1.1386 -1.4081 -0.6033
 9001TIP3    H251199   1.901   0.245   9.361 -0.7070  1.7632  1.2376
 9002TIP3   OH251200   6.115   3.322  10.028  0.0922 -0.0810 -0.7639
 9002TIP3    H151201   6.093   3.310   9.936  1.5460 -0.5398 -1.0876
 9002TIP3    H251202   6.111   3.234  10.066  1.9597 -0.3092 -1.0098
 9003TIP3   OH251203   4.385   0.761   9.942  0.0037  0.0288 -0.2872
 9003TIP3    H151204   4.308   0.755   9.885 -0.9611 -0.4595  1.0200
 9003TIP3    H251205   4.357   0.817  10.014  0.4370 -1.1801  0.8618
 9004TIP3   OH251206   3.995   4.274   9.680 -0.0379 -0.6059  0.1917
 9004TIP3    H151207   3.999   4.350   9.622  1.1926 -0.3578  0.5720
 9004TIP3    H251208   3.967   4.310   9.764  0.8520 -0.5096  0.4542
 9005TIP3   OH251209   0.985   4.071  10.262 -0.6506 -0.3096 -0.5633
 9005TIP3    H151210   1.075   4.087  10.233 -0.2348 -0.9351  0.3500
 9005TIP3    H251211   0.932   4.130  10.208  0.2711 -0.1654 -1.3323
 9006TIP3   OH251212   2.920   0.175   9.521  0.4631 -0.1776  0.1679
 9006TIP3    H151213   3.007   0.198   9.489  0.2513 -1.7743 -1.8272
 9006TIP3    H251214   2.870   0.257   9.516  1.4832  0.4541 -0.0109
 9007TIP3   OH251215   1.396   1.746   9.258  0.2752  0.3921 -0.3021
 9007TIP3    H151216   1.458   1.816   9.280 -1.3057  2.0086 -0.7493
 9007TIP3    H251217   1.448   1.683   9.209  2.1064  0.4597  1.4002
 9008TIP3   OH251218   4.274   5.105  10.362 -0.4726  0.6010  0.9657
 9008TIP3    H151219   4.263   5.020  10.405 -1.1077  1.3050  2.2808
 9008TIP3    H251220   4.346   5.147  10.410  0.7470  0.3145 -0.5347
 9009TIP3   OH251221   5.296   6.162   9.936  0.1502 -0.8730 -0.5383
 9009TIP3    H151222   5.377   6.195   9.898 -0.4406  0.5231 -0.6236
 9009TIP3    H251223   5.294   6.069   9.910  1.8951 -1.0466 -0.1785
 9010TIP3   OH251224   1.983   1.796  10.357 -0.1527  0.3502 -0.6322
 9010TIP3    H151225   2.072   1.829  10.370  0.0767 -1.0373  1.8685
 9010TIP3    H251226   1.952   1.773  10.445 -1.7171 -2.3284 -1.7495
 9011TIP3   OH251227   2.267   6.345   8.067  0.3537  0.6587 -0.2950
 9011TIP3    H151228   2.237   6.365   8.155 -0.2495 -0.8078 -0.1497
 9011TIP3    H251229   2.191   6.361   8.011  0.3340  0.2701 -0.3786
 9012TIP3   OH251230   1.577   4.041  10.111 -0.3901 -0.3980 -0.4923
 9012TIP3    H151231   1.580   4.119  10.056  1.3406 -1.2265 -1.6639
 9012TIP3    H251232   1.514   3.984  10.068  0.2302 -0.6474 -1.0879
 9013TIP3   OH251233   3.622   3.884   9.899  0.2486 -0.5570  0.3499
 9013TIP3    H151234   3.573   3.920   9.972  0.2580 -0.9724  0.5676
 9013TIP3    H251235   3.606   3.944   9.826  0.3820 -0.0444  0.7390
 9014TIP3   OH251236   6.652   4.713  10.462 -0.1366  0.2338 -0.3203
 9014TIP3    H151237   6.587   4.714  10.533  0.0938  1.1787 -0.1117
 9014TIP3    H251238   6.734   4.692  10.505  0.3991  2.8369  0.0848
 9015TIP3   OH251239   1.148   2.836   7.934  0.0567 -0.0272 -0.0579
 9015TIP3    H151240   1.106   2.913   7.973 -1.4962 -0.1390 -1.4364
 9015TIP3    H251241   1.154   2.773   8.006 -1.8417  0.1275  0.2870
 9016TIP3   OH251242   1.299   3.728   8.345  0.4601  0.2497 -0.1813
 9016TIP3    H151243   1.380   3.681   8.365  0.0004  0.0695  1.3936
 9016TIP3    H251244   1.307   3.810   8.394 -1.2841 -0.7747  1.9751
 9017TIP3   OH251245   0.304   4.226  10.775 -0.5076  0.0095 -0.0302
 9017TIP3    H151246   0.267   4.231  10.687 -0.4612 -2.0321 -0.2192
 9017TIP3    H251247   0.396   4.206  10.761 -0.6908 -1.2661  0.4600
 9018TIP3   OH251248   4.449   4.876   9.433  0.1518 -0.0606  0.1852
 9018TIP3    H151249   4.513   4.931   9.387  0.1365 -0.6481 -0.5543
 9018TIP3    H251250   4.416   4.817   9.366  0.7015 -1.4704  1.1047
 9019TIP3   OH251251   2.180   6.553   9.238  0.5175  0.1987 -0.4705
 9019TIP3    H151252   2.233   6.570   9.160  0.5812  3.7388  0.1869
 9019TIP3    H251253   2.243   6.550   9.310  0.2299 -0.5355 -0.2383
 9020TIP3   OH251254   0.872   0.402   8.929 -0.1330 -0.3723 -0.0289
 9020TIP3    H151255   0.961   0.391   8.896  0.3997 -1.0796  1.5482
 9020TIP3    H251256   0.827   0.320   8.908  0.6012 -1.3843  2.0414
 9021TIP3   OH251257   2.113   0.072  11.008 -0.6018  0.3940 -0.4636
 9021TIP3    H151258   2.142   0.052  11.097 -0.1223 -0.8251 -0.8706
 9021TIP3    H251259   2.017   0.072  11.013 -0.7256 -2.9962 -0.5529
 9022TIP3   OH251260   0.953   1.670   7.792  0.1386 -0.2520  0.1806
 9022TIP3    H151261   0.879   1.722   7.824 -0.2375 -0.1099 -0.8474
 9022TIP3    H251262   0.916   1.584   7.772  0.0698  0.0303 -1.0017
 9023TIP3   OH251263   6.132   5.526   8.755 -0.3002 -0.8854  0.1877
 9023TIP3    H151264   6.054   5.579   8.772 -0.7518 -1.3578 -0.3546
 9023TIP3    H251265   6.174   5.570   8.681  0.3764 -0.1923  0.9639
 9024TIP3   OH251266   4.557   5.431  10.536 -0.1257 -0.5124 -0.1217
 9024TIP3    H151267   4.509   5.512  10.517 -0.3710 -0.3131  1.2251
 9024TIP3    H251268   4.561   5.385  10.452  2.2518  2.0249 -1.5942
 9025TIP3   OH251269   2.001   5.369   8.387  0.0378 -0.1087  0.8760
 9025TIP3    H151270   1.977   5.416   8.467 -1.4276  1.1680 -0.2494
 9025TIP3    H251271   1.920   5.366   8.336  0.4503 -2.6289  0.2508
 9026TIP3   OH251272   5.029   6.039  10.586 -0.0494 -0.0296  0.2012
 9026TIP3    H151273   5.020   6.015  10.678 -1.5419 -2.4145 -0.4799
 9026TIP3    H251274   4.953   6.093  10.567  1.5257  2.5727  0.8878
 9027TIP3   OH251275   0.190   4.583   9.047  0.2057  0.7235 -0.0604
 9027TIP3    H151276   0.146   4.662   9.015  0.3101  0.5037 -0.7630
 9027TIP3    H251277   0.240   4.612   9.123 -0.9058  1.0463  0.5741
 9028TIP3   OH251278   4.356   1.385   7.968 -0.4578  0.3731 -0.0685
 9028TIP3    H151279   4.441   1.419   7.998 -0.2945 -0.3207  0.2572
 9028TIP3    H251280   4.335   1.440   7.892  1.7042 -1.3047 -2.0141
 9029TIP3   OH251281   0.457   3.513   8.677 -0.2033 -0.0170  0.5745
 9029TIP3    H151282   0.472   3.547   8.765 -0.5204  0.0897  0.5867
 9029TIP3    H251283   0.368   3.479   8.679 -0.3780  0.4120  0.1555
 9030TIP3   OH251284   5.272   3.152  10.132  0.5457  0.0364 -0.2404
 9030TIP3    H151285   5.223   3.199  10.065  1.6768  0.9014 -0.4883
 9030TIP3    H251286   5.237   3.185  10.215 -0.4198 -0.5764 -0.3862
 9031TIP3   OH251287   1.495   2.018   8.734  0.7843 -0.3466 -0.1239
 9031TIP3    H151288   1.535   2.042   8.651 -2.8435 -0.4767 -2.1163
 9031TIP3    H251289   1.483   2.101   8.780  0.4939  0.0503 -0.9015
 9032TIP3   OH251290   4.814   2.880  11.675 -0.0365 -0.1644 -0.1112
 9032TIP3    H151291   4.790   2.963  11.633 -0.8450 -1.6177 -2.7513
 9032TIP3    H251292   4.730   2.839  11.697  0.3583 -0.2011  1.4904
 9033TIP3   OH251293   2.046   6.527   8.587  0.1769 -0.3066 -0.0861
 9033TIP3    H151294   2.027   6.523   8.493  0.0191  1.5147 -0.1708
 9033TIP3    H251295   2.122   6.584   8.593  1.6743 -2.2856  0.7570
 9034TIP3   OH251296   1.949   3.300   9.133  0.2925  0.1659  0.4138
 9034TIP3    H151297   1.991   3.219   9.161 -0.1955 -0.0696  0.4759
 9034TIP3    H251298   1.862   3.297   9.173  0.6502  1.2390  1.3161
 9035TIP3   OH251299   5.907   6.528   9.536  0.4128 -0.8108 -0.0014
 9035TIP3    H151300   5.921   6.622   9.523 -0.6644 -0.5705  0.5185
 9035TIP3    H251301   5.855   6.522   9.616  0.2660 -1.8397 -0.1627
 9036TIP3   OH251302   3.706   2.192  10.935 -0.1857 -0.1280  0.0637
 9036TIP3    H151303   3.733   2.102  10.916 -1.6561 -0.4976 -0.4298
 9036TIP3    H251304   3.724   2.204  11.028 -0.1538 -0.9949  0.1731
 9037TIP3   OH251305   0.895   5.606  10.863 -0.1034 -0.0180 -0.1096
 9037TIP3    H151306   0.828   5.554  10.907  0.1654 -2.1983 -2.1210
 9037TIP3    H251307   0.954   5.632  10.934 -0.0195 -2.8536  0.9967
 9038TIP3   OH251308   2.820   6.503   9.127  0.3129 -0.3060  0.2062
 9038TIP3    H151309   2.740   6.542   9.092 -0.3586 -1.1718  0.7504
 9038TIP3    H251310   2.882   6.507   9.054 -0.9385 -1.7176 -0.9944
 9039TIP3   OH251311   0.754   2.243  10.426 -0.3558  0.0972 -0.8986
 9039TIP3    H151312   0.809   2.310  10.386 -0.8619  1.0286 -0.0888
 9039TIP3    H251313   0.816   2.182  10.465  0.1225  0.7894 -0.5489
 9040TIP3   OH251314   1.241   5.367   7.784  0.4622 -0.1686 -0.6846
 9040TIP3    H151315   1.290   5.324   7.855 -0.1021  0.0222 -0.1741
 9040TIP3    H251316   1.300   5.361   7.708  0.6712 -1.2753 -0.4671
 9041TIP3   OH251317   2.476   2.279   9.048 -0.2123 -0.0597  0.0550
 9041TIP3    H151318   2.432   2.296   8.965 -2.4537 -0.7479  1.0128
 9041TIP3    H251319   2.506   2.188   9.041 -2.2216 -0.8264  0.6775
 9042TIP3   OH251320   6.425   2.398   9.990  0.2536  0.0114  0.4770
 9042TIP3    H151321   6.448   2.309   9.962  1.1431 -0.0491  1.3403
 9042TIP3    H251322   6.401   2.388  10.082  1.3615  0.8039  0.8751
 9043TIP3   OH251323   1.140   6.687  10.068 -0.4386  0.5241  0.1235
 9043TIP3    H151324   1.091   6.751  10.120 -0.3538  0.8405 -0.1791
 9043TIP3    H251325   1.192   6.639  10.132 -1.2207  0.1133  0.4610
 9044TIP3   OH251326   1.892   5.998  10.560  0.2190 -0.0439 -0.4125
 9044TIP3    H151327   1.946   5.926  10.592 -1.0438 -1.0528 -0.4445
 9044TIP3    H251328   1.802   5.971  10.579 -0.3207  1.2699 -0.9539
 9045TIP3   OH251329   0.702   1.308  11.240 -0.1703 -0.1760 -0.4241
 9045TIP3    H151330   0.731   1.217  11.242  1.2255  0.2250  1.3776
 9045TIP3    H251331   0.622   1.309  11.293 -0.7271 -0.5009 -1.2539
 9046TIP3   OH251332   5.331   1.942   9.073  0.2951  0.3128 -0.8435
 9046TIP3    H151333   5.356   1.975   9.159 -0.6551  0.5607 -0.6577
 9046TIP3    H251334   5.316   1.848   9.087  0.6144  0.2581 -0.8515
 9047TIP3   OH251335   1.858   2.142  10.409  0.0164  0.1577  0.2222
 9047TIP3    H151336   1.923   2.125  10.477  1.7360 -0.7430 -1.5728
 9047TIP3    H251337   1.902   2.199  10.347 -1.4238  0.7071 -0.3397
 9048TIP3   OH251338   1.710   6.222   8.282  0.3404  0.3726  0.2789
 9048TIP3    H151339   1.615   6.232   8.282  0.2441 -0.3674 -0.7424
 9048TIP3    H251340   1.732   6.203   8.373 -0.3854  1.3563  0.6776
 9049TIP3   OH251341   0.308   4.230   9.866  0.3925  0.0294 -0.0728
 9049TIP3    H151342   0.223   4.203   9.833  1.1230 -1.8486 -0.5647
 9049TIP3    H251343   0.356   4.148   9.879  2.0328  1.0190  0.4493
 9050TIP3   OH251344   6.457   1.428   9.414  0.2469 -0.2416 -0.3252
 9050TIP3    H151345   6.540   1.467   9.443  0.8022 -1.6992  0.1645
 9050TIP3    H251346   6.389   1.479   9.457  0.9936 -0.9130  1.7533
 9051TIP3   OH251347   5.358   0.497   8.450  0.2514  0.5651 -0.2603
 9051TIP3    H151348   5.359   0.446   8.369  0.4446 -0.1216  0.1634
 9051TIP3    H251349   5.449   0.524   8.463  0.0356  1.6107 -0.8389
 9052TIP3   OH251350   6.650   2.653   9.365 -0.1337 -0.5958  0.1330
 9052TIP3    H151351   6.675   2.643   9.457 -0.8861 -0.9997  0.3074
 9052TIP3    H251352   6.637   2.747   9.354  1.7847 -0.3160 -0.0775
 9053TIP3   OH251353   1.050   1.725   9.756 -0.5056 -0.1649 -0.6427
 9053TIP3    H151354   0.995   1.653   9.790  0.4951  0.1017  1.7550
 9053TIP3    H251355   1.138   1.688   9.754  0.1947  1.1715  1.5579
 9054TIP3   OH251356   2.704   4.228  10.014 -0.9692 -0.0334 -0.2736
 9054TIP3    H151357   2.780   4.234  10.072  1.0117 -2.3355 -2.4262
 9054TIP3    H251358   2.629   4.225  10.074  0.7937 -0.3331  2.0831
 9055TIP3   OH251359   0.052   2.514   9.181 -0.2637 -0.0594 -0.1647
 9055TIP3    H151360  -0.017   2.545   9.239 -0.2708 -1.8305  0.8471
 9055TIP3    H251361   0.031   2.552   9.096 -3.2842 -1.5725 -0.2171
 9056TIP3   OH251362   6.377   3.855  10.298  0.0443 -0.5977  0.5271
 9056TIP3    H151363   6.380   3.903  10.380  0.9376  0.2776 -0.0051
 9056TIP3    H251364   6.453   3.886  10.248 -1.2546 -0.0358 -1.2237
 9057TIP3   OH251365   2.915   0.561  10.187 -0.1033 -0.2234  0.3294
 9057TIP3    H151366   2.976   0.487  10.182 -1.4182 -1.5212  2.0204
 9057TIP3    H251367   2.967   0.633  10.224  1.2256 -0.2199 -1.4364
 9058TIP3   OH251368   4.362   3.013   8.442  0.2961 -0.7405  0.0016
 9058TIP3    H151369   4.442   2.961   8.452  1.0853  0.2720 -0.7272
 9058TIP3    H251370   4.388   3.086   8.386 -1.3795 -0.8340 -0.9502
 9059TIP3   OH251371   0.148   5.032   9.808  0.4046 -0.1056 -0.0806
 9059TIP3    H151372   0.124   5.107   9.753 -0.2838  0.3132  0.7655
 9059TIP3    H251373   0.111   5.052   9.894  0.8884 -1.0579  0.3693
 9060TIP3   OH251374   0.391   3.318  10.010 -0.6083 -0.1572 -0.2546
 9060TIP3    H151375   0.443   3.281  10.081 -0.6260  0.0790 -0.1166
 9060TIP3    H251376   0.455   3.343   9.943 -0.6189 -0.6887 -0.4673
 9061TIP3   OH251377   2.944   4.988   8.445 -0.4016  0.4489 -0.3629
 9061TIP3    H151378   2.930   5.048   8.518 -0.3420  1.8284 -1.4463
 9061TIP3    H251379   3.032   4.954   8.459 -0.8124 -0.1927  0.8049
 9062TIP3   OH251380   0.955   5.202  10.345  0.0163  0.0508 -0.2133
 9062TIP3    H151381   1.014   5.127  10.353 -1.0614 -0.7414  0.7904
 9062TIP3    H251382   0.886   5.184  10.409 -0.3304  1.8625 -0.0430
 9063TIP3   OH251383   6.499   4.136  10.690 -0.2477 -0.6943  0.1406
 9063TIP3    H151384   6.421   4.173  10.731  0.0903 -0.6323  0.7270
 9063TIP3    H251385   6.557   4.114  10.763  1.5011  1.8877 -0.3245
 9064TIP3   OH251386   3.233   3.835   9.845  1.0968  0.0258 -0.5052
 9064TIP3    H151387   3.215   3.902   9.911  0.5985  1.1676 -1.7527
 9064TIP3    H251388   3.278   3.881   9.774  2.6777 -1.4034 -0.5007
 9065TIP3   OH251389   0.973   0.349  10.050  0.2156 -0.1592  0.6817
 9065TIP3    H151390   0.904   0.375   9.989 -0.1161 -0.9348  0.7200
 9065TIP3    H251391   0.955   0.257  10.069  0.4575 -0.0017  1.7490
 9066TIP3   OH251392   6.185   0.778  10.836 -0.7968 -0.0341 -0.0484
 9066TIP3    H151393   6.133   0.834  10.895 -0.4578 -0.0927  0.3125
 9066TIP3    H251394   6.276   0.805  10.851 -0.6290 -0.6874  0.1396
 9067TIP3   OH251395   3.538   1.889   7.978 -0.3456 -0.6437 -0.1273
 9067TIP3    H151396   3.473   1.827   8.012 -1.7546  1.4285  1.1713
 9067TIP3    H251397   3.607   1.889   8.044 -1.6960  1.1889  1.3874
 9068TIP3   OH251398   5.127   1.221   8.865  0.0724 -0.1859  0.1853
 9068TIP3    H151399   5.145   1.179   8.950 -0.7661  1.8129  1.4388
 9068TIP3    H251400   5.190   1.293   8.861  0.2053 -0.3572 -0.9961
 9069TIP3   OH251401   0.683   5.194   8.707  0.0480  0.1815 -0.1720
 9069TIP3    H151402   0.772   5.228   8.715  0.3154 -0.2355 -1.1457
 9069TIP3    H251403   0.643   5.208   8.793  1.4092 -0.6276  0.6298
 9070TIP3   OH251404   6.553   4.314   8.578  0.4954 -0.2310 -0.1155
 9070TIP3    H151405   6.502   4.377   8.630  0.8231 -0.2645  0.2578
 9070TIP3    H251406   6.501   4.300   8.499  0.2883  0.3096 -0.0851
 9071TIP3   OH251407   2.332   4.497   9.845 -0.1231  0.4321 -0.3956
 9071TIP3    H151408   2.419   4.513   9.883  0.0626  0.9650 -1.0323
 9071TIP3    H251409   2.342   4.518   9.752 -1.1061  1.1486 -0.3532
 9072TIP3   OH251410   3.711   3.065  10.602 -0.1393  0.0925 -0.2395
 9072TIP3    H151411   3.732   3.057  10.695 -0.4032  0.3328 -0.1607
 9072TIP3    H251412   3.650   3.138  10.597  0.0776  0.2522 -0.6340
 9073TIP3   OH251413   0.959   1.002   9.115 -0.1482  0.3832  0.4114
 9073TIP3    H151414   1.013   0.945   9.061  2.1699  2.0052  0.8619
 9073TIP3    H251415   0.875   1.007   9.069  0.6394 -0.8665 -1.2534
 9074TIP3   OH251416   2.240   1.980   7.836  0.1446  0.1374 -0.0533
 9074TIP3    H151417   2.333   1.960   7.841 -0.0693 -1.0139 -0.2517
 9074TIP3    H251418   2.197   1.902   7.873 -0.7702  0.0746 -1.1917
 9075TIP3   OH251419   4.992   0.592  11.091  0.2546 -0.1943  0.0578
 9075TIP3    H151420   5.020   0.666  11.038 -4.2990  1.5326 -0.4359
 9075TIP3    H251421   4.987   0.628  11.180 -0.7329 -0.2284  0.0305
 9076TIP3   OH251422   2.289   1.426   8.276  0.2674 -0.5314  0.1721
 9076TIP3    H151423   2.195   1.417   8.285 -0.0678  2.2705  0.4964
 9076TIP3    H251424   2.303   1.447   8.183  0.2627  1.1720  0.5128
 9077TIP3   OH251425   2.107   4.694   8.346 -0.0197  0.4905  0.8641
 9077TIP3    H151426   2.089   4.649   8.263  2.6766 -0.1024  0.5119
 9077TIP3    H251427   2.130   4.783   8.321  0.6362  0.3562  0.9679
 9078TIP3   OH251428   1.526   5.184   9.038 -0.2445  0.0273  0.7932
 9078TIP3    H151429   1.449   5.130   9.020 -0.2833 -0.0998  1.3043
 9078TIP3    H251430   1.579   5.180   8.959 -0.0504 -1.0958  0.9660
 9079TIP3   OH251431   6.667   5.433   8.306  0.4604  0.5499  0.3142
 9079TIP3    H151432   6.702   5.359   8.256 -1.4880 -0.9443  1.0447
 9079TIP3    H251433   6.740   5.463   8.359  1.2104 -1.0864  0.2603
 9080TIP3   OH251434   5.339   5.214   8.826  0.4510  0.0066 -0.4146
 9080TIP3    H151435   5.409   5.193   8.889 -0.2288 -1.5824 -0.1388
 9080TIP3    H251436   5.281   5.138   8.829 -0.0357  0.2479 -2.3887
 9081TIP3   OH251437   3.664   3.810  10.630  0.1187 -0.5308 -0.1421
 9081TIP3    H151438   3.631   3.824  10.541  0.2364  0.0135 -0.1052
 9081TIP3    H251439   3.693   3.897  10.658  0.4012 -0.7649  0.2989
 9082TIP3   OH251440   3.330   6.326   9.985 -0.1317 -0.4051  0.0516
 9082TIP3    H151441   3.405   6.267   9.978  0.8307  0.6477  1.0135
 9082TIP3    H251442   3.364   6.411   9.959 -1.7170 -0.3625 -2.2129
 9083TIP3   OH251443   0.028   3.719   9.693 -0.5316 -0.2245 -0.1556
 9083TIP3    H151444   0.087   3.644   9.698 -1.3387 -0.8563  0.0934
 9083TIP3    H251445   0.066   3.774   9.625  1.4868  0.4155  1.3744
 9084TIP3   OH251446   5.845   2.941  10.878  0.2492 -0.6696  0.0690
 9084TIP3    H151447   5.770   3.000  10.874 -1.1523 -2.1983  1.9942
 9084TIP3    H251448   5.882   2.955  10.965  0.5043 -1.9086  0.1775
 9085TIP3   OH251449   4.310   5.769   9.294 -0.4380  0.0931  0.0599
 9085TIP3    H151450   4.332   5.842   9.352 -1.3735  0.2281  0.2654
 9085TIP3    H251451   4.240   5.722   9.340 -0.3256 -0.5307 -0.3912
 9086TIP3   OH251452   3.133   2.710  11.257 -0.1288  0.1371 -0.0991
 9086TIP3    H151453   3.177   2.659  11.188 -2.3597  0.3795 -1.7970
 9086TIP3    H251454   3.050   2.665  11.271 -0.2046  0.7510  1.6795
 9087TIP3   OH251455   1.824   1.501  10.702  0.6297  0.1005 -0.4315
 9087TIP3    H151456   1.911   1.464  10.691  0.2309 -0.8886 -0.3579
 9087TIP3    H251457   1.821   1.531  10.793  1.2164  1.0527 -0.7066
 9088TIP3   OH251458   0.708   1.174   8.293  0.2370  0.0591  0.1318
 9088TIP3    H151459   0.634   1.118   8.314  0.2902 -0.0823 -0.0582
 9088TIP3    H251460   0.765   1.120   8.238  0.0214  0.4758 -0.5122
 9089TIP3   OH251461   6.093   2.623   8.311 -0.5396 -0.0717  0.4775
 9089TIP3    H151462   6.178   2.628   8.267 -0.4206  0.5351  0.7596
 9089TIP3    H251463   6.041   2.563   8.257 -0.0471 -0.1738  0.1097
 9090TIP3   OH251464   1.772   0.498   7.851  0.4912  0.1723 -0.6286
 9090TIP3    H151465   1.741   0.574   7.802 -0.1654  0.9074  0.8743
 9090TIP3    H251466   1.867   0.503   7.843  0.4270  0.6933 -1.2107
 9091TIP3   OH251467   2.972   5.414  10.572 -0.0121  0.1420  0.2121
 9091TIP3    H151468   2.928   5.407  10.657 -1.4510  0.0955 -0.5164
 9091TIP3    H251469   2.968   5.326  10.535  1.5269 -0.0853  0.4967
 9092TIP3   OH251470   6.584   5.789   9.642 -0.1222  0.6576  0.2255
 9092TIP3    H151471   6.543   5.755   9.562 -3.7435  1.4817  1.5349
 9092TIP3    H251472   6.606   5.880   9.621 -0.2395  0.6137 -0.0958
 9093TIP3   OH251473   4.797   5.744  11.284  0.4969  0.0481  0.1703
 9093TIP3    H151474   4.844   5.693  11.349 -0.4335 -1.5105 -0.3173
 9093TIP3    H251475   4.862   5.804  11.248  1.1472  0.5941  2.1328
 9094TIP3   OH251476   3.125   1.390   9.849  0.3264 -0.1960  0.2644
 9094TIP3    H151477   3.145   1.365   9.939  2.0685 -0.0458 -0.0542
 9094TIP3    H251478   3.195   1.351   9.797 -0.6088 -0.2186 -1.0367
 9095TIP3   OH251479   1.966   4.306   9.535 -0.5474  0.3063  0.1054
 9095TIP3    H151480   1.974   4.346   9.449  0.1052  0.5509  0.2734
 9095TIP3    H251481   1.903   4.235   9.523  0.1101 -0.1523 -0.7513
 9096TIP3   OH251482   3.818   6.476   9.949 -0.0572  0.2356  0.3825
 9096TIP3    H151483   3.911   6.462   9.967 -0.0731  0.0253  0.3013
 9096TIP3    H251484   3.816   6.526   9.867 -0.0752 -2.0096 -1.0582
 9097TIP3   OH251485   1.741   3.825   9.602 -0.7184 -0.3460  0.2610
 9097TIP3    H151486   1.819   3.829   9.657  0.7447 -0.5824 -1.6747
 9097TIP3    H251487   1.773   3.795   9.517 -2.5993  1.4592 -1.1950
 9098TIP3   OH251488   4.967   2.077   9.056 -0.5313  0.4914 -0.5483
 9098TIP3    H151489   4.918   2.061   8.975 -1.9800  0.2105  0.3594
 9098TIP3    H251490   4.976   1.990   9.096 -0.9800  0.8066  0.2441
 9099TIP3   OH251491   5.830   2.017   9.122 -0.6454 -0.5499 -0.3422
 9099TIP3    H151492   5.777   2.068   9.060 -0.7747  1.6254  1.4399
 9099TIP3    H251493   5.784   2.025   9.206  1.3477 -0.4141  0.7981
 9100TIP3   OH251494   1.387   5.868   9.165  0.2909 -0.0372  0.7206
 9100TIP3    H151495   1.477   5.900   9.167 -0.2602  1.8893 -1.2561
 9100TIP3    H251496   1.386   5.806   9.091 -0.8458  3.3081 -2.3481
 9101TIP3   OH251497   2.836   2.776   8.952 -0.6307 -0.0668 -0.6206
 9101TIP3    H151498   2.812   2.829   9.028  1.1026 -1.5863  1.0835
 9101TIP3    H251499   2.832   2.837   8.878  0.9723  2.3863  1.1623
 9102TIP3   OH251500   0.950   4.427   8.857 -0.3918 -0.1861 -0.2226
 9102TIP3    H151501   0.979   4.518   8.850 -1.6077  0.3254  1.0018
 9102TIP3    H251502   0.869   4.424   8.806 -2.2860  0.3717  2.5359
 9103TIP3   OH251503   5.218   4.587  10.582  0.0969 -0.5699 -0.1921
 9103TIP3    H151504   5.216   4.626  10.669  1.8292 -2.3035  0.6790
 9103TIP3    H251505   5.284   4.638  10.534  0.8946 -1.1304  0.2973
 9104TIP3   OH251506   1.495   6.480   9.196 -0.4870 -0.8871 -0.2324
 9104TIP3    H151507   1.521   6.417   9.263 -1.7672 -0.2005  0.9685
 9104TIP3    H251508   1.442   6.428   9.135  0.2181 -1.3962 -0.4325
 9105TIP3   OH251509   6.367   4.335  10.859 -0.2632 -0.5037 -0.3691
 9105TIP3    H151510   6.302   4.369  10.797  0.2192 -0.9724 -1.1361
 9105TIP3    H251511   6.450   4.372  10.829 -0.1977  0.3098  0.7667
 9106TIP3   OH251512   0.936   6.043  11.442  0.2555  0.7140  0.1778
 9106TIP3    H151513   0.940   6.125  11.492 -0.0260  0.1598  1.1277
 9106TIP3    H251514   0.879   5.986  11.493 -1.3464  0.6483 -1.5695
 9107TIP3   OH251515   5.822   0.028   8.794  0.4626  0.0867  0.0522
 9107TIP3    H151516   5.779   0.010   8.710 -1.1350  0.6644  0.7061
 9107TIP3    H251517   5.844  -0.058   8.828 -0.5907 -0.2687 -0.1178
 9108TIP3   OH251518   0.602   2.652   9.130  0.0508  0.4089  0.2974
 9108TIP3    H151519   0.642   2.608   9.054 -0.6159  2.1518 -1.1379
 9108TIP3    H251520   0.636   2.605   9.206  0.2416 -1.8388 -1.0923
 9109TIP3   OH251521   1.090   5.148   9.371  0.2502  0.3938  0.4834
 9109TIP3    H151522   1.088   5.057   9.403 -0.4566 -0.0378 -0.7286
 9109TIP3    H251523   1.015   5.154   9.312  1.2998  1.2512 -0.8067
 9110TIP3   OH251524   1.307   5.438   8.877 -0.4070 -0.3245 -0.0569
 9110TIP3    H151525   1.342   5.376   8.812  0.3628  0.1978 -0.1590
 9110TIP3    H251526   1.272   5.382   8.946 -2.3941 -0.9225 -1.4745
 9111TIP3   OH251527   3.432   0.989   9.517 -0.1480  0.1261 -0.8660
 9111TIP3    H151528   3.370   0.952   9.454 -0.5690 -0.7118  0.0317
 9111TIP3    H251529   3.500   1.029   9.462 -0.8528 -0.0003 -1.8547
 9112TIP3   OH251530   3.305   5.661   9.792  0.1363 -0.0666  0.2002
 9112TIP3    H151531   3.329   5.588   9.849  2.0136 -0.0941 -0.5562
 9112TIP3    H251532   3.358   5.734   9.823  1.1508 -0.0617 -1.4120
 9113TIP3   OH251533   1.273   6.557  10.282 -0.6243  0.7111  0.0555
 9113TIP3    H151534   1.310   6.591  10.363  0.7019 -1.7065  0.5737
 9113TIP3    H251535   1.266   6.463  10.296 -1.6757  0.3803 -2.1470
 9114TIP3   OH251536   1.450   3.450   9.086 -0.7017  0.3111 -0.9051
 9114TIP3    H151537   1.361   3.422   9.108 -1.7510  0.3725 -4.3876
 9114TIP3    H251538   1.437   3.513   9.015  2.1245  0.6286 -1.2212
 9115TIP3   OH251539   2.895   2.729   8.104 -0.0101 -0.0747 -0.0686
 9115TIP3    H151540   2.983   2.737   8.140  0.0827 -0.2201 -0.2586
 9115TIP3    H251541   2.901   2.770   8.017  0.0859 -0.8316 -0.4260
 9116TIP3   OH251542   2.619   2.135   8.491 -0.2433  0.2120  0.3044
 9116TIP3    H151543   2.538   2.086   8.505 -0.9364  1.7555  2.0708
 9116TIP3    H251544   2.615   2.163   8.399 -1.8363  0.4358  0.4105
 9117TIP3   OH251545   6.658   5.584   8.989 -0.4563  0.0951  0.4871
 9117TIP3    H151546   6.635   5.596   8.897  1.2636 -0.0745 -0.0098
 9117TIP3    H251547   6.664   5.489   9.000 -1.9890  0.0407  1.1693
 9118TIP3   OH251548   4.525   5.081  10.772 -0.3701  0.2014 -0.1941
 9118TIP3    H151549   4.594   5.104  10.834  2.6211  1.0170 -3.5164
 9118TIP3    H251550   4.480   5.164  10.753  0.0752  0.3426 -0.6331
 9119TIP3   OH251551   5.103   1.157   8.601 -0.3820  0.0111  0.2275
 9119TIP3    H151552   5.032   1.096   8.621 -2.0609  1.6936 -0.2914
 9119TIP3    H251553   5.123   1.198   8.684  0.6687 -1.1151  0.5545
 9120TIP3   OH251554   5.906   1.645   8.907 -0.1229 -0.4905  0.1406
 9120TIP3    H151555   5.890   1.632   8.814 -0.9206  0.2459  0.1646
 9120TIP3    H251556   5.929   1.558   8.940  0.8175 -0.6436 -0.8590
 9121TIP3   OH251557   2.128   0.563   9.116 -0.3646  0.0500  0.2326
 9121TIP3    H151558   2.176   0.497   9.166 -0.2379  0.1803  0.2810
 9121TIP3    H251559   2.051   0.582   9.170  0.8064  1.7379  1.4226
 9122TIP3   OH251560   6.145   3.061  10.101  0.5731  0.3485  0.0734
 9122TIP3    H151561   6.093   2.981  10.113  0.5345  0.6016  1.8302
 9122TIP3    H251562   6.202   3.041  10.027  0.8724 -1.4799  0.7459
 9123TIP3   OH251563   5.210   2.254  10.944 -0.7761  0.2662  0.1087
 9123TIP3    H151564   5.219   2.223  11.034 -1.2237 -1.0690 -0.2834
 9123TIP3    H251565   5.135   2.313  10.947  0.1858  1.5079  0.9011
 9124TIP3   OH251566   0.078   1.287  10.384 -0.1238  0.2914 -0.2658
 9124TIP3    H151567   0.071   1.344  10.460  0.8751  1.6252 -1.1496
 9124TIP3    H251568   0.055   1.342  10.309  0.0865 -0.6694 -1.0692
 9125TIP3   OH251569   2.341   5.116  10.616  0.7247  0.0486 -0.0220
 9125TIP3    H151570   2.288   5.193  10.599 -0.6774 -1.0527 -0.9402
 9125TIP3    H251571   2.341   5.107  10.711  0.7553  1.0696  0.0815
 9126TIP3   OH251572   5.120   3.018   9.319 -0.5197 -0.2983  0.0096
 9126TIP3    H151573   5.144   3.027   9.227 -0.0034 -0.7103  0.1026
 9126TIP3    H251574   5.141   2.927   9.341 -2.1048 -0.6637  0.1159
 9127TIP3   OH251575   4.640   5.642  10.125  0.2948 -0.4439  0.1818
 9127TIP3    H151576   4.612   5.551  10.138  1.3628 -1.0616 -1.5665
 9127TIP3    H251577   4.620   5.660  10.033  1.6521  0.5233  0.0574
 9128TIP3   OH251578   1.428   6.345  10.665 -0.4483  0.2082  0.6457
 9128TIP3    H151579   1.372   6.324  10.590 -0.1946  0.3323  0.4215
 9128TIP3    H251580   1.454   6.436  10.651  1.6068 -0.4758 -0.4262
 9129TIP3   OH251581   4.203   1.342   8.990 -0.2581 -0.3057  0.2365
 9129TIP3    H151582   4.187   1.405   9.060 -0.1772 -1.6196  1.4973
 9129TIP3    H251583   4.226   1.395   8.914 -2.4680  1.2804  0.5781
 9130TIP3   OH251584   1.947   3.551   8.213 -0.6033 -0.3458 -0.3042
 9130TIP3    H151585   1.993   3.477   8.252 -1.3994 -1.2661 -1.0560
 9130TIP3    H251586   1.866   3.513   8.178 -1.2778  0.9766 -0.2363
 9131TIP3   OH251587   2.559   4.820  10.043 -0.3994 -0.4114  0.7219
 9131TIP3    H151588   2.495   4.884  10.073 -0.3627 -0.2270  0.4176
 9131TIP3    H251589   2.628   4.872  10.002 -1.3052 -0.7129 -1.3189
 9132TIP3   OH251590   5.373   3.403   8.797  0.3397  0.3718 -0.2478
 9132TIP3    H151591   5.283   3.397   8.829  0.5579  1.2811  0.5854
 9132TIP3    H251592   5.366   3.442   8.711 -0.1691 -1.0187 -0.8642
 9133TIP3   OH251593   2.453   1.523   8.821  0.5062  0.2370 -0.2359
 9133TIP3    H151594   2.543   1.520   8.853  0.7321  0.0836 -0.8640
 9133TIP3    H251595   2.459   1.566   8.736 -0.1579  1.1315  0.1529
 9134TIP3   OH251596   4.809   4.648   8.727  0.0557 -0.4764  0.6564
 9134TIP3    H151597   4.724   4.606   8.713  0.0923 -0.4732  0.4328
 9134TIP3    H251598   4.789   4.742   8.729 -0.1062 -0.5136  1.6801
 9135TIP3   OH251599   3.280   4.641  11.025 -0.0917  0.6647 -0.4269
 9135TIP3    H151600   3.369   4.659  11.056 -1.3941  4.6653  1.7025
 9135TIP3    H251601   3.227   4.639  11.104 -2.1143 -0.1520 -1.7286
 9136TIP3   OH251602   0.860   1.153   7.201 -0.8095  0.1338  0.0775
 9136TIP3    H151603   0.820   1.216   7.262  2.0049  2.8281 -0.5898
 9136TIP3    H251604   0.891   1.207   7.128  0.2352 -2.3331 -1.4278
 9137TIP3   OH251605   5.871   4.024   8.569  0.1953 -0.9890  0.0311
 9137TIP3    H151606   5.783   3.997   8.596  0.1483 -1.6905 -0.7822
 9137TIP3    H251607   5.922   4.025   8.650  0.0506 -3.0167  0.1892
 9138TIP3   OH251608   0.453   4.178  11.161  0.2582  0.1606 -0.1686
 9138TIP3    H151609   0.521   4.189  11.227 -0.4796 -0.5311  0.7358
 9138TIP3    H251610   0.383   4.238  11.187 -0.3000 -0.5709  0.0547
 9139TIP3   OH251611   3.986   6.173   9.731 -0.2075  0.3406 -0.1580
 9139TIP3    H151612   3.951   6.158   9.819 -0.7582  0.3619 -0.3693
 9139TIP3    H251613   4.004   6.086   9.697  0.8364  0.3646  0.3003
 9140TIP3   OH251614   3.962   4.005   9.624 -0.2507 -0.0675  0.1364
 9140TIP3    H151615   3.931   3.973   9.708  1.4132 -1.5342  0.2637
 9140TIP3    H251616   3.983   4.097   9.639 -0.0238 -0.2971  1.3210
 9141TIP3   OH251617   3.960   6.504  10.604 -0.1274  0.3875  0.4296
 9141TIP3    H151618   3.941   6.419  10.643 -0.5553 -0.5295 -1.6173
 9141TIP3    H251619   3.902   6.565  10.649 -1.8031 -0.9009  0.0862
 9142TIP3   OH251620   6.606   6.407  11.601  0.0166  0.2156  0.7403
 9142TIP3    H151621   6.580   6.456  11.524 -0.4497  2.1800  2.0816
 9142TIP3    H251622   6.553   6.327  11.597  0.9585 -0.3693 -1.6019
 9143TIP3   OH251623   1.712   0.099   8.372  0.2065 -0.6657  0.6104
 9143TIP3    H151624   1.627   0.143   8.383 -0.8105 -2.0754 -1.0919
 9143TIP3    H251625   1.772   0.152   8.424 -2.0600 -0.8140  3.6966
 9144TIP3   OH251626   4.064   3.713   9.987  0.5271  0.5307 -0.0944
 9144TIP3    H151627   4.047   3.761  10.068  1.7710  1.1780 -0.2068
 9144TIP3    H251628   3.991   3.736   9.930  0.7991  1.8249  0.0614
 9145TIP3   OH251629   6.724   0.620   7.824  0.6646 -0.0167  0.1549
 9145TIP3    H151630   6.725   0.548   7.762  1.3172  0.0875  0.0353
 9145TIP3    H251631   6.649   0.602   7.881 -0.0827  0.0089 -0.7949
 9146TIP3   OH251632   5.436   4.146  10.445 -0.7099  0.2537 -0.1044
 9146TIP3    H151633   5.370   4.131  10.377  0.1342 -0.8415 -0.7262
 9146TIP3    H251634   5.403   4.220  10.495 -0.4123  2.5186 -2.9646
 9147TIP3   OH251635   1.754   4.163   9.017 -0.1177 -0.1885 -0.0159
 9147TIP3    H151636   1.813   4.093   9.043  0.3491  0.9425  2.2336
 9147TIP3    H251637   1.801   4.244   9.041 -1.7788  0.8001  0.0464
 9148TIP3   OH251638   0.748   4.012  10.524 -0.5427  0.5892 -0.2797
 9148TIP3    H151639   0.715   3.967  10.446 -2.4650 -0.5557  1.1222
 9148TIP3    H251640   0.774   4.098  10.492  1.8395 -0.8929 -2.7641
 9149TIP3   OH251641   5.893   0.771  11.095 -0.2097 -0.0235  0.2018
 9149TIP3    H151642   5.864   0.851  11.052 -1.3803 -0.9010 -0.7231
 9149TIP3    H251643   5.962   0.799  11.156  1.2655  1.3272 -1.9723
 9150TIP3   OH251644   6.686   4.468   9.056  0.2788  0.2212  0.7545
 9150TIP3    H151645   6.615   4.523   9.023 -0.3047 -1.1181 -0.3337
 9150TIP3    H251646   6.765   4.519   9.040 -0.3705  1.4326  1.3301
 9151TIP3   OH251647   4.076   1.242   8.620 -0.0812  0.2404 -0.1965
 9151TIP3    H151648   4.022   1.226   8.697  0.1938 -2.9374 -0.5231
 9151TIP3    H251649   4.128   1.319   8.643 -1.8072  0.9120  1.7399
 9152TIP3   OH251650   5.239   6.143   9.474  0.4859 -0.1423 -0.2866
 9152TIP3    H151651   5.283   6.077   9.527 -2.0157 -0.4882  1.5225
 9152TIP3    H251652   5.226   6.217   9.533 -0.9015  0.1239 -0.8937
 9153TIP3   OH251653   6.088   5.216   9.735  0.4707 -0.1534  0.4321
 9153TIP3    H151654   6.179   5.210   9.704  0.8980 -0.2590  1.6278
 9153TIP3    H251655   6.083   5.303   9.775  0.4787 -0.6752  1.6099
 9154TIP3   OH251656   4.148   1.151   9.667 -0.2593 -0.1676  0.1010
 9154TIP3    H151657   4.237   1.127   9.640  0.2239  2.3570 -0.7750
 9154TIP3    H251658   4.159   1.185   9.755 -0.0449  1.6089 -0.5761
 9155TIP3   OH251659   0.817   5.842   8.950  0.3783 -0.2744  0.5652
 9155TIP3    H151660   0.849   5.887   8.873 -1.6572 -0.8779 -0.7033
 9155TIP3    H251661   0.834   5.749   8.933 -1.1219 -0.5173  0.2801
 9156TIP3   OH251662   5.787   5.462  10.013  0.3731 -0.7533 -0.4276
 9156TIP3    H151663   5.823   5.401  10.078  0.1839  0.4210  0.8209
 9156TIP3    H251664   5.700   5.483  10.047  1.0838  1.5239  0.1160
 9157TIP3   OH251665   6.305   0.362   9.997  0.0565  0.4658 -0.1614
 9157TIP3    H151666   6.354   0.414   9.933  0.3297  0.9275  0.4208
 9157TIP3    H251667   6.230   0.328   9.948  0.9671 -0.2867 -1.0829
 9158TIP3   OH251668   0.261   4.244   8.638 -0.3114  0.1039 -0.8821
 9158TIP3    H151669   0.201   4.180   8.600  0.5836 -1.1178 -0.3108
 9158TIP3    H251670   0.208   4.291   8.702 -1.4125  1.0964 -2.4548
 9159TIP3   OH251671   1.900   4.485   9.738 -0.1956 -0.2980  0.4248
 9159TIP3    H151672   1.925   4.449   9.653  1.2312 -0.6502  0.9550
 9159TIP3    H251673   1.816   4.528   9.723 -0.3691 -1.0818 -0.9581
 9160TIP3   OH251674   0.180   2.902  10.854 -0.4243 -0.3164 -0.1601
 9160TIP3    H151675   0.108   2.926  10.796  0.4998 -0.7115 -1.5395
 9160TIP3    H251676   0.259   2.913  10.800  0.5090 -0.4602  1.1127
 9161TIP3   OH251677   6.114   3.307   9.504  0.2831 -0.2607 -0.4416
 9161TIP3    H151678   6.114   3.232   9.564 -0.9502 -1.7721 -2.2215
 9161TIP3    H251679   6.140   3.270   9.420  0.9705  1.6038 -1.0795
 9162TIP3   OH251680   3.282   3.845   9.528  0.1807 -0.0697  0.0289
 9162TIP3    H151681   3.361   3.896   9.510 -0.7518  0.8085 -1.9557
 9162TIP3    H251682   3.273   3.787   9.452 -1.0625 -0.1469  0.2116
 9163TIP3   OH251683   4.728   2.130   9.266  0.0907  0.3414  0.4431
 9163TIP3    H151684   4.809   2.131   9.215 -0.5397  0.7671 -0.5661
 9163TIP3    H251685   4.718   2.219   9.299 -0.3126  0.4557  0.0129
 9164TIP3   OH251686   1.823   5.634  11.234  0.1393  0.6754 -0.7341
 9164TIP3    H151687   1.850   5.712  11.282  0.0260 -0.4381  1.2296
 9164TIP3    H251688   1.861   5.561  11.283 -2.8015 -0.7192 -0.3188
 9165TIP3   OH251689   3.422   5.686   9.353  0.1888  0.4088  0.2711
 9165TIP3    H151690   3.393   5.598   9.330 -1.7284  0.5791  1.8923
 9165TIP3    H251691   3.479   5.711   9.280 -2.2277 -0.6909 -2.1710
 9166TIP3   OH251692   3.301   5.268   7.998 -0.3160 -0.9010  0.0669
 9166TIP3    H151693   3.295   5.289   7.905  0.0743 -3.1227 -0.5107
 9166TIP3    H251694   3.292   5.173   8.002  1.3592 -1.0448  2.1296
 9167TIP3   OH251695   4.349   5.544   9.539  0.3063  0.2495  0.2211
 9167TIP3    H151696   4.310   5.466   9.499 -1.4705  1.0624  0.2352
 9167TIP3    H251697   4.371   5.517   9.628 -0.3958 -0.2246  0.2631
 9168TIP3   OH251698   1.840   1.035  10.095 -0.2762 -0.5115 -0.1751
 9168TIP3    H151699   1.755   1.031  10.051  0.8492 -2.7212 -2.3816
 9168TIP3    H251700   1.889   1.102  10.048 -0.2455 -0.4200 -0.0115
 9169TIP3   OH251701   0.946   4.261   9.328 -0.0154 -0.8002  0.2298
 9169TIP3    H151702   0.917   4.316   9.255 -0.9627 -0.1055  1.0985
 9169TIP3    H251703   1.037   4.239   9.306 -0.3716 -0.8764 -1.2991
 9170TIP3   OH251704   5.197   3.451  10.018 -0.0118 -0.2841  0.2619
 9170TIP3    H151705   5.181   3.367   9.975  1.3116 -0.7438  0.6394
 9170TIP3    H251706   5.228   3.508   9.947 -0.3212 -0.2832  0.1234
 9171TIP3   OH251707   0.970   2.155   8.949 -0.4690  0.2232 -0.2902
 9171TIP3    H151708   0.979   2.095   9.024 -0.0181 -0.1985 -0.6677
 9171TIP3    H251709   0.884   2.135   8.912  0.3270 -1.4329 -1.4265
 9172TIP3   OH251710   4.880   3.299   9.151  0.4970  0.1060  0.4003
 9172TIP3    H151711   4.969   3.275   9.175  0.5851  0.9981  1.0154
 9172TIP3    H251712   4.882   3.395   9.145 -0.0629  0.0557 -1.0139
 9173TIP3   OH251713   5.906   3.936   9.686 -0.0623  0.1115 -0.0489
 9173TIP3    H151714   5.878   4.028   9.683  1.2136  0.5193 -0.3319
 9173TIP3    H251715   5.887   3.902   9.599 -0.0259  0.2760 -0.1218
 9174TIP3   OH251716   0.314   0.816   8.423  0.1815 -0.2061  0.2639
 9174TIP3    H151717   0.257   0.795   8.497 -0.0393  0.3414  0.2492
 9174TIP3    H251718   0.302   0.910   8.409 -0.8578 -0.5525 -1.3652
 9175TIP3   OH251719   3.861   2.842  11.400 -0.0856 -0.7317 -0.1033
 9175TIP3    H151720   3.919   2.900  11.449 -0.7460  0.4111 -0.6184
 9175TIP3    H251721   3.846   2.888  11.318 -1.1939 -1.3194 -0.2479
 9176TIP3   OH251722   2.707   1.570   9.643 -0.1646 -0.3721  0.3489
 9176TIP3    H151723   2.754   1.599   9.565  1.0879 -0.5500  1.0027
 9176TIP3    H251724   2.661   1.491   9.616  0.1217 -0.3378 -0.2507
 9177TIP3   OH251725   0.004   1.213  11.196  0.4870  0.4822 -0.8540
 9177TIP3    H151726   0.024   1.289  11.249  0.5869  0.0512 -0.2606
 9177TIP3    H251727  -0.074   1.175  11.237  0.4156  0.2876 -1.1639
 9178TIP3   OH251728   5.913   4.606  10.136  0.0820 -0.3246  0.3741
 9178TIP3    H151729   5.964   4.570  10.064  0.8104 -0.7435  1.0834
 9178TIP3    H251730   5.922   4.542  10.207  2.1018  1.5455  1.9650
 9179TIP3   OH251731   2.265   1.646   9.379 -0.0175  0.7719 -0.0724
 9179TIP3    H151732   2.213   1.725   9.394 -1.1345 -0.2027  1.4341
 9179TIP3    H251733   2.327   1.644   9.452 -0.0396  0.2173 -0.0692
 9180TIP3   OH251734   6.257   3.531   8.653 -0.5855  0.2878  0.3829
 9180TIP3    H151735   6.301   3.612   8.678 -2.3046  1.6422 -0.7426
 9180TIP3    H251736   6.320   3.462   8.675  1.7235  2.0259 -0.3378
 9181TIP3   OH251737   0.344   2.247  10.274 -0.5693 -0.3574  0.2045
 9181TIP3    H151738   0.296   2.269  10.354 -0.2414 -1.6905  0.7998
 9181TIP3    H251739   0.279   2.206  10.217 -0.4836 -0.7598  0.3922
 9182TIP3   OH251740   2.124   5.909  11.002 -0.1141  0.0105 -0.7295
 9182TIP3    H151741   2.052   5.847  11.004  1.2452 -1.6392  0.9816
 9182TIP3    H251742   2.132   5.940  11.092  0.8651  0.7312 -1.0416
 9183TIP3   OH251743   3.787   5.911   8.571  0.0180 -0.0187  0.4827
 9183TIP3    H151744   3.841   5.939   8.498 -0.4742 -0.7126 -0.1598
 9183TIP3    H251745   3.704   5.957   8.560 -0.6986 -1.4599 -0.4273
 9184TIP3   OH251746   0.928   0.267  10.689 -0.3841  0.8658 -0.1592
 9184TIP3    H151747   0.948   0.354  10.723 -1.3529  0.7489  0.7458
 9184TIP3    H251748   0.999   0.248  10.627  0.7913  1.5688  0.9364
 9185TIP3   OH251749   5.063   6.628  11.060  0.3585 -0.0027 -0.4197
 9185TIP3    H151750   4.996   6.577  11.106  1.0264 -0.8577 -0.3863
 9185TIP3    H251751   5.144   6.607  11.106  0.9466 -0.4233 -1.6320
 9186TIP3   OH251752   3.690   5.466  11.042 -0.8668  0.0272 -0.6110
 9186TIP3    H151753   3.723   5.376  11.042 -0.2141  0.2589 -0.4275
 9186TIP3    H251754   3.652   5.479  11.129 -1.5411 -0.2715 -0.8557
 9187TIP3   OH251755   1.789   6.120   8.550 -0.2140 -0.0344  0.1535
 9187TIP3    H151756   1.756   6.050   8.607  2.2517 -0.7912  0.7905
 9187TIP3    H251757   1.775   6.200   8.600  1.0040 -0.5900  1.4507
 9188TIP3   OH251758   5.065   0.877   8.150 -0.2493 -0.2878 -0.2828
 9188TIP3    H151759   4.980   0.905   8.183 -0.4338 -1.0048 -0.1291
 9188TIP3    H251760   5.076   0.788   8.185  1.4708  0.5274  1.4215
 9189TIP3   OH251761   4.930   0.511  10.380  0.1839  0.5964  0.2311
 9189TIP3    H151762   4.910   0.492  10.288 -0.2441 -1.8873  0.7851
 9189TIP3    H251763   4.974   0.432  10.412  1.6166  1.9589  1.8149
 9190TIP3   OH251764   1.976   2.967   9.380  1.0393 -0.0517 -0.1397
 9190TIP3    H151765   1.937   3.041   9.426 -0.2631 -1.1427  0.6045
 9190TIP3    H251766   2.017   3.006   9.303  0.4515  1.4445  0.2589
 9191TIP3   OH251767   6.255   0.438  11.858  1.0153  0.6580  0.6626
 9191TIP3    H151768   6.205   0.482  11.789 -0.7840  0.7990  1.9966
 9191TIP3    H251769   6.330   0.400  11.812 -0.3804  0.3238 -1.4796
 9192TIP3   OH251770   0.300   2.186   7.892 -0.2769  0.4130  0.1167
 9192TIP3    H151771   0.324   2.245   7.821  1.2503  0.4023  0.5849
 9192TIP3    H251772   0.358   2.110   7.880 -0.9536 -0.1851  0.5748
 9193TIP3   OH251773   2.305   6.599   8.487  0.2861 -0.5284  0.0895
 9193TIP3    H151774   2.299   6.667   8.555  0.3889 -0.5269  0.0969
 9193TIP3    H251775   2.362   6.637   8.421  2.0886 -1.4206  1.0641
 9194TIP3   OH251776   1.247   1.031  10.462  0.9072  0.5589 -0.0156
 9194TIP3    H151777   1.153   1.036  10.448  0.9016  0.5216  0.0101
 9194TIP3    H251778   1.277   1.122  10.452  0.4393  1.1686  3.0592
 9195TIP3   OH251779   3.269   2.838   8.399 -0.6378 -0.6387 -0.1066
 9195TIP3    H151780   3.359   2.843   8.432 -1.4349 -0.6463  2.2504
 9195TIP3    H251781   3.273   2.770   8.331  0.9450 -1.4215  0.6942
 9196TIP3   OH251782   2.699   4.623  10.528 -0.3868 -0.4303 -0.1934
 9196TIP3    H151783   2.625   4.679  10.504 -0.6199 -0.5801  0.1733
 9196TIP3    H251784   2.775   4.667  10.490 -0.7207 -0.5406 -1.0095
 9197TIP3   OH251785   1.488   2.997  10.025  0.1690  1.0829  0.0117
 9197TIP3    H151786   1.476   2.916  10.075  0.8288  0.1935 -1.1936
 9197TIP3    H251787   1.399   3.030  10.011 -0.3081 -0.5744 -1.2227
 9198TIP3   OH251788   1.567   5.662   8.681 -0.0613  0.4791 -0.7767
 9198TIP3    H151789   1.605   5.632   8.763 -2.0405  0.0070  0.0248
 9198TIP3    H251790   1.608   5.606   8.614  1.1820  0.5251 -0.0866
 9199TIP3   OH251791   2.855   3.835   9.730 -0.2494  0.3841  0.3627
 9199TIP3    H151792   2.766   3.846   9.764 -0.0474  1.0626  0.6901
 9199TIP3    H251793   2.846   3.772   9.658 -1.0183  0.5737  0.2885
 9200TIP3   OH251794   6.178   1.140   9.993  1.0469  0.3342  0.0986
 9200TIP3    H151795   6.114   1.080  10.031  1.3181  0.6949  1.1759
 9200TIP3    H251796   6.131   1.184   9.923  0.7622 -0.9287 -0.5300
 9201TIP3   OH251797   4.502   3.740  10.399 -0.3278  0.0606  0.0539
 9201TIP3    H151798   4.495   3.831  10.429 -0.4787  0.5143 -1.2604
 9201TIP3    H251799   4.549   3.746  10.316  0.0344 -1.1179  0.1560
 9202TIP3   OH251800   2.332   3.014   8.489 -0.1735  0.6044  0.1076
 9202TIP3    H151801   2.425   2.998   8.470 -0.2457 -0.1286  0.3051
 9202TIP3    H251802   2.332   3.039   8.582 -0.2181  0.1238  0.2386
 9203TIP3   OH251803   4.709   1.772   7.939 -0.1161  0.7302 -0.1588
 9203TIP3    H151804   4.619   1.744   7.924 -0.0793  0.5391 -0.0261
 9203TIP3    H251805   4.702   1.859   7.977 -0.2638  0.5055  0.3389
 9204TIP3   OH251806   4.671   5.459   8.910  0.6299 -0.8495  0.3622
 9204TIP3    H151807   4.670   5.483   9.003 -0.4419 -0.7162  0.3272
 9204TIP3    H251808   4.706   5.537   8.866 -0.8597 -0.0960  0.4579
 9205TIP3   OH251809   1.052   2.209   9.601 -0.0526 -0.2275 -0.5405
 9205TIP3    H151810   1.028   2.182   9.689  1.9959  0.8112  0.4034
 9205TIP3    H251811   1.032   2.302   9.597  0.2985 -0.1644 -1.0037
 9206TIP3   OH251812   5.935   2.384   8.492 -0.0660  0.0548  0.1496
 9206TIP3    H151813   5.841   2.400   8.507 -0.4774  0.7353 -2.5731
 9206TIP3    H251814   5.950   2.295   8.524 -2.0543 -0.6774 -0.7668
 9207TIP3   OH251815   2.259   1.102  10.064 -0.1353 -0.4244  0.5237
 9207TIP3    H151816   2.248   1.016  10.104  0.6389 -0.7412  0.0874
 9207TIP3    H251817   2.171   1.130  10.040 -0.3753 -1.1480  0.5548
 9208TIP3   OH251818   1.735   4.252  10.228 -0.2377 -0.6424  0.0082
 9208TIP3    H151819   1.678   4.285  10.159 -0.2470  0.9131  0.7221
 9208TIP3    H251820   1.725   4.314  10.300  0.4174 -1.7496  1.1112
 9209TIP3   OH251821   4.708   3.625  11.587  0.3165  0.0636  0.1971
 9209TIP3    H151822   4.777   3.601  11.526 -0.3765  0.3217 -0.7029
 9209TIP3    H251823   4.634   3.569  11.563 -0.0733  0.4139  0.5674
 9210TIP3   OH251824   1.049   2.703   9.668  0.4922 -0.4236  0.0537
 9210TIP3    H151825   1.127   2.688   9.616  0.2007 -0.8327 -0.2676
 9210TIP3    H251826   1.082   2.719   9.757  0.9122 -1.1108  0.0249
 9211TIP3   OH251827   1.580   2.875  11.232 -0.0498  0.3712 -0.1218
 9211TIP3    H151828   1.634   2.889  11.310  0.5007  0.2916 -0.4807
 9211TIP3    H251829   1.563   2.780  11.231  2.1058 -0.0662 -1.4667
 9212TIP3   OH251830   1.822   1.873   9.853 -0.2401 -0.0895  0.0360
 9212TIP3    H151831   1.840   1.953   9.803 -1.6877 -0.1057 -0.5682
 9212TIP3    H251832   1.875   1.882   9.932 -0.5351  1.5954  0.0873
 9213TIP3   OH251833   5.883   1.324   8.001 -0.5061 -0.1235  0.2915
 9213TIP3    H151834   5.837   1.391   8.051  0.8840  0.8091  0.3699
 9213TIP3    H251835   5.817   1.292   7.939 -0.9438  2.0207 -0.4371
 9214TIP3   OH251836   5.141   6.248   8.411 -0.7799  0.5702 -0.2431
 9214TIP3    H151837   5.064   6.193   8.397 -1.8369  1.7834  0.5955
 9214TIP3    H251838   5.187   6.245   8.327 -1.4269 -0.6203 -0.5901
 9215TIP3   OH251839   6.235   2.912   7.905  0.2589 -0.1921  0.6476
 9215TIP3    H151840   6.170   2.929   7.837  1.1012 -0.2385 -0.1867
 9215TIP3    H251841   6.189   2.858   7.969 -0.0630 -1.6721 -0.7617
 9216TIP3   OH251842   2.660   3.464   9.073 -0.0519 -0.2311 -0.1271
 9216TIP3    H151843   2.612   3.472   8.991 -0.9914 -2.7642  0.0846
 9216TIP3    H251844   2.675   3.370   9.084 -1.2968 -0.1974  3.2988
 9217TIP3   OH251845   4.028   5.821  11.646 -0.1996  0.1165  0.0217
 9217TIP3    H151846   4.048   5.912  11.625  0.0968  0.4137  1.4869
 9217TIP3    H251847   3.933   5.815  11.639 -0.2094  0.4985 -0.2142
 9218TIP3   OH251848   6.524   6.235  10.823 -0.1017 -0.0180  0.4563
 9218TIP3    H151849   6.430   6.219  10.828 -0.4860  1.5400 -0.8783
 9218TIP3    H251850   6.536   6.322  10.861  0.9904 -0.5933  1.5555
 9219TIP3   OH251851   5.305   5.898   9.825 -0.1983 -0.0269  0.1905
 9219TIP3    H151852   5.211   5.897   9.806  0.3721  0.6730 -3.2976
 9219TIP3    H251853   5.322   5.815   9.868 -2.2826 -0.5727  0.0333
 9220TIP3   OH251854   5.103   6.639   9.576 -0.3731 -0.1131 -0.0753
 9220TIP3    H151855   5.042   6.709   9.555  0.5785  1.0148  0.7698
 9220TIP3    H251856   5.170   6.681   9.630  0.4433 -1.5928  0.1180
 9221TIP3   OH251857   2.658   3.853  10.536  0.7099 -0.0184  0.1915
 9221TIP3    H151858   2.575   3.808  10.548  0.7280 -0.2608 -0.5412
 9221TIP3    H251859   2.638   3.925  10.476  0.5240  1.4169  1.9071
 9222TIP3   OH251860   0.338   0.019   7.886  0.1146 -0.5492  0.4512
 9222TIP3    H151861   0.348  -0.035   7.808 -1.5877  1.0617 -0.9911
 9222TIP3    H251862   0.266  -0.021   7.935 -1.2528  0.4007 -0.6945
 9223TIP3   OH251863   4.893   3.469   8.885  0.7796 -0.0040  0.1078
 9223TIP3    H151864   4.968   3.411   8.895 -0.0982 -0.9074  1.8555
 9223TIP3    H251865   4.916   3.547   8.936  0.5029 -0.3219  0.7255
 9224TIP3   OH251866   6.573   4.784   9.356  0.2822 -0.0386 -0.0850
 9224TIP3    H151867   6.552   4.758   9.266 -0.6115 -0.3525  0.2029
 9224TIP3    H251868   6.488   4.797   9.398  0.6841  1.4144  0.3533
 9225TIP3   OH251869   2.430   0.478   9.332 -0.3987 -0.2578 -0.7751
 9225TIP3    H151870   2.368   0.522   9.390  1.9207  0.3080  1.4669
 9225TIP3    H251871   2.482   0.550   9.294  1.1288 -0.8159  0.1627
 9226TIP3   OH251872   0.452   4.616  10.341  0.1551  0.0927 -0.3506
 9226TIP3    H151873   0.492   4.663  10.268  1.2510  0.5893  0.5376
 9226TIP3    H251874   0.414   4.685  10.396 -0.7726 -0.2849 -0.4917
 9227TIP3   OH251875   0.236   0.188  10.356 -0.3758 -0.1163 -0.2515
 9227TIP3    H151876   0.215   0.190  10.263 -1.5135  0.4133 -0.0036
 9227TIP3    H251877   0.325   0.225  10.362 -0.6447  0.6744 -1.0382
 9228TIP3   OH251878   1.894   4.729   9.108 -0.4315 -0.1456  0.3590
 9228TIP3    H151879   1.814   4.704   9.062 -1.1832  1.6500  0.6084
 9228TIP3    H251880   1.956   4.748   9.039 -0.5676 -0.4888  0.1403
 9229TIP3   OH251881   3.637   4.120  10.649 -0.1737 -0.5892  0.2235
 9229TIP3    H151882   3.717   4.172  10.649 -0.1196 -0.6756  0.9386
 9229TIP3    H251883   3.620   4.104  10.556  0.9375 -1.0402  0.0782
 9230TIP3   OH251884   5.402   5.318   8.225  0.0063 -0.4128 -0.0209
 9230TIP3    H151885   5.345   5.367   8.284  1.2857  1.8399 -0.5152
 9230TIP3    H251886   5.347   5.249   8.190 -1.2573 -0.7761  2.4821
 9231TIP3   OH251887   2.161   5.826   9.517 -0.1569  0.3673  0.0542
 9231TIP3    H151888   2.153   5.813   9.612  0.9028  1.7733  0.3670
 9231TIP3    H251889   2.183   5.919   9.508  0.7196  0.0312 -1.5197
 9232TIP3   OH251890   3.590   1.234   8.905 -0.0542 -0.0404 -0.1561
 9232TIP3    H151891   3.522   1.180   8.944  0.4907  0.2175  1.2243
 9232TIP3    H251892   3.561   1.324   8.922 -0.9434  0.1771 -2.4045
 9233TIP3   OH251893   4.619   6.064  10.381  0.1997  0.2358 -0.0141
 9233TIP3    H151894   4.639   5.992  10.441  3.2946  1.1859  0.2443
 9233TIP3    H251895   4.581   6.021  10.305  1.3771 -1.6316  0.3833
 9234TIP3   OH251896   3.567   2.155  10.684  0.2053  0.1686 -0.1072
 9234TIP3    H151897   3.627   2.170  10.611 -0.1438  0.1258 -0.4062
 9234TIP3    H251898   3.621   2.166  10.762  1.0147 -1.5379 -0.3670
 9235TIP3   OH251899   5.312   6.197   9.050 -0.0970 -0.6523  0.3020
 9235TIP3    H151900   5.363   6.276   9.033 -1.4060  0.6244  1.9670
 9235TIP3    H251901   5.344   6.166   9.135 -0.7260 -0.9722  0.4241
 9236TIP3   OH251902   5.684   0.102   9.642 -0.5911 -0.0663  0.2866
 9236TIP3    H151903   5.637   0.183   9.622  0.6576  0.8325  0.8878
 9236TIP3    H251904   5.727   0.119   9.726  0.7727 -0.8735 -0.2170
 9237TIP3   OH251905   3.065   3.493  10.768 -0.0198 -0.2736 -0.6357
 9237TIP3    H151906   3.145   3.473  10.817  0.0844 -1.7093 -1.3396
 9237TIP3    H251907   3.096   3.525  10.683 -0.1745 -0.7863 -0.8918
 9238TIP3   OH251908   2.902   4.620   8.804  0.4422  0.3288 -0.4965
 9238TIP3    H151909   2.873   4.630   8.894  0.3737  0.7309 -0.5590
 9238TIP3    H251910   2.919   4.710   8.774  1.8190  0.1005 -0.4414
 9239TIP3   OH251911   6.434   1.061   8.054 -0.3637 -0.0932  0.4166
 9239TIP3    H151912   6.481   1.080   7.973 -0.6985  0.7802  0.4189
 9239TIP3    H251913   6.490   1.000   8.101  0.4461  0.4210  0.1241
 9240TIP3   OH251914   0.697   5.955   7.836 -0.0567  0.1970 -0.1943
 9240TIP3    H151915   0.661   6.010   7.905 -1.3704 -0.7504 -0.0867
 9240TIP3    H251916   0.655   5.870   7.849  1.4879 -0.6799 -0.6965
 9241TIP3   OH251917   2.975   6.409   8.539  0.0111  0.0012  0.2054
 9241TIP3    H151918   2.886   6.437   8.562  0.7307  2.6879  0.1326
 9241TIP3    H251919   2.968   6.375   8.450 -0.6293  2.5789 -0.8193
 9242TIP3   OH251920   1.403   0.529   9.164  0.1888 -0.5100  0.3479
 9242TIP3    H151921   1.395   0.611   9.213  0.7788 -1.1613  1.5685
 9242TIP3    H251922   1.366   0.462   9.222 -0.0453 -1.1507 -0.5210
 9243TIP3   OH251923   0.392   1.332   8.662 -0.0911 -0.0837 -0.2717
 9243TIP3    H151924   0.325   1.361   8.724 -0.7184  1.3346 -1.5336
 9243TIP3    H251925   0.352   1.346   8.576  1.2978 -0.5779 -1.0248
 9244TIP3   OH251926   6.211   1.635   9.526  0.0552 -0.2863 -0.1668
 9244TIP3    H151927   6.275   1.618   9.596 -0.9184 -3.9850  0.0167
 9244TIP3    H251928   6.145   1.691   9.567  0.5631 -0.6790  1.2463
 9245TIP3   OH251929   1.982   4.567   8.132 -0.3730 -0.3330 -0.7675
 9245TIP3    H151930   1.977   4.661   8.119  0.4409 -0.3654 -1.4314
 9245TIP3    H251931   1.902   4.532   8.092 -0.0853 -0.0213 -1.6367
 9246TIP3   OH251932   3.447   5.042   8.571 -0.1353 -0.1495 -0.4471
 9246TIP3    H151933   3.461   5.034   8.666  0.6372 -1.0979 -0.6239
 9246TIP3    H251934   3.524   5.090   8.540 -0.2627 -0.0625 -0.6253
 9247TIP3   OH251935   6.072   2.568   8.658 -0.0236 -0.8685  0.3285
 9247TIP3    H151936   6.105   2.509   8.726 -0.3537 -1.5039 -0.0506
 9247TIP3    H251937   6.030   2.510   8.594 -1.1090 -0.1544  0.3696
 9248TIP3   OH251938   1.738   2.024   8.080 -0.2034 -0.1522 -0.7385
 9248TIP3    H151939   1.758   2.072   8.000  1.2047  0.7972  0.1357
 9248TIP3    H251940   1.824   2.004   8.118 -0.8378 -0.1756  0.7519
 9249TIP3   OH251941   4.598   3.471   8.456 -0.6426  0.2878  0.3126
 9249TIP3    H151942   4.661   3.470   8.527  1.0645 -1.2361 -1.1231
 9249TIP3    H251943   4.589   3.564   8.433  1.1325  0.5360  0.5080
 9250TIP3   OH251944   4.118   3.879   8.434 -0.0520 -0.6150  0.3852
 9250TIP3    H151945   4.175   3.872   8.511  1.3213  0.9952 -0.4059
 9250TIP3    H251946   4.175   3.914   8.366 -1.9035  0.7996 -0.5344
 9251TIP3   OH251947   3.127   6.138   9.868 -0.0704  0.7130  0.7408
 9251TIP3    H151948   3.210   6.186   9.871  0.1837  0.2870  0.5853
 9251TIP3    H251949   3.116   6.115   9.776 -1.0158  1.8908  0.5346
 9252TIP3   OH251950   2.485   5.627  10.018 -0.4633 -0.0537 -0.0740
 9252TIP3    H151951   2.439   5.611  10.101 -0.4857  0.3749  0.0037
 9252TIP3    H251952   2.551   5.693  10.041  0.5770 -1.0661 -0.0582
 9253TIP3   OH251953   6.372   3.780   9.042 -0.2933  0.0864 -0.0879
 9253TIP3    H151954   6.445   3.813   8.989 -1.3476  3.6216  0.3866
 9253TIP3    H251955   6.411   3.756   9.125  0.7298 -1.0667 -0.8736
 9254TIP3   OH251956   1.643   4.751   8.926  0.6547 -0.3250  0.0789
 9254TIP3    H151957   1.643   4.710   8.840 -0.5288  0.2043 -0.1911
 9254TIP3    H251958   1.584   4.696   8.978  3.2062 -2.1099  1.3311
 9255TIP3   OH251959   3.615   2.499   9.764 -0.4291 -0.0922  0.1010
 9255TIP3    H151960   3.537   2.553   9.774  1.6399  3.2202  0.0453
 9255TIP3    H251961   3.682   2.543   9.817  2.2421 -0.8144 -2.3697
 9256TIP3   OH251962   0.254   0.782  10.149 -0.0309  0.6465 -0.2111
 9256TIP3    H151963   0.158   0.790  10.144 -0.1881 -0.0758  1.2167
 9256TIP3    H251964   0.274   0.797  10.241  1.2838  1.1165 -0.5557
 9257TIP3   OH251965   2.996   4.395  10.682 -0.0948 -0.7144  0.2782
 9257TIP3    H151966   2.956   4.481  10.692 -1.0480 -1.0592 -0.4170
 9257TIP3    H251967   3.067   4.393  10.746 -0.1324  0.5452  0.3679
 9258TIP3   OH251968   3.188   1.217   8.142  0.2324  0.3001  0.1803
 9258TIP3    H151969   3.155   1.238   8.055  1.7241 -1.0962 -0.7768
 9258TIP3    H251970   3.185   1.121   8.146  1.2005  0.2920  1.2617
 9259TIP3   OH251971   1.960   0.636   8.720 -0.0081  0.1047  0.0583
 9259TIP3    H151972   1.971   0.720   8.765  0.3744  0.0222  0.1289
 9259TIP3    H251973   1.885   0.595   8.763 -1.6235  1.3460 -1.4473
 9260TIP3   OH251974   2.556   2.689   9.212  1.2100  0.4471  0.1793
 9260TIP3    H151975   2.500   2.724   9.281  0.5347  1.3536 -0.8066
 9260TIP3    H251976   2.627   2.753   9.204 -0.2538  1.9509 -1.9252
 9261TIP3   OH251977   6.119   3.488  10.259  0.6740 -0.6203  0.1748
 9261TIP3    H151978   6.095   3.443  10.341 -1.5707  1.3086  0.6657
 9261TIP3    H251979   6.101   3.423  10.191  0.7468 -1.6171  1.0675
 9262TIP3   OH251980   1.921   2.971   8.872  0.2584  0.3715  0.3032
 9262TIP3    H151981   1.883   3.036   8.812 -0.6854 -1.7804 -1.5979
 9262TIP3    H251982   2.015   2.988   8.869  0.0348  1.6467 -0.1387
 9263TIP3   OH251983   4.294   4.116  11.367 -0.2234  0.1042  0.3811
 9263TIP3    H151984   4.242   4.073  11.434  0.0230 -1.2475 -0.2602
 9263TIP3    H251985   4.370   4.150  11.414 -1.1263  1.1432  1.1388
 9264TIP3   OH251986   3.585   5.751   8.191 -0.4001  0.3928 -0.9706
 9264TIP3    H151987   3.549   5.675   8.145 -1.0642 -0.7846  1.3184
 9264TIP3    H251988   3.662   5.717   8.236 -0.2417  1.2804 -0.5468
 9265TIP3   OH251989   1.235   0.267  10.262 -0.4211  0.0350  0.7083
 9265TIP3    H151990   1.244   0.322  10.184 -1.3471  2.5447  2.2410
 9265TIP3    H251991   1.321   0.226  10.273  1.0571  2.8715  0.6023
 9266TIP3   OH251992   4.881   2.149  10.884 -0.0385  0.0937  0.6313
 9266TIP3    H151993   4.931   2.200  10.821 -1.0916 -1.3118 -1.4497
 9266TIP3    H251994   4.936   2.147  10.963  0.5207  3.4136  0.4582
 9267TIP3   OH251995   6.200   0.290   8.173 -0.2715  0.1815  0.0603
 9267TIP3    H151996   6.216   0.215   8.115 -0.9620 -0.4405  0.6510
 9267TIP3    H251997   6.258   0.275   8.247 -0.0155  0.5258 -0.0677
 9268TIP3   OH251998   4.117   3.142   9.248 -0.9602  0.6403  0.0111
 9268TIP3    H151999   4.148   3.142   9.338 -1.6106 -0.2914  0.2582
 9268TIP3    H252000   4.067   3.223   9.239 -2.8377 -0.2971  1.2281
 9269TIP3   OH252001   6.588   0.965   8.305 -0.7240  0.1570 -0.4984
 9269TIP3    H152002   6.532   0.898   8.265 -0.3624 -0.1917 -0.4337
 9269TIP3    H252003   6.530   1.039   8.321 -1.2045 -0.2624 -0.2688
 9270TIP3   OH252004   5.262   5.623   9.026 -0.3610 -0.4358  0.1050
 9270TIP3    H152005   5.334   5.686   9.017 -2.0746  1.7096  0.6197
 9270TIP3    H252006   5.267   5.594   9.117  0.5922 -1.2801 -0.2028
 9271TIP3   OH252007   3.376   3.185  11.185 -0.8123  0.4266  0.1206
 9271TIP3    H152008   3.471   3.173  11.173 -1.0127 -0.2267 -0.9835
 9271TIP3    H252009   3.346   3.099  11.216 -1.2490  0.1512 -1.0143
 9272TIP3   OH252010   6.639   4.156  11.487  0.2860  0.0243  0.3090
 9272TIP3    H152011   6.656   4.131  11.578  2.3313  0.4216  0.0901
 9272TIP3    H252012   6.717   4.207  11.462 -0.6289  0.6385 -1.4026
 9273TIP3   OH252013   4.585   3.248  10.343 -0.0422 -0.4375  0.2583
 9273TIP3    H152014   4.606   3.335  10.378 -0.3924 -0.9277  1.7329
 9273TIP3    H252015   4.501   3.226  10.381 -1.2370 -0.3602 -2.1676
 9274TIP3   OH252016   6.012   1.343   9.917  0.1445  0.3728  0.7217
 9274TIP3    H152017   6.103   1.368   9.928  0.6756  0.1815 -2.2868
 9274TIP3    H252018   5.990   1.372   9.828 -2.7508  0.4332  1.3508
 9275TIP3   OH252019   6.076   4.144  10.142  0.1102 -0.0892 -0.7348
 9275TIP3    H152020   6.146   4.080  10.155  0.2655  0.1625 -0.2926
 9275TIP3    H252021   5.996   4.093  10.143 -0.0243 -0.0316  2.4919
 9276TIP3   OH252022   0.696   3.858  12.080 -0.6766 -0.5842 -1.0132
 9276TIP3    H152023   0.681   3.790  12.015 -0.3387 -0.3745 -1.3151
 9276TIP3    H252024   0.609   3.878  12.115 -0.9867 -0.0835 -2.0216
 9277TIP3   OH252025   6.544   2.484   9.733 -0.2697  0.4303  0.3352
 9277TIP3    H152026   6.529   2.392   9.757  2.3235 -0.0974  0.1919
 9277TIP3    H252027   6.587   2.522   9.809  2.8933  0.2246 -1.1936
 9278TIP3   OH252028   3.232   6.351  11.223  0.0435  0.2404 -0.0408
 9278TIP3    H152029   3.295   6.423  11.217  0.2516  0.1826  1.2496
 9278TIP3    H252030   3.146   6.393  11.215  0.1089  0.8168  1.9294
 9279TIP3   OH252031   1.641   3.214   9.417 -0.1080 -0.0268 -0.1754
 9279TIP3    H152032   1.552   3.248   9.404  0.2118  0.2461 -1.8791
 9279TIP3    H252033   1.673   3.198   9.328  1.8066  0.5563  0.3818
 9280TIP3   OH252034   6.557   1.346  10.256 -0.1407  0.0667 -0.5876
 9280TIP3    H152035   6.597   1.426  10.223  0.2604  0.4105  0.6955
 9280TIP3    H252036   6.625   1.279  10.245 -0.2659  0.0111 -1.0932
 9281TIP3   OH252037   2.886   3.343   9.648  0.3891  0.3977 -0.5134
 9281TIP3    H152038   2.806   3.377   9.609 -0.4665 -0.0618  0.7835
 9281TIP3    H252039   2.955   3.366   9.585 -0.5329  2.0921 -0.9692
 9282TIP3   OH252040   2.803   1.581   8.071 -1.0231  0.0621  0.0926
 9282TIP3    H152041   2.782   1.574   8.164  1.2309  1.9143  0.8291
 9282TIP3    H252042   2.805   1.675   8.054  0.8116 -0.1796 -1.2643
 9283TIP3   OH252043   1.674   5.785  10.601  0.2666 -0.6208  0.2053
 9283TIP3    H152044   1.610   5.748  10.540 -0.1577 -0.7687  0.7270
 9283TIP3    H252045   1.624   5.801  10.681  0.8483 -0.5772  0.5664
 9284TIP3   OH252046   1.873   0.817   8.327 -0.5815 -0.1118  0.0666
 9284TIP3    H152047   1.782   0.793   8.344 -0.2612 -2.5648 -1.2143
 9284TIP3    H252048   1.924   0.745   8.363  0.9189  1.4141  1.1145
 9285TIP3   OH252049   3.855   2.488   8.655 -0.3643  0.0766 -0.3030
 9285TIP3    H152050   3.793   2.523   8.719  0.8807 -0.2138  1.1220
 9285TIP3    H252051   3.843   2.393   8.660  0.0430  0.0308 -0.1822
 9286TIP3   OH252052   3.810   1.574   9.902 -0.0553 -0.1084 -0.1364
 9286TIP3    H152053   3.846   1.591   9.815  1.0860  0.4340  0.4221
 9286TIP3    H252054   3.792   1.480   9.901  4.5581 -1.2538  0.5899
 9287TIP3   OH252055   6.589   2.268   8.296  0.2015  0.2640  0.4509
 9287TIP3    H152056   6.502   2.234   8.316  0.3862 -0.7773 -0.4284
 9287TIP3    H252057   6.578   2.316   8.214  0.8350 -1.7098 -0.8561
 9288TIP3   OH252058   0.859   1.944   9.648 -0.4682 -0.1316 -0.0929
 9288TIP3    H152059   0.869   1.938   9.743 -0.4712  1.8825  0.0846
 9288TIP3    H252060   0.766   1.928   9.632 -0.9179  1.6137  0.5196
 9289TIP3   OH252061   6.114   5.876   8.608 -0.7147 -0.3237  1.0847
 9289TIP3    H152062   6.122   5.828   8.526  0.2652  0.3210  0.7798
 9289TIP3    H252063   6.204   5.890   8.637 -1.0472 -0.7507  2.4071
 9290TIP3   OH252064   1.029   3.990   9.211  0.1446 -0.1716  0.5862
 9290TIP3    H152065   1.050   3.897   9.203 -1.0038 -0.4754  0.8090
 9290TIP3    H252066   0.952   3.992   9.269 -1.1702  0.7222 -1.0814
 9291TIP3   OH252067   3.382   5.916  11.073  0.2517  0.4202 -0.5156
 9291TIP3    H152068   3.311   5.897  11.134 -1.8130  1.7309 -2.3297
 9291TIP3    H252069   3.407   6.007  11.093  1.4079 -0.0056  0.0558
 9292TIP3   OH252070   0.684   1.192  10.064  0.1259  0.1573  0.1007
 9292TIP3    H152071   0.769   1.226  10.037 -0.1867  0.5363 -0.4506
 9292TIP3    H252072   0.634   1.185   9.982 -0.4659  0.2089  0.4478
 9293TIP3   OH252073   3.358   4.746  10.246 -0.3741 -0.1960 -0.2404
 9293TIP3    H152074   3.432   4.774  10.191 -1.4652 -0.0654 -1.7114
 9293TIP3    H252075   3.284   4.742  10.185 -1.3362 -1.4366  0.9648
 9294TIP3   OH252076   2.448   5.882  10.701  0.0853 -0.2728 -0.1845
 9294TIP3    H152077   2.504   5.960  10.707 -0.9668  0.5758 -1.0711
 9294TIP3    H252078   2.464   5.835  10.783 -0.2037  1.5245  0.9445
 9295TIP3   OH252079   6.222   0.654  11.467  0.1765 -0.7006  0.1688
 9295TIP3    H152080   6.188   0.708  11.395 -0.1840  0.0496  0.8888
 9295TIP3    H252081   6.257   0.577  11.424 -1.4367 -0.9896 -0.7141
 9296TIP3   OH252082   1.718   6.483   9.828  0.0236  0.0383 -0.1287
 9296TIP3    H152083   1.657   6.410   9.843 -0.9506  0.6691 -0.8738
 9296TIP3    H252084   1.803   6.448   9.853 -0.9253 -0.0254  3.7315
 9297TIP3   OH252085   3.940   5.309   8.400  0.7541 -0.1983 -0.1033
 9297TIP3    H152086   4.033   5.331   8.395  1.1959 -1.7369  0.5913
 9297TIP3    H252087   3.904   5.370   8.464  1.1845  0.6751 -0.6700
 9298TIP3   OH252088   3.738   3.482   8.130  0.4881  0.0118  0.6804
 9298TIP3    H152089   3.726   3.443   8.216  0.3981 -0.8103  0.3062
 9298TIP3    H252090   3.675   3.435   8.074  0.0369  1.0267  0.3183
 9299TIP3   OH252091   3.631   3.886   8.438  0.4333 -0.3100  0.2283
 9299TIP3    H152092   3.544   3.885   8.478 -0.1342 -0.9557 -0.9603
 9299TIP3    H252093   3.660   3.795   8.442  0.7735 -0.2095  0.0553
 9300TIP3   OH252094   0.862   4.475   8.250  0.4900 -0.3081 -0.0460
 9300TIP3    H152095   0.872   4.511   8.338 -2.8471 -1.3092  0.9061
 9300TIP3    H252096   0.848   4.552   8.194  0.6356  0.2400  0.6589
 9301TIP3   OH252097   0.436   2.629   8.385  0.1423 -0.4451  0.2481
 9301TIP3    H152098   0.491   2.664   8.315 -0.4968 -1.6998 -0.9376
 9301TIP3    H252099   0.398   2.706   8.427  0.3582  0.3396 -0.9464
 9302TIP3   OH252100   6.048   2.946  11.415 -0.0475 -0.4150  1.2931
 9302TIP3    H152101   6.136   2.914  11.431 -0.5172 -2.1459  0.6642
 9302TIP3    H252102   6.058   3.041  11.406  2.2377 -0.7857 -1.6721
 9303TIP3   OH252103   0.763   0.965   7.356  0.3677  0.0245 -0.1038
 9303TIP3    H152104   0.701   0.904   7.316  1.6411  0.0271 -2.2282
 9303TIP3    H252105   0.803   1.011   7.282  0.8569  2.0668  1.3410
 9304TIP3   OH252106   1.415   6.259   8.333  0.1510  0.2395  0.2035
 9304TIP3    H152107   1.407   6.234   8.425  2.3116  0.2479  0.4369
 9304TIP3    H252108   1.396   6.353   8.332 -0.9934  0.0232  0.4407
 9305TIP3   OH252109   0.596   5.712  10.120  0.0567  0.2762 -0.6702
 9305TIP3    H152110   0.584   5.667  10.204 -0.0279  0.7345 -0.4332
 9305TIP3    H252111   0.507   5.720  10.085  0.0887  0.1142 -0.7888
 9306TIP3   OH252112   0.722   5.377   9.227 -0.1308 -0.8914 -0.0866
 9306TIP3    H152113   0.756   5.294   9.259 -0.4659 -1.1221 -0.3254
 9306TIP3    H252114   0.640   5.390   9.276 -1.7132 -2.2185 -2.1923
 9307TIP3   OH252115   6.209   4.572   9.735  0.3888  0.2249  0.1950
 9307TIP3    H152116   6.304   4.559   9.731  0.5962  1.8053 -0.7282
 9307TIP3    H252117   6.186   4.602   9.647 -0.7174  1.3805  0.8630
 9308TIP3   OH252118   4.651   1.010  10.131 -0.6076  0.5481  0.1593
 9308TIP3    H152119   4.668   0.977  10.043 -1.2553  0.7992 -0.0614
 9308TIP3    H252120   4.624   0.933  10.180 -0.0569  0.3726  0.1896
 9309TIP3   OH252121   4.808   0.627   9.767  0.1901 -0.3396  0.2174
 9309TIP3    H152122   4.744   0.560   9.790  0.2554 -0.8487 -1.0358
 9309TIP3    H252123   4.771   0.670   9.690 -0.2374  1.6116  1.4437
 9310TIP3   OH252124   3.707   3.524   8.850 -0.4781 -0.3649 -0.3894
 9310TIP3    H152125   3.708   3.453   8.785  0.0595  0.1015 -0.9053
 9310TIP3    H252126   3.757   3.594   8.809  1.0090 -0.5142  1.0391
 9311TIP3   OH252127   4.161   2.885   8.275 -0.2810  0.3940  0.1263
 9311TIP3    H152128   4.076   2.921   8.300  0.1175  2.1654 -0.9588
 9311TIP3    H252129   4.224   2.932   8.329  0.1036 -0.0172  0.0391
 9312TIP3   OH252130   0.983   1.086   8.051 -0.6186 -0.4375 -0.2901
 9312TIP3    H152131   1.004   1.173   8.085 -2.6782 -0.6791  1.9592
 9312TIP3    H252132   0.909   1.100   7.992 -0.2288 -0.5515 -0.8108
 9313TIP3   OH252133   2.928   3.712   9.955 -0.2060 -0.6957  0.5307
 9313TIP3    H152134   2.911   3.775  10.025  2.7432 -1.6476  2.2594
 9313TIP3    H252135   2.930   3.765   9.875 -0.8655  0.8783  1.5102
 9314TIP3   OH252136   3.970   0.856   8.319 -0.0507 -0.0675  0.3016
 9314TIP3    H152137   4.022   0.778   8.343 -1.0604 -0.8986 -0.1622
 9314TIP3    H252138   3.951   0.898   8.403  0.5405 -0.2798  0.5530
 9315TIP3   OH252139   4.546   3.853   9.902  0.1981  0.2808 -0.1379
 9315TIP3    H152140   4.467   3.800   9.906  0.8569 -0.6764  0.9196
 9315TIP3    H252141   4.516   3.943   9.908 -0.7642 -0.1055  1.3955
 9316TIP3   OH252142   1.163   2.849  11.847  0.3014  0.1916  0.8279
 9316TIP3    H152143   1.093   2.836  11.783  0.9230 -0.0554  0.1895
 9316TIP3    H252144   1.185   2.760  11.877  0.3257  0.2714  1.0527
 9317TIP3   OH252145   5.048   6.580  10.057  0.0680  0.1037 -0.2294
 9317TIP3    H152146   5.090   6.659  10.023 -0.7638  0.9380  0.6144
 9317TIP3    H252147   5.097   6.508  10.019  0.5949  1.0267 -1.3432
 9318TIP3   OH252148   0.605   6.530   8.735  0.1603 -0.1503 -0.1355
 9318TIP3    H152149   0.527   6.584   8.723  0.3336  0.6123  1.7545
 9318TIP3    H252150   0.675   6.578   8.692 -0.2110 -0.3480 -0.9809
 9319TIP3   OH252151   4.269   6.623   9.762 -0.1014 -0.2236 -0.2872
 9319TIP3    H152152   4.349   6.618   9.711 -0.7204 -1.4672 -1.1796
 9319TIP3    H252153   4.227   6.538   9.750 -1.8955  0.6225 -0.4006
 9320TIP3   OH252154   3.890   0.024   8.498 -0.5920 -0.4156  0.2209
 9320TIP3    H152155   3.825   0.094   8.506  1.0893  1.5559 -2.0446
 9320TIP3    H252156   3.839  -0.053   8.471 -2.0334  1.1130 -1.7025
 9321TIP3   OH252157   6.673   4.227  10.471  0.2573 -0.3246  0.0048
 9321TIP3    H152158   6.746   4.194  10.523  0.3664 -0.8110 -0.4489
 9321TIP3    H252159   6.595   4.201  10.520  0.2910 -2.3269 -0.9178
 9322TIP3   OH252160   5.775   0.761  10.253 -0.4179  0.4585 -0.8362
 9322TIP3    H152161   5.695   0.708  10.264  0.8173 -1.4423 -0.5063
 9322TIP3    H252162   5.827   0.712  10.190  0.9891  1.0550 -0.1624
 9323TIP3   OH252163   0.528   0.283   9.628  0.2058  0.8156  0.6667
 9323TIP3    H152164   0.499   0.276   9.719  2.1563  0.8489  1.3551
 9323TIP3    H252165   0.556   0.374   9.618  0.5034  0.6827  0.2134
 9324TIP3   OH252166   3.710   6.467   9.403 -0.3612 -0.3345  0.2971
 9324TIP3    H152167   3.789   6.417   9.423  1.6767  1.8532 -1.7299
 9324TIP3    H252168   3.680   6.431   9.320  0.0526  0.5493 -0.2443
 9325TIP3   OH252169   5.876   1.680   8.584 -0.3917  0.6840  0.1398
 9325TIP3    H152170   5.885   1.686   8.489  1.6977 -2.6874 -0.0652
 9325TIP3    H252171   5.959   1.713   8.619 -0.1210 -0.4081  0.5806
 9326TIP3   OH252172   3.276   2.240   9.465 -0.1395  0.1965  0.1094
 9326TIP3    H152173   3.303   2.200   9.383  0.2615  0.1816  0.2480
 9326TIP3    H252174   3.350   2.295   9.491 -0.5137  0.6910  0.1381
 9327TIP3   OH252175   0.263   1.228   9.709 -0.0103  0.0373 -0.1216
 9327TIP3    H152176   0.218   1.183   9.638 -0.4722 -0.7972  0.6786
 9327TIP3    H252177   0.245   1.175   9.787  0.4827  0.9226  0.6233
 9328TIP3   OH252178   5.510   2.580  11.231  0.5305  0.0960 -0.1218
 9328TIP3    H152179   5.505   2.668  11.194 -2.5465 -0.5582 -1.6235
 9328TIP3    H252180   5.451   2.581  11.305 -0.6715 -1.0103 -1.0159
 9329TIP3   OH252181   5.926   6.140   9.027 -0.2740  0.3935 -0.1120
 9329TIP3    H152182   6.006   6.139   8.975 -0.6372  1.6135 -0.7110
 9329TIP3    H252183   5.855   6.141   8.963 -0.7435  0.7558  0.4069
 9330TIP3   OH252184   2.127   3.387  10.336  0.4241 -0.3034 -0.2365
 9330TIP3    H152185   2.063   3.452  10.365  1.1590  0.0893  0.5347
 9330TIP3    H252186   2.074   3.316  10.300 -0.3976  1.1961 -2.2253
 9331TIP3   OH252187   0.192   1.033   8.659 -0.8405 -0.0314 -0.3833
 9331TIP3    H152188   0.146   1.038   8.743 -0.0984 -0.1434  0.0355
 9331TIP3    H252189   0.257   0.964   8.671  1.4370  2.0499  0.0473
 9332TIP3   OH252190   4.630   0.430   8.265  0.9953  0.2935 -0.1375
 9332TIP3    H152191   4.607   0.458   8.354  0.0667 -1.6214  0.2727
 9332TIP3    H252192   4.711   0.381   8.276  1.0393  0.3104 -0.3939
 9333TIP3   OH252193   4.389   0.783   8.553  0.1251  0.2790  0.2288
 9333TIP3    H152194   4.301   0.765   8.584 -0.5013 -0.4581 -1.8129
 9333TIP3    H252195   4.411   0.868   8.592 -2.3753  1.5759 -0.9476
 9334TIP3   OH252196   4.609   5.215  10.333 -0.4803 -0.0401 -0.3219
 9334TIP3    H152197   4.666   5.155  10.286  1.8056  0.2995  1.7824
 9334TIP3    H252198   4.558   5.259  10.265  1.6641 -0.5053 -2.3315
 9335TIP3   OH252199   4.694   2.029  10.552 -0.0651 -0.2867  0.0568
 9335TIP3    H152200   4.686   1.943  10.593  0.3057 -0.3204  0.0624
 9335TIP3    H252201   4.788   2.039  10.535 -0.0316  0.3485  0.5575
 9336TIP3   OH252202   5.756   6.669  10.196  0.5521 -0.0257  0.0366
 9336TIP3    H152203   5.688   6.619  10.242 -0.5389 -0.0516 -1.5580
 9336TIP3    H252204   5.817   6.602  10.164  0.3280 -0.1456 -0.1365
 9337TIP3   OH252205   5.669   2.516   9.439  0.2421  0.2155  0.0164
 9337TIP3    H152206   5.628   2.564   9.367 -0.4827 -0.6090 -0.1380
 9337TIP3    H252207   5.762   2.512   9.416 -0.1177 -0.9284 -1.4173
 9338TIP3   OH252208   0.442   4.964   9.645 -0.1634  0.3205 -0.5026
 9338TIP3    H152209   0.498   4.945   9.720 -2.5082 -0.6225  1.1132
 9338TIP3    H252210   0.378   4.893   9.643 -3.1073  2.7366 -0.4152
 9339TIP3   OH252211   1.815   3.145   8.360 -0.1486 -0.0540  0.1120
 9339TIP3    H152212   1.808   3.093   8.280 -1.4808  0.5867 -0.2268
 9339TIP3    H252213   1.778   3.089   8.428 -0.0472 -0.1722  0.0711
 9340TIP3   OH252214   4.852   6.498   9.496  0.3865 -0.2934 -0.1088
 9340TIP3    H152215   4.931   6.511   9.444  0.4273  0.3686  0.1146
 9340TIP3    H252216   4.794   6.447   9.439  0.5585  0.1392 -0.6748
 9341TIP3   OH252217   2.671   1.591   8.334 -0.8848 -0.5326  0.1045
 9341TIP3    H152218   2.678   1.534   8.411  1.6491 -0.2542  0.1451
 9341TIP3    H252219   2.714   1.672   8.361 -3.0251  0.8885 -0.4959
 9342TIP3   OH252220   0.861   6.449   8.608  0.9221  0.1587  0.3397
 9342TIP3    H152221   0.866   6.540   8.578  3.7639  0.2078  0.6314
 9342TIP3    H252222   0.858   6.397   8.528 -0.9283  0.4690  0.1722
 9343TIP3   OH252223   3.714   6.536   9.675 -0.1935  0.4744  0.0580
 9343TIP3    H152224   3.620   6.537   9.693 -0.1590 -2.4453  0.9097
 9343TIP3    H252225   3.721   6.516   9.582 -0.4025  1.2432 -0.1251
 9344TIP3   OH252226   1.433   1.767   7.945  0.2949  0.4977  0.1039
 9344TIP3    H152227   1.359   1.809   7.901 -1.4132 -0.3587  1.9986
 9344TIP3    H252228   1.432   1.677   7.910  0.8882  0.6704 -0.3677
 9345TIP3   OH252229   3.698   1.454  10.753 -0.3511  0.4512 -0.1926
 9345TIP3    H152230   3.755   1.476  10.827  0.5624 -0.6375 -0.5417
 9345TIP3    H252231   3.610   1.475  10.783 -0.0224 -0.2010  1.3162
 9346TIP3   OH252232   4.135   0.205   9.047 -0.2614 -0.1039 -0.2449
 9346TIP3    H152233   4.056   0.230   9.095  0.0760  0.5417 -0.0175
 9346TIP3    H252234   4.207   0.228   9.105  0.2130  1.6597 -1.4519
 9347TIP3   OH252235   5.624   0.346   9.513 -0.1955  0.2295  0.3681
 9347TIP3    H152236   5.687   0.345   9.441  1.3567 -0.2725  1.6620
 9347TIP3    H252237   5.568   0.422   9.496  1.3741  1.2725 -0.3429
 9348TIP3   OH252238   3.675   6.345   9.160  0.1214 -0.4349  0.0335
 9348TIP3    H152239   3.646   6.360   9.070 -0.3170  1.1130  0.3884
 9348TIP3    H252240   3.770   6.360   9.156 -0.0701  1.0044  0.0372
 9349TIP3   OH252241   1.859   1.659  10.922 -0.5089  0.3565 -0.1082
 9349TIP3    H152242   1.949   1.680  10.899 -0.8891  1.8942 -0.3716
 9349TIP3    H252243   1.835   1.725  10.988 -1.3498 -0.2009  0.1655
 9350TIP3   OH252244   4.172   0.448   7.952 -0.0867 -0.2016 -0.2323
 9350TIP3    H152245   4.160   0.392   7.874 -0.4239 -1.0508  0.4113
 9350TIP3    H252246   4.083   0.476   7.974  0.0909  0.7111 -0.6157
 9351TIP3   OH252247   3.992   3.934   8.853 -0.0963 -0.0664 -0.6670
 9351TIP3    H152248   4.038   3.911   8.933 -0.7719  0.6675 -0.0532
 9351TIP3    H252249   4.025   4.021   8.830  0.9476 -0.7292 -1.8481
 9352TIP3   OH252250   3.349   1.538  10.461 -0.6595  0.4724  0.4885
 9352TIP3    H152251   3.382   1.623  10.492  0.9383  0.2681 -0.5094
 9352TIP3    H252252   3.284   1.561  10.394  0.0411  0.9424 -0.0500
 9353TIP3   OH252253   5.779   5.204  10.678 -0.0333  0.7623  0.2002
 9353TIP3    H152254   5.826   5.274  10.723 -0.9271  0.4932  1.6062
 9353TIP3    H252255   5.696   5.196  10.725 -1.4000  1.0249 -2.0316
 9354TIP3   OH252256   1.002   0.579   8.211 -0.1793  0.1424  0.1596
 9354TIP3    H152257   0.966   0.643   8.150 -1.1792  1.9246  2.4719
 9354TIP3    H252258   1.019   0.629   8.291  1.7701 -1.9260  1.1320
 9355TIP3   OH252259   5.925   0.873   8.122 -0.2694  0.6563 -0.1204
 9355TIP3    H152260   5.906   0.951   8.174  1.5786  0.1426  1.4532
 9355TIP3    H252261   6.003   0.897   8.071  0.5826 -0.2659  0.7137
 9356TIP3   OH252262   6.273   6.086   9.929 -0.2740 -0.3826  0.2737
 9356TIP3    H152263   6.292   6.026   9.857 -0.4060 -1.0462  0.7831
 9356TIP3    H252264   6.242   6.029  10.000  0.2816  0.2050  1.0067
 9357TIP3   OH252265   5.280   0.431  10.164 -0.2741  0.5040  0.0361
 9357TIP3    H152266   5.212   0.464  10.105  1.2227  1.3208 -1.3081
 9357TIP3    H252267   5.234   0.370  10.221 -2.3517  1.8734 -0.0697
 9358TIP3   OH252268   6.498   5.810  10.541  0.0765  0.7543  0.6469
 9358TIP3    H152269   6.475   5.895  10.504  0.7057  0.7761  0.2808
 9358TIP3    H252270   6.580   5.826  10.589  0.0984  0.3988  0.7338
 9359TIP3   OH252271   4.255   5.247   8.714 -0.8075  0.0440 -0.1909
 9359TIP3    H152272   4.227   5.273   8.626 -2.2667 -0.2096  0.1766
 9359TIP3    H252273   4.239   5.324   8.768 -1.0338 -0.1883  0.0754
 9360TIP3   OH252274   0.434   3.019  10.782  0.0260 -0.2679  0.3385
 9360TIP3    H152275   0.412   3.052  10.869 -0.0934 -0.8541  0.5386
 9360TIP3    H252276   0.434   3.096  10.726 -0.3648  0.0481  0.7654
 9361TIP3   OH252277   0.532   3.348   9.450 -0.3214  0.2257 -0.3096
 9361TIP3    H152278   0.532   3.390   9.536  1.3369 -0.4736  0.0723
 9361TIP3    H252279   0.612   3.297   9.448 -1.2943 -1.3499 -1.5348
 9362TIP3   OH252280   0.614   3.064  10.447  1.0105  0.4745 -0.3272
 9362TIP3    H152281   0.586   2.980  10.411  2.0765 -0.0317 -0.0139
 9362TIP3    H252282   0.535   3.101  10.486  0.4430 -0.1889 -0.8271
 9363TIP3   OH252283   1.339   5.974   8.576  0.0267  0.3009 -0.4015
 9363TIP3    H152284   1.299   5.939   8.497  0.7320 -0.9291 -0.2317
 9363TIP3    H252285   1.322   5.909   8.644  0.1729  0.9283  0.2640
 9364TIP3   OH252286   5.527   4.473   9.434 -0.1987 -0.0116  0.3716
 9364TIP3    H152287   5.598   4.420   9.398 -0.6034 -0.7329  0.5938
 9364TIP3    H252288   5.561   4.507   9.517  0.3834  0.8311 -0.2069
 9365TIP3   OH252289   1.666   3.726  10.091  0.1081  0.0773  0.1831
 9365TIP3    H152290   1.614   3.651  10.119  0.0210  0.6267  1.5778
 9365TIP3    H252291   1.607   3.776  10.034  0.2496 -1.0041 -0.9515
 9366TIP3   OH252292   3.333   1.676  10.792  0.2351  0.0423  0.2423
 9366TIP3    H152293   3.409   1.734  10.804  0.5750 -0.4384  0.4191
 9366TIP3    H252294   3.261   1.736  10.773  0.3558  0.6049  1.4609
 9367TIP3   OH252295   1.023   6.347   9.026 -0.2362  1.4298 -0.0343
 9367TIP3    H152296   0.972   6.427   9.039 -2.5564  0.1457 -0.8113
 9367TIP3    H252297   0.975   6.280   9.074  0.6457  0.1128 -0.9339
 9368TIP3   OH252298   3.557   2.152  11.782  0.2965  0.5942  0.0071
 9368TIP3    H152299   3.547   2.102  11.701  1.9519  1.0223 -0.5035
 9368TIP3    H252300   3.534   2.241  11.759 -2.9529  0.1420  0.9944
 9369TIP3   OH252301   5.867   0.621  10.527  1.1400  0.2384  0.4205
 9369TIP3    H152302   5.884   0.698  10.473 -1.9660  0.5202 -0.3129
 9369TIP3    H252303   5.835   0.656  10.610  1.3617 -0.2507  0.7165
 9370TIP3   OH252304   0.038   6.514   9.776  0.0314  0.3657 -0.3448
 9370TIP3    H152305   0.081   6.595   9.801 -0.3357  0.1856  0.9183
 9370TIP3    H252306   0.080   6.446   9.830 -1.6077  0.1503  0.7454
 9371TIP3   OH252307   3.865   6.060   8.306  0.1822 -0.2993  0.0393
 9371TIP3    H152308   3.889   6.151   8.319 -3.2091  0.5374  1.5225
 9371TIP3    H252309   3.802   6.062   8.234 -0.4249 -1.3404  0.5164
 9372TIP3   OH252310   1.919   2.804   8.314 -0.0516 -0.0192 -0.5767
 9372TIP3    H152311   1.836   2.804   8.362 -0.1362 -0.7238 -0.7182
 9372TIP3    H252312   1.982   2.843   8.375 -0.3150 -0.2442 -0.1581
 9373TIP3   OH252313   3.930   1.769   8.087 -0.1641 -0.1275  0.1606
 9373TIP3    H152314   3.979   1.767   8.004 -1.6414  2.1461 -0.8935
 9373TIP3    H252315   3.892   1.682   8.095 -0.4634 -0.2530 -1.9257
 9374TIP3   OH252316   5.401   4.462   8.295 -0.0186  0.1681  0.3612
 9374TIP3    H152317   5.454   4.517   8.352 -1.7425  0.9002  1.3185
 9374TIP3    H252318   5.311   4.494   8.306 -0.9422 -2.0918  0.1129
 9375TIP3   OH252319   5.719   2.803   9.547  0.3247 -0.8255  0.4087
 9375TIP3    H152320   5.632   2.797   9.585  0.0981  0.4624  0.1472
 9375TIP3    H252321   5.747   2.712   9.534 -0.9139 -1.2470  0.6219
 9376TIP3   OH252322   1.449   1.812  11.270  0.5996  0.0762 -0.2636
 9376TIP3    H152323   1.486   1.732  11.233  1.8442  1.2427 -1.6459
 9376TIP3    H252324   1.371   1.830  11.217  0.8609  0.2815 -0.5847
 9377TIP3   OH252325   5.665   2.449  10.674  0.3062 -0.3004  0.1194
 9377TIP3    H152326   5.658   2.354  10.667 -1.0893 -0.2099  0.1923
 9377TIP3    H252327   5.651   2.468  10.767 -0.4521  0.0584 -0.0674
 9378TIP3   OH252328   3.284   2.932  11.275  0.2117 -0.1433  0.4051
 9378TIP3    H152329   3.364   2.907  11.321 -0.5252  0.1137  1.9057
 9378TIP3    H252330   3.219   2.868  11.304  0.0027 -0.7372 -1.2901
 9379TIP3   OH252331   3.702   0.576   9.846  1.0001 -0.1093 -0.0679
 9379TIP3    H152332   3.729   0.599   9.757 -0.5697  1.2946 -0.2196
 9379TIP3    H252333   3.767   0.619   9.902  1.7180 -0.6053 -0.4982
 9380TIP3   OH252334   5.523   3.371   8.115 -0.9459  0.3658  0.0014
 9380TIP3    H152335   5.579   3.436   8.159  0.7579 -1.3752  0.5081
 9380TIP3    H252336   5.514   3.405   8.025  2.3639 -0.0513 -0.6263
 9381TIP3   OH252337   3.321   3.537  10.864 -0.2117  0.2740  0.2837
 9381TIP3    H152338   3.341   3.619  10.820 -1.3631  0.1165 -0.5854
 9381TIP3    H252339   3.371   3.540  10.946  1.9230  0.6282 -0.9506
 9382TIP3   OH252340   2.227   5.544   8.309  0.4729 -0.8436 -0.2742
 9382TIP3    H152341   2.270   5.511   8.388  0.9600  0.7780  0.1919
 9382TIP3    H252342   2.160   5.479   8.289 -0.1380 -0.9697  1.8803
 9383TIP3   OH252343   2.871   4.726   8.339  0.0267 -0.4234  0.0897
 9383TIP3    H152344   2.869   4.818   8.365 -1.2349  0.7611 -3.6354
 9383TIP3    H252345   2.827   4.680   8.411  0.8341  1.7786  2.1258
 9384TIP3   OH252346   3.223   4.334   7.830 -0.4526  0.1190 -0.8244
 9384TIP3    H152347   3.263   4.367   7.750 -0.6749  1.6647 -0.3235
 9384TIP3    H252348   3.297   4.319   7.890 -0.3623 -0.2029 -1.0138
 9385TIP3   OH252349   0.847   3.854  10.753  0.1202  0.5919 -0.6022
 9385TIP3    H152350   0.810   3.903  10.680 -1.6069 -0.8511 -0.7567
 9385TIP3    H252351   0.773   3.836  10.810  1.1349  0.2040  0.6490
 9386TIP3   OH252352   0.903   5.651  10.141  0.7136  0.1602 -1.0208
 9386TIP3    H152353   0.911   5.583  10.074  1.5447 -1.4180  0.5680
 9386TIP3    H252354   0.810   5.673  10.143  0.4302 -0.9133 -1.6110
 9387TIP3   OH252355   1.151   6.435   8.258  0.1633 -0.2260  0.5036
 9387TIP3    H152356   1.145   6.513   8.312  3.3334  2.4997 -2.6123
 9387TIP3    H252357   1.090   6.450   8.186 -1.5135 -2.2410  1.3746
 9388TIP3   OH252358   4.213   0.030  10.775  0.2303  0.6330 -0.0675
 9388TIP3    H152359   4.270   0.105  10.794 -0.0017  0.7435  0.1944
 9388TIP3    H252360   4.148   0.031  10.845  1.5818 -1.2230  1.3116
 9389TIP3   OH252361   5.091   2.937  11.729  0.4089 -0.0563 -0.3798
 9389TIP3    H152362   5.140   2.855  11.716  1.6641  0.8229 -1.6069
 9389TIP3    H252363   4.999   2.912  11.721  0.7652 -1.3785 -0.5470
 9390TIP3   OH252364   6.560   0.795  10.396 -0.1855  0.2327  0.0857
 9390TIP3    H152365   6.643   0.754  10.421 -0.4940  0.3666  1.3881
 9390TIP3    H252366   6.493   0.734  10.427 -0.5992 -0.4392 -1.9552
 9391TIP3   OH252367   6.332   1.564  10.398 -0.1280  0.1542 -0.3573
 9391TIP3    H152368   6.380   1.499  10.346  0.5354  0.1891  0.2066
 9391TIP3    H252369   6.242   1.557  10.366  0.2161 -0.0001 -1.3472
 9392TIP3   OH252370   4.768   2.648   7.972  0.2874  0.1847 -0.2122
 9392TIP3    H152371   4.810   2.678   8.053  0.6220  0.0071 -0.3183
 9392TIP3    H252372   4.825   2.682   7.903  0.2493 -0.0501 -0.3579
 9393TIP3   OH252373   6.496   5.398  10.157  0.1092 -0.0012  0.5790
 9393TIP3    H152374   6.421   5.446  10.191  0.7953  1.3035  0.2869
 9393TIP3    H252375   6.479   5.307  10.182  0.2221  0.7513  3.7953
 9394TIP3   OH252376   2.188   0.368  10.752  0.0974 -0.5003  0.0807
 9394TIP3    H152377   2.221   0.379  10.663 -0.9983 -1.2352 -0.4385
 9394TIP3    H252378   2.251   0.309  10.793  0.7488  0.0436 -0.1172
 9395TIP3   OH252379   4.618   2.037  10.284  0.6042  0.7432  0.3310
 9395TIP3    H152380   4.616   2.132  10.273 -0.3661  0.9210  1.7373
 9395TIP3    H252381   4.622   2.023  10.378 -0.2526 -0.6138  0.2030
 9396TIP3   OH252382   3.596   0.950   8.185 -0.2247 -0.2095  0.1999
 9396TIP3    H152383   3.563   0.916   8.268 -1.6151 -0.5264 -0.4515
 9396TIP3    H252384   3.651   0.880   8.151  0.5833  0.0325  0.9604
 9397TIP3   OH252385   0.655   5.029   9.481  0.0225 -0.2461  0.5571
 9397TIP3    H152386   0.566   5.000   9.501 -0.3585  1.2491  1.2049
 9397TIP3    H252387   0.705   5.010   9.561 -0.1420  0.5097  0.8470
 9398TIP3   OH252388   2.159   0.069  10.715  0.1201  0.2436  0.0942
 9398TIP3    H152389   2.169  -0.018  10.676  1.8759  0.4622 -0.0146
 9398TIP3    H252390   2.115   0.052  10.798 -0.5479 -0.6172 -0.4133
 9399TIP3   OH252391   1.867   3.480   8.649  0.0168 -0.3015  0.4680
 9399TIP3    H152392   1.930   3.530   8.597 -0.1879  0.2647  0.7496
 9399TIP3    H252393   1.806   3.443   8.585  0.9729 -1.3571  0.1441
 9400TIP3   OH252394   3.704   4.154  10.034  0.8401  0.6343  0.3097
 9400TIP3    H152395   3.793   4.135  10.064  0.4963 -1.3692  0.2139
 9400TIP3    H252396   3.657   4.071  10.045 -0.6213  1.2331 -1.0608
 9401TIP3   OH252397   4.548   1.515   9.501 -0.1193  0.0649  0.0609
 9401TIP3    H152398   4.546   1.421   9.522 -0.4910  0.0816  0.1027
 9401TIP3    H252399   4.475   1.552   9.551  0.3419  0.4631  0.4532
 9402TIP3   OH252400   5.667   0.166   9.969 -0.4760 -0.1590  0.2706
 9402TIP3    H152401   5.572   0.163   9.975 -0.5814  2.3654  1.4826
 9402TIP3    H252402   5.690   0.253  10.001  2.2945 -0.8929  0.5610
 9403TIP3   OH252403   6.539   3.230   9.537 -0.7204  0.9176 -0.6250
 9403TIP3    H152404   6.549   3.312   9.586 -1.0116  1.3838 -1.3255
 9403TIP3    H252405   6.616   3.225   9.481 -0.9222  0.9455 -0.9104
 9404TIP3   OH252406   1.439   0.503   8.062 -0.1421  0.0686  0.5465
 9404TIP3    H152407   1.483   0.470   8.141  0.5232 -0.8786 -0.1981
 9404TIP3    H252408   1.510   0.528   8.003 -0.6113 -0.3871 -0.2306
 9405TIP3   OH252409   0.440   2.398   7.711  0.1189  0.1395 -0.0812
 9405TIP3    H152410   0.465   2.486   7.741 -1.9319  1.6055 -2.2819
 9405TIP3    H252411   0.523   2.353   7.696  1.2464  1.7929  0.8318
 9406TIP3   OH252412   0.756   3.625   8.065  0.2112  0.4638  0.0375
 9406TIP3    H152413   0.782   3.546   8.016 -0.4635  0.1582  0.1515
 9406TIP3    H252414   0.830   3.643   8.122 -0.0066 -0.6721  0.7195
 9407TIP3   OH252415   1.604   2.499   7.986  0.5048 -0.0427 -0.6715
 9407TIP3    H152416   1.620   2.470   8.076  1.9479 -0.3213 -0.9888
 9407TIP3    H252417   1.691   2.505   7.947 -0.1416 -0.8298 -2.3384
 9408TIP3   OH252418   3.903   5.202   9.080  0.2175  0.1454 -0.2602
 9408TIP3    H152419   3.946   5.286   9.092  1.6162  0.0373 -3.5472
 9408TIP3    H252420   3.839   5.217   9.011 -0.7039 -1.1649  0.2470
 9409TIP3   OH252421   4.425   3.554  10.194  0.0125 -0.0985 -0.1323
 9409TIP3    H152422   4.520   3.549  10.177 -0.2026  2.7613 -3.3872
 9409TIP3    H252423   4.416   3.627  10.255 -0.1232 -0.4762  0.3055
 9410TIP3   OH252424   6.578   4.381  10.174  0.0367  0.5561 -0.0118
 9410TIP3    H152425   6.635   4.305  10.170 -0.1087  0.1950  2.7973
 9410TIP3    H252426   6.635   4.455  10.151  0.4929 -0.2216 -1.4854
 9411TIP3   OH252427   0.519   2.026  11.263  0.1140 -0.2083  0.4377
 9411TIP3    H152428   0.556   2.109  11.232 -0.7754 -0.2454 -0.7776
 9411TIP3    H252429   0.571   1.959  11.218 -0.6013 -0.2707 -0.3222
 9412TIP3   OH252430   2.608   3.636   8.515  0.4262  0.2778  0.3933
 9412TIP3    H152431   2.544   3.566   8.526  3.8968 -3.0670  1.6699
 9412TIP3    H252432   2.655   3.612   8.435  0.9730  1.8057  0.2367
 9413TIP3   OH252433   0.687   5.936  10.021  0.2737  0.3888  0.2128
 9413TIP3    H152434   0.667   5.856  10.069  2.2237 -1.1054 -1.2829
 9413TIP3    H252435   0.625   5.936   9.948  0.9182 -0.3875 -0.3685
 9414TIP3   OH252436   2.768   4.554   9.670 -0.1407  0.2876  0.1738
 9414TIP3    H152437   2.799   4.517   9.588  0.0246  0.7743  0.0124
 9414TIP3    H252438   2.845   4.552   9.728 -0.5426 -1.1053  0.7027
 9415TIP3   OH252439   6.065   2.133   9.184 -0.3197  0.5368  0.2907
 9415TIP3    H152440   5.983   2.084   9.180  0.0333  0.0035 -0.4900
 9415TIP3    H252441   6.081   2.144   9.277 -0.5508 -0.5756  0.4723
 9416TIP3   OH252442   5.123   1.572  10.862  0.6120 -0.4873 -0.2939
 9416TIP3    H152443   5.053   1.634  10.842  1.2383 -0.0669 -1.2262
 9416TIP3    H252444   5.089   1.488  10.831  0.1432 -0.4525  0.1186
 9417TIP3   OH252445   0.107   3.528  10.956  0.1609 -0.1503 -0.6688
 9417TIP3    H152446   0.083   3.598  10.895  1.4187 -0.8499 -2.0246
 9417TIP3    H252447   0.026   3.509  11.004 -0.7603  0.6934 -1.8320
 9418TIP3   OH252448   4.603   0.585   8.493 -1.0553 -0.2952 -0.2323
 9418TIP3    H152449   4.614   0.550   8.581 -1.7766  0.0023 -0.0122
 9418TIP3    H252450   4.525   0.640   8.499 -1.0908 -0.2408 -1.0479
 9419TIP3   OH252451   0.806   5.558   8.560  0.3035 -0.0384  0.1790
 9419TIP3    H152452   0.880   5.497   8.556  2.5749  2.5000  1.0327
 9419TIP3    H252453   0.798   5.580   8.653  0.3082  1.8278 -0.2393
 9420TIP3   OH252454   5.340   0.975   9.686 -0.1840  0.4104  0.1164
 9420TIP3    H152455   5.366   0.903   9.629 -0.4727 -1.0682  1.7665
 9420TIP3    H252456   5.415   0.989   9.743  0.0140  1.7218 -0.4229
 9421TIP3   OH252457   1.137   0.114  10.842 -0.3525 -0.0287  0.4651
 9421TIP3    H152458   1.057   0.153  10.805  0.1948 -0.4279 -1.1900
 9421TIP3    H252459   1.109   0.028  10.874 -0.1717 -1.2042 -2.2840
 9422TIP3   OH252460   6.656   3.005  10.875 -0.2463 -0.2499 -0.0553
 9422TIP3    H152461   6.579   3.004  10.932 -0.5008 -1.2485 -0.3880
 9422TIP3    H252462   6.661   3.095  10.842 -1.8148 -0.3758 -0.7302
 9423TIP3   OH252463   6.045   0.898  10.055  0.4771  0.2101 -0.1476
 9423TIP3    H152464   6.076   0.814  10.022 -2.7957 -1.6985  1.1320
 9423TIP3    H252465   6.035   0.883  10.149  1.4461  2.6904  0.4198
 9424TIP3   OH252466   2.215   1.782   8.681  0.1262  0.3254  0.3115
 9424TIP3    H152467   2.291   1.837   8.664 -0.3481  1.5895  2.0398
 9424TIP3    H252468   2.167   1.781   8.598  0.9023  1.2939 -0.1703
 9425TIP3   OH252469   3.440   5.944   8.559 -0.1297 -0.0009  0.1579
 9425TIP3    H152470   3.420   5.941   8.465 -4.5046  0.6827  0.8704
 9425TIP3    H252471   3.405   5.862   8.594  0.6812  0.1303  1.3402
 9426TIP3   OH252472   5.342   4.866  10.000 -0.3662  0.0441 -0.5060
 9426TIP3    H152473   5.414   4.897  10.055  1.5256 -0.4581 -2.5190
 9426TIP3    H252474   5.360   4.905   9.914 -2.5645 -0.0783 -1.0764
 9427TIP3   OH252475   2.822   2.220   9.835 -0.2598  0.3158  0.9357
 9427TIP3    H152476   2.733   2.219   9.869 -0.7724 -0.1448 -0.3509
 9427TIP3    H252477   2.835   2.311   9.806 -0.1610  0.4799  1.4909
 9428TIP3   OH252478   4.424   0.072   9.553  0.3840 -0.4500  0.5464
 9428TIP3    H152479   4.330   0.053   9.561 -0.0735  0.3079 -2.1074
 9428TIP3    H252480   4.464  -0.012   9.533  0.1480 -0.6388  0.8567
 9429TIP3   OH252481   2.251   6.278  10.273 -0.5834  0.4621  0.2680
 9429TIP3    H152482   2.191   6.212  10.237  0.0555  0.0501 -0.0697
 9429TIP3    H252483   2.222   6.361  10.235 -2.6796  0.7427  2.2641
 9430TIP3   OH252484   3.572   6.464  10.062 -0.2696  0.4671 -0.1870
 9430TIP3    H152485   3.652   6.468  10.010 -1.2224  0.7585 -1.6822
 9430TIP3    H252486   3.594   6.513  10.142  0.8813  0.9550 -0.7714
 9431TIP3   OH252487   4.412   3.014   8.734  0.3187 -0.1138  0.0864
 9431TIP3    H152488   4.402   2.955   8.660  1.3210  0.9041 -0.9053
 9431TIP3    H252489   4.470   3.084   8.702 -0.2109  1.0063  1.4444
 9432TIP3   OH252490   6.403   1.777  10.573 -0.0125 -0.1149  0.2873
 9432TIP3    H152491   6.328   1.836  10.582 -2.1689 -2.8403  1.6894
 9432TIP3    H252492   6.366   1.697  10.536  2.2006 -1.5588  1.0181
 9433TIP3   OH252493   1.978   3.080  10.292 -0.1225 -0.0263  0.4971
 9433TIP3    H152494   1.907   3.144  10.293 -1.4296 -1.4154  1.5744
 9433TIP3    H252495   1.959   3.025  10.216  0.3124  0.1317  0.2735
 9434TIP3   OH252496   6.734   3.578   8.740  0.4724 -0.2009  0.3883
 9434TIP3    H152497   6.653   3.604   8.783  0.0766 -0.0421 -0.4373
 9434TIP3    H252498   6.798   3.644   8.766 -0.2361  0.9799 -0.7659
 9435TIP3   OH252499   4.023   2.132  11.690  0.0834 -0.5198  0.6853
 9435TIP3    H152500   3.942   2.141  11.740  0.5913  3.4213  1.1243
 9435TIP3    H252501   4.092   2.122  11.757  0.5905  3.2126  0.9034
 9436TIP3   OH252502   2.380   0.807  10.628 -0.2226  0.2469 -0.1722
 9436TIP3    H152503   2.293   0.841  10.608  0.2542  2.3072  0.8985
 9436TIP3    H252504   2.439   0.880  10.610  1.3160 -1.1256 -0.9390
 9437TIP3   OH252505   1.904   5.965   9.695  0.0228  0.2212 -0.1241
 9437TIP3    H152506   1.966   5.891   9.698 -0.4626 -0.1537  2.4622
 9437TIP3    H252507   1.926   6.018   9.772 -0.1697  2.4131 -1.4916
 9438TIP3   OH252508   3.528   5.472  11.259 -0.0474  0.7940  0.7114
 9438TIP3    H152509   3.449   5.422  11.281 -1.4125  0.1812 -4.2068
 9438TIP3    H252510   3.498   5.563  11.257 -1.1783  0.4874 -2.1166
 9439TIP3   OH252511   2.866   5.158   8.035 -1.0334 -0.1221  0.2135
 9439TIP3    H152512   2.810   5.197   8.102 -1.0545  1.6310 -0.7959
 9439TIP3    H252513   2.940   5.121   8.085 -1.1010  1.0454  1.2197
 9440TIP3   OH252514   5.319   1.595   9.040 -0.2316  0.2350  0.1760
 9440TIP3    H152515   5.397   1.617   9.091 -1.0333  0.2420  1.4456
 9440TIP3    H252516   5.344   1.614   8.949  0.8620  1.3105  0.6682
 9441TIP3   OH252517   1.120   5.606   8.267 -0.3174 -0.6549 -0.2070
 9441TIP3    H152518   1.047   5.544   8.263 -1.5383  0.7958 -0.9055
 9441TIP3    H252519   1.169   5.579   8.345 -1.4894 -1.7390  0.1921
 9442TIP3   OH252520   3.975   2.634   9.700 -0.2493 -0.3168  0.4490
 9442TIP3    H152521   4.008   2.723   9.716 -0.6561  0.1270 -0.9947
 9442TIP3    H252522   4.046   2.577   9.728  0.5630  0.5169  0.1385
 9443TIP3   OH252523   4.885   4.575   8.279  0.3656  0.4466 -0.2435
 9443TIP3    H152524   4.915   4.531   8.199  0.0539  0.6692 -0.4836
 9443TIP3    H252525   4.819   4.638   8.249 -0.7407 -0.4016  0.3363
 9444TIP3   OH252526   1.194   3.409   8.335 -0.4713  0.8846  0.1650
 9444TIP3    H152527   1.215   3.400   8.428  1.1317  0.9169 -0.1577
 9444TIP3    H252528   1.207   3.322   8.298  1.0170  1.3095 -0.3878
 9445TIP3   OH252529   3.033   5.633   8.915  0.7502 -0.2792  0.0134
 9445TIP3    H152530   2.999   5.681   8.839  1.3945  0.2732  0.0633
 9445TIP3    H252531   3.030   5.697   8.987 -0.0466 -0.8591  0.5162
 9446TIP3   OH252532   2.531   3.518   9.330 -0.7866 -0.4266  0.6375
 9446TIP3    H152533   2.542   3.540   9.238 -0.4807 -0.2293  0.7206
 9446TIP3    H252534   2.510   3.601   9.373 -1.2428 -0.5698  0.6982
 9447TIP3   OH252535   4.298   3.899   9.317  0.5642 -0.8578 -0.2839
 9447TIP3    H152536   4.210   3.869   9.336  0.6500 -0.8513  0.1199
 9447TIP3    H252537   4.348   3.882   9.397  0.1146  2.4990  0.8701
 9448TIP3   OH252538   1.091   2.524   9.948 -0.1115 -0.1421  0.4472
 9448TIP3    H152539   1.094   2.598  10.009  1.5674 -1.0549  1.5416
 9448TIP3    H252540   1.165   2.538   9.890  2.3803 -2.5608  2.7410
 9449TIP3   OH252541   3.529   1.503   8.097  0.0867 -0.2071 -0.4424
 9449TIP3    H152542   3.465   1.571   8.081  0.3596 -0.4559 -3.1027
 9449TIP3    H252543   3.478   1.422   8.100  0.0990 -0.2374 -0.9373
 9450TIP3   OH252544   0.315   4.137   8.299 -0.2143  0.6884  0.4490
 9450TIP3    H152545   0.363   4.077   8.356  0.9706  0.8166 -0.3702
 9450TIP3    H252546   0.356   4.127   8.213 -3.2953 -1.0702 -0.9790
 9451TIP3   OH252547   6.411   3.034   9.957  0.5740  0.4334  0.1415
 9451TIP3    H152548   6.477   3.077  10.010 -0.3508  2.8892 -0.5854
 9451TIP3    H252549   6.431   3.058   9.867 -1.0325  0.8796 -0.1329
 9452TIP3   OH252550   6.570   6.065   8.721  0.4124 -0.0207 -0.5274
 9452TIP3    H152551   6.598   6.049   8.811  0.0263  0.8848 -0.2360
 9452TIP3    H252552   6.620   6.141   8.693  1.4719 -1.0565 -1.5392
 9453TIP3   OH252553   5.153   2.857   8.477  0.0338 -0.3742 -0.4184
 9453TIP3    H152554   5.171   2.865   8.570  0.0551 -2.6367 -0.1600
 9453TIP3    H252555   5.195   2.934   8.437  3.4571 -1.2840  1.0373
 9454TIP3   OH252556   3.033   1.480  11.093  0.2385  0.5071  0.5547
 9454TIP3    H152557   2.971   1.453  11.026  1.1625 -2.4859  0.7793
 9454TIP3    H252558   2.991   1.555  11.135 -2.4961 -0.4176 -0.3163
 9455TIP3   OH252559   2.272   1.968   8.163  0.6197  0.0628  0.4160
 9455TIP3    H152560   2.272   1.874   8.180  2.5987 -0.0846 -0.0724
 9455TIP3    H252561   2.285   2.008   8.249 -0.0789 -0.1073  0.6050
 9456TIP3   OH252562   1.959   5.149  10.193  0.0705  0.1337 -0.3977
 9456TIP3    H152563   1.883   5.178  10.243  1.1762 -0.3678  1.6728
 9456TIP3    H252564   1.999   5.229  10.160 -0.2213  0.5342  0.2145
 9457TIP3   OH252565   4.314   5.301  10.763  0.2119 -0.4537  0.0117
 9457TIP3    H152566   4.240   5.240  10.755 -0.4231  0.4013 -0.9696
 9457TIP3    H252567   4.299   5.365  10.693  2.3591 -0.7377 -0.7592
 9458TIP3   OH252568   1.187   2.721   8.448  0.2556 -0.1550  0.0682
 9458TIP3    H152569   1.102   2.755   8.420 -0.1282 -0.5577  0.7270
 9458TIP3    H252570   1.251   2.774   8.400 -0.3381  1.1106  0.6549
 9459TIP3   OH252571   5.741   2.072   9.646  0.0016  0.1144 -0.9173
 9459TIP3    H152572   5.753   1.987   9.688 -1.9742 -0.2226 -0.9051
 9459TIP3    H252573   5.826   2.114   9.650  0.4941 -0.9729  1.0713
 9460TIP3   OH252574   2.312   3.607   9.584  0.0956 -0.1803  0.3404
 9460TIP3    H152575   2.364   3.686   9.571  0.7487 -0.6695 -0.1048
 9460TIP3    H252576   2.238   3.617   9.524  1.3115 -0.8707 -1.3425
 9461TIP3   OH252577   5.722   3.451   9.968  0.3141 -0.2444 -0.2068
 9461TIP3    H152578   5.687   3.509  10.036  1.5862  0.4751 -0.1358
 9461TIP3    H252579   5.682   3.366   9.986 -1.2014  0.4796 -0.0090
 9462TIP3   OH252580   0.511   0.440  10.532 -0.0766  0.1894  0.3139
 9462TIP3    H152581   0.470   0.401  10.609  1.5230 -1.4924  0.3828
 9462TIP3    H252582   0.592   0.480  10.566  0.1576  0.2941 -0.3418
 9463TIP3   OH252583   0.657   5.210   8.369 -0.1946 -0.1617  0.2694
 9463TIP3    H152584   0.578   5.243   8.325 -0.5908 -0.2305  0.9195
 9463TIP3    H252585   0.624   5.145   8.431  0.6401 -2.8752 -1.8931
 9464TIP3   OH252586   3.033   1.123   8.471 -0.3323 -0.4905  0.2935
 9464TIP3    H152587   3.092   1.052   8.447 -0.3697 -0.5564  0.3978
 9464TIP3    H252588   2.971   1.129   8.398  1.6872  1.6857 -1.4357
 9465TIP3   OH252589   5.654   1.378   8.905  0.5323  0.1654  0.1892
 9465TIP3    H152590   5.694   1.291   8.909 -0.4413 -0.2662  1.0305
 9465TIP3    H252591   5.708   1.427   8.843  2.2756 -0.4317  1.1784
 9466TIP3   OH252592   4.507   0.152   8.256 -0.3826 -0.3097  0.1046
 9466TIP3    H152593   4.571   0.192   8.314 -1.5501  1.4941  0.2223
 9466TIP3    H252594   4.433   0.212   8.257 -1.5501 -1.6613 -1.0671
 9467TIP3   OH252595   4.976   2.593  10.864 -0.3459  0.3382  0.0412
 9467TIP3    H152596   4.990   2.518  10.922  0.8474  0.6163  0.1366
 9467TIP3    H252597   4.881   2.597  10.852 -0.4049 -1.5495 -0.4396
 9468TIP3   OH252598   0.748   0.765   8.877 -0.1662 -0.5261  0.2943
 9468TIP3    H152599   0.727   0.856   8.896 -0.0773 -0.4940  0.2426
 9468TIP3    H252600   0.752   0.723   8.963 -1.3069 -0.7326  0.2566
 9469TIP3   OH252601   4.181   4.859  10.498  0.6300  0.3582  0.2802
 9469TIP3    H152602   4.122   4.846  10.573 -2.1256 -0.3562 -1.8131
 9469TIP3    H252603   4.129   4.831  10.422  3.3096  0.8842 -1.9171
 9470TIP3   OH252604   3.645   5.152  10.868 -0.2411  0.0604 -0.5279
 9470TIP3    H152605   3.571   5.203  10.898  0.1967  0.0531  0.5912
 9470TIP3    H252606   3.713   5.165  10.934  0.2152 -1.1811 -0.7176
 9471TIP3   OH252607   0.409   5.462  10.096  0.3492 -0.5043  0.4883
 9471TIP3    H152608   0.395   5.423  10.010  0.5920 -1.4371  0.8598
 9471TIP3    H252609   0.364   5.547  10.091 -2.8980 -2.0450  0.6353
 9472TIP3   OH252610   1.355   2.466   9.407  0.4534 -0.1270  0.2900
 9472TIP3    H152611   1.379   2.538   9.348 -0.2251 -1.2937 -1.4885
 9472TIP3    H252612   1.270   2.491   9.442  0.4736  0.1886  0.1169
 9473TIP3   OH252613   5.078   1.334  10.276 -0.5908  0.4414  0.3491
 9473TIP3    H152614   5.157   1.301  10.234 -0.2496  0.6559  0.8270
 9473TIP3    H252615   5.011   1.268  10.256 -1.0722  1.6261 -2.5929
 9474TIP3   OH252616   4.190   3.961   9.931  0.0473 -0.3587  0.1358
 9474TIP3    H152617   4.108   4.003   9.958 -0.3307 -0.4496 -0.8076
 9474TIP3    H252618   4.169   3.868   9.923  0.1156 -0.3248 -0.5273
 9475TIP3   OH252619   0.658   3.357   9.069  0.1787  0.1312 -0.0748
 9475TIP3    H152620   0.608   3.317   9.140 -0.2570 -0.8836 -0.9214
 9475TIP3    H252621   0.719   3.416   9.112  1.2232 -1.8383  1.2882
 9476TIP3   OH252622   0.391   3.217  10.576  0.3303 -0.0301  0.8481
 9476TIP3    H152623   0.311   3.223  10.524  0.6104 -0.0892  0.4003
 9476TIP3    H252624   0.401   3.304  10.616  0.6382  0.3384  0.0020
 9477TIP3   OH252625   2.411   6.469   9.359 -0.0420 -0.0052  0.7993
 9477TIP3    H152626   2.458   6.487   9.440 -2.0681  0.3490  1.9588
 9477TIP3    H252627   2.448   6.387   9.327  1.8020  0.6067  1.2652
 9478TIP3   OH252628   3.105   1.888   8.240 -0.3965 -0.0398  0.2664
 9478TIP3    H152629   3.034   1.939   8.201  0.3815  0.9125  0.0517
 9478TIP3    H252630   3.098   1.905   8.334 -1.0464 -0.7392  0.3537
 9479TIP3   OH252631   4.078   5.612  11.487 -0.3441  0.1849  0.0965
 9479TIP3    H152632   4.080   5.659  11.571  0.3394  2.2448 -1.0010
 9479TIP3    H252633   4.167   5.620  11.453 -0.8265  0.1665 -1.2276
 9480TIP3   OH252634   1.231   0.100   8.546 -0.2936 -0.1721 -0.0077
 9480TIP3    H152635   1.154   0.133   8.593 -1.7928  0.1376 -2.5145
 9480TIP3    H252636   1.304   0.144   8.588 -1.3395 -0.9053  2.8546
 9481TIP3   OH252637   6.104   4.470   8.203  0.1472  0.5175 -0.1272
 9481TIP3    H152638   6.093   4.407   8.132  0.0271  0.2468  0.1269
 9481TIP3    H252639   6.193   4.503   8.193  0.6336 -0.5541  0.4142
 9482TIP3   OH252640   2.349   1.890  10.087 -0.4648  0.0346 -0.4345
 9482TIP3    H152641   2.435   1.931  10.084 -0.8254  0.8016 -0.6772
 9482TIP3    H252642   2.294   1.946  10.032 -1.5479  0.5830  1.1265
 9483TIP3   OH252643   3.616   1.815  10.304 -0.7351  0.1052 -0.3907
 9483TIP3    H152644   3.531   1.773  10.315 -0.4441 -0.9993 -1.9698
 9483TIP3    H252645   3.666   1.789  10.381 -1.2611 -0.7178 -0.3184
 9484TIP3   OH252646   1.239   4.525   9.036  0.1818  0.1494  0.4975
 9484TIP3    H152647   1.267   4.608   9.075  0.9406  0.9307 -1.5445
 9484TIP3    H252648   1.151   4.511   9.069 -0.1749  2.0594  0.4740
 9485TIP3   OH252649   3.851   3.534   9.804 -0.0822  0.9661  0.3097
 9485TIP3    H152650   3.910   3.462   9.826  0.4936  0.9074 -1.3138
 9485TIP3    H252651   3.763   3.496   9.812  0.0339  1.0263  2.6410
 9486TIP3   OH252652   6.128   2.134  10.151 -0.3861  0.1453  0.2996
 9486TIP3    H152653   6.074   2.211  10.170 -0.6701  0.2104 -0.7253
 9486TIP3    H252654   6.070   2.073  10.107 -0.2035 -0.7500  1.2592
 9487TIP3   OH252655   5.320   3.406  11.334  0.4081  0.0611 -0.0085
 9487TIP3    H152656   5.399   3.459  11.333 -0.2839  1.1524 -1.4775
 9487TIP3    H252657   5.254   3.460  11.289 -1.1439 -0.8479  1.0716
 9488TIP3   OH252658   5.733   0.741   8.660 -0.1252  0.5019 -0.6519
 9488TIP3    H152659   5.787   0.719   8.736  1.3786 -0.1995 -1.8516
 9488TIP3    H252660   5.794   0.784   8.600 -0.2080 -2.4070 -3.0373
 9489TIP3   OH252661   5.782   5.180   8.720 -0.3665  0.2718  0.0658
 9489TIP3    H152662   5.717   5.200   8.653 -2.6797  0.0597  2.1021
 9489TIP3    H252663   5.795   5.263   8.766 -1.5849 -0.3253  1.5744
 9490TIP3   OH252664   5.877   5.943   9.226  1.1539  0.3956 -0.3328
 9490TIP3    H152665   5.901   6.008   9.159 -0.5799  1.2175 -0.2113
 9490TIP3    H252666   5.854   5.865   9.176  0.4679  0.8107 -0.6824
 9491TIP3   OH252667   6.726   0.790  10.155  0.2056  0.5208  0.0784
 9491TIP3    H152668   6.692   0.850  10.089  0.7544 -0.0440 -0.7415
 9491TIP3    H252669   6.671   0.803  10.232 -2.4747 -1.0109 -1.4467
 9492TIP3   OH252670   3.061   0.616   8.429 -0.4738  0.2356 -0.0121
 9492TIP3    H152671   3.111   0.545   8.470  0.5712 -0.2137 -1.9179
 9492TIP3    H252672   3.078   0.605   8.335 -1.8877  1.8345 -0.4935
 9493TIP3   OH252673   0.736   3.964   9.680 -0.1923  0.7591 -0.3493
 9493TIP3    H152674   0.775   3.952   9.766  0.3816 -0.5445 -0.7718
 9493TIP3    H252675   0.712   3.876   9.652  0.7315  0.9956 -2.0195
 9494TIP3   OH252676   4.605   1.816   9.513 -0.1604 -0.3339  0.2446
 9494TIP3    H152677   4.610   1.784   9.603 -0.7914  0.0766  0.4329
 9494TIP3    H252678   4.537   1.883   9.515  1.1419  1.0693 -0.1270
 9495TIP3   OH252679   0.468   0.859   9.997  0.3423 -0.1968  0.4671
 9495TIP3    H152680   0.409   0.809  10.053 -0.6267  0.7437  0.3174
 9495TIP3    H252681   0.463   0.948  10.031  2.4831 -0.2729  1.0984
 9496TIP3   OH252682   5.416   4.338   9.683  0.2785  0.0646  0.0837
 9496TIP3    H152683   5.489   4.287   9.649 -0.5064 -0.1627 -1.3784
 9496TIP3    H252684   5.338   4.286   9.660 -0.3975  0.7280  0.7954
 9497TIP3   OH252685   5.577   1.116   8.026 -0.5752 -0.4136  0.5826
 9497TIP3    H152686   5.591   1.025   7.998 -1.3800 -0.4815  0.3724
 9497TIP3    H252687   5.488   1.137   7.996 -0.6006  0.2620  1.1081
 9498TIP3   OH252688   0.760   0.300   8.109  0.1219 -0.3385  0.1620
 9498TIP3    H152689   0.724   0.372   8.160 -2.3984 -0.9376 -0.6162
 9498TIP3    H252690   0.686   0.240   8.096  1.6856 -2.2088 -0.7008
 9499TIP3   OH252691   4.899   5.235   9.063  0.0053  0.0678  0.5068
 9499TIP3    H152692   4.929   5.164   9.007  0.6787  1.0048 -0.3608
 9499TIP3    H252693   4.896   5.312   9.006 -0.8865  0.7087  1.3673
 9500TIP3   OH252694   3.983   2.703   8.601  0.0308 -0.0516  0.0094
 9500TIP3    H152695   3.943   2.616   8.604 -0.7222  0.2079 -1.3598
 9500TIP3    H252696   4.047   2.698   8.530  0.1410  0.4487  0.0669
 9501TIP3   OH252697   6.208   5.338   9.141  0.2374  0.6252 -0.0276
 9501TIP3    H152698   6.163   5.414   9.178 -0.5682  0.7374 -1.2106
 9501TIP3    H252699   6.212   5.275   9.214  0.8020  1.7244  0.9278
 9502TIP3   OH252700   4.423   0.025  10.431 -0.3562 -0.2732  0.5528
 9502TIP3    H152701   4.342  -0.025  10.442 -0.6629 -0.1160 -0.7730
 9502TIP3    H252702   4.394   0.112  10.404  0.2553 -0.4731 -0.8373
 9503TIP3   OH252703   5.527   0.791   9.228  0.0512 -0.3222 -0.7260
 9503TIP3    H152704   5.570   0.780   9.313 -0.6973 -0.2220 -0.3178
 9503TIP3    H252705   5.567   0.725   9.172  1.6901  0.6443 -0.7608
 9504TIP3   OH252706   2.053   5.041   9.407 -0.1285 -0.2508  0.4482
 9504TIP3    H152707   2.037   5.070   9.318 -0.0730 -1.0977  0.1468
 9504TIP3    H252708   2.060   5.121   9.459 -1.9459  0.2337  0.0111
 9505TIP3   OH252709   5.145   5.189  10.149  0.5716 -0.1329 -0.7439
 9505TIP3    H152710   5.199   5.210  10.074 -0.4673 -3.5626 -2.6914
 9505TIP3    H252711   5.057   5.216  10.124  0.1680 -1.5519 -0.9877
 9506TIP3   OH252712   4.166   6.724  10.057  0.3686  0.7665 -0.7466
 9506TIP3    H152713   4.155   6.815  10.028  2.5596  1.3655  0.1215
 9506TIP3    H252714   4.222   6.684   9.992 -1.1875 -0.2414 -1.5285
 9507TIP3   OH252715   4.013   2.685  10.297  0.3143  0.6873 -0.3853
 9507TIP3    H152716   3.929   2.639  10.306  0.6051 -0.0440 -1.3244
 9507TIP3    H252717   3.995   2.773  10.330 -0.2591 -0.0530  1.4301
 9508TIP3   OH252718   2.885   5.845   8.789 -0.3005  0.3496  0.3654
 9508TIP3    H152719   2.941   5.923   8.789 -0.6173  0.5861  1.0722
 9508TIP3    H252720   2.838   5.849   8.873 -1.9009  0.5402 -0.5039
 9509TIP3   OH252721   4.557   2.733   9.045  0.1330  0.0911  0.5878
 9509TIP3    H152722   4.484   2.791   9.065  0.2845  0.1309  1.0458
 9509TIP3    H252723   4.594   2.768   8.964 -2.0746 -1.5750 -1.2803
 9510TIP3   OH252724   2.677   0.103   9.232  0.1068  0.4357 -0.3439
 9510TIP3    H152725   2.693   0.036   9.166  0.1277  0.8605 -0.7802
 9510TIP3    H252726   2.722   0.072   9.311 -0.0213 -0.1359 -0.4943
 9511TIP3   OH252727   0.999   5.200   7.812  0.1823  0.0555 -0.2383
 9511TIP3    H152728   0.955   5.283   7.829  1.1098  0.5083 -0.0014
 9511TIP3    H252729   1.077   5.224   7.761  1.1204 -0.5161  0.8912
 9512TIP3   OH252730   2.423   0.534  10.597  0.1378 -0.0671 -0.7416
 9512TIP3    H152731   2.365   0.503  10.528  0.2652 -1.6659 -0.1724
 9512TIP3    H252732   2.396   0.624  10.613 -2.0381 -0.6837 -0.6530
 9513TIP3   OH252733   1.162   4.725  10.516 -0.2341  0.2591 -0.0238
 9513TIP3    H152734   1.200   4.717  10.428  0.0559  0.3572  0.0917
 9513TIP3    H252735   1.237   4.743  10.573 -0.2537 -1.0351  0.4313
 9514TIP3   OH252736   1.377   3.028   9.184  0.5644 -0.3450 -0.5802
 9514TIP3    H152737   1.462   3.041   9.143  1.4649  1.5342  1.6469
 9514TIP3    H252738   1.314   3.051   9.116  1.9962  3.6904 -0.7853
 9515TIP3   OH252739   2.271   4.791   7.940 -0.0100 -0.1701  0.0741
 9515TIP3    H152740   2.191   4.808   7.890  0.4058 -0.1347 -0.5880
 9515TIP3    H252741   2.342   4.817   7.881  0.4639  0.6134  0.9764
 9516TIP3   OH252742   2.657   0.562   8.986 -0.2755 -0.8710  0.6252
 9516TIP3    H152743   2.566   0.592   8.985 -0.4244 -1.3147  0.5831
 9516TIP3    H252744   2.651   0.467   8.996  0.1908 -0.8774  0.8640
 9517TIP3   OH252745   1.571   0.122  10.791 -0.0452 -0.5900  0.5424
 9517TIP3    H152746   1.614   0.146  10.873  0.7275 -0.9068  0.2426
 9517TIP3    H252747   1.552   0.206  10.748 -0.9392 -0.4069  1.2791
 9518TIP3   OH252748   6.375   0.296   7.826 -0.1243 -0.4735  0.2885
 9518TIP3    H152749   6.306   0.231   7.839 -0.2059 -0.7375 -1.2367
 9518TIP3    H252750   6.454   0.256   7.864 -0.5296 -0.7159  0.8891
 9519TIP3   OH252751   3.433   3.519  10.522 -0.6393 -0.1107 -0.4077
 9519TIP3    H152752   3.339   3.529  10.536 -0.5801  0.1010 -0.1436
 9519TIP3    H252753   3.465   3.608  10.508 -0.4796 -0.1837 -0.5213
 9520TIP3   OH252754   0.707   5.837   9.232  0.1625 -0.2645  0.7875
 9520TIP3    H152755   0.616   5.855   9.254  0.6834  3.2921  0.6922
 9520TIP3    H252756   0.707   5.832   9.136  0.1330  0.6357  0.7253
 9521TIP3   OH252757   1.291   4.186  10.224 -0.1273  0.0423  0.4494
 9521TIP3    H152758   1.380   4.163  10.251  0.0559  0.8978  0.6213
 9521TIP3    H252759   1.299   4.201  10.129 -0.4495 -1.4767  0.1549
 9522TIP3   OH252760   6.233   0.079  10.137  0.0023 -0.4786  0.3074
 9522TIP3    H152761   6.152   0.108  10.178 -0.8883 -1.3428 -0.7895
 9522TIP3    H252762   6.302   0.124  10.186 -1.0005 -1.3381  2.6476
 9523TIP3   OH252763   6.341   6.425   8.308 -0.5343 -0.3193 -0.2097
 9523TIP3    H152764   6.435   6.411   8.317 -0.7092 -1.8526 -0.5826
 9523TIP3    H252765   6.301   6.363   8.369 -1.3436 -0.7791 -1.1812
 9524TIP3   OH252766   4.882   4.515   9.320 -0.7205 -0.6126  0.4499
 9524TIP3    H152767   4.968   4.501   9.280 -1.5371 -0.1806 -1.5779
 9524TIP3    H252768   4.896   4.588   9.381  0.5756 -1.3183  1.0480
 9525TIP3   OH252769   0.314   6.276  10.165 -0.5510 -0.3029  0.0273
 9525TIP3    H152770   0.381   6.342  10.180 -0.8598 -0.2129  1.0286
 9525TIP3    H252771   0.362   6.193  10.162 -0.2629 -0.1261 -0.4332
 9526TIP3   OH252772   2.711   1.535  10.331  0.5194  0.3647  0.3309
 9526TIP3    H152773   2.636   1.480  10.351  0.5202  0.4382  0.5373
 9526TIP3    H252774   2.725   1.587  10.410  0.9431  0.1729  0.3882
 9527TIP3   OH252775   0.160   3.777   8.183 -0.1407 -0.1382 -0.1567
 9527TIP3    H152776   0.122   3.691   8.165 -0.6967 -0.4355  2.1736
 9527TIP3    H252777   0.241   3.758   8.230  0.1865  0.6200 -0.3931
 9528TIP3   OH252778   6.282   2.623   9.837 -0.5271  0.1716  0.0082
 9528TIP3    H152779   6.301   2.630   9.930  0.6671 -0.2540 -0.1858
 9528TIP3    H252780   6.357   2.577   9.800 -1.8999 -1.4892 -0.8612
 9529TIP3   OH252781   5.096   2.716   8.951 -0.8071 -0.2709 -0.0415
 9529TIP3    H152782   5.042   2.638   8.962 -0.6810 -0.2617  0.7089
 9529TIP3    H252783   5.061   2.778   9.015  0.6449 -0.5764  1.0977
 9530TIP3   OH252784   3.804   5.265   9.602  0.4735 -0.2162 -0.3623
 9530TIP3    H152785   3.864   5.338   9.620  1.3812 -0.7417 -1.1693
 9530TIP3    H252786   3.785   5.228   9.689  1.5715 -0.2248 -0.1125
 9531TIP3   OH252787   0.928   6.086   9.135  0.3441  0.2254  0.0670
 9531TIP3    H152788   0.833   6.075   9.135  0.0494  2.2425  1.7115
 9531TIP3    H252789   0.961   6.007   9.091 -2.0632 -0.4587 -0.6808
 9532TIP3   OH252790   5.980   2.620   9.515  0.4579 -0.3837  0.2824
 9532TIP3    H152791   6.046   2.577   9.460  0.6266  0.0860  0.1116
 9532TIP3    H252792   6.026   2.695   9.553 -0.1133  0.2667 -0.2694
 9533TIP3   OH252793   5.041   2.884   7.924 -0.3936 -0.2813  0.4749
 9533TIP3    H152794   5.059   2.920   7.837  0.6681 -0.3759  0.6315
 9533TIP3    H252795   5.102   2.811   7.932 -0.4472 -0.2480  1.3108
 9534TIP3   OH252796   5.288   2.146  10.523 -0.2123  0.1319  0.3916
 9534TIP3    H152797   5.239   2.065  10.540  0.3408 -0.3785 -0.3892
 9534TIP3    H252798   5.299   2.147  10.428 -1.2000  1.7182  0.2590
 9535TIP3   OH252799   0.118   2.242   9.236  0.3533 -0.1039 -0.1725
 9535TIP3    H152800   0.211   2.216   9.238  0.3191 -0.2008  1.4225
 9535TIP3    H252801   0.119   2.329   9.195  1.1863  0.0113  0.0555
 9536TIP3   OH252802   3.906   1.670   8.620  0.6821  0.6072 -0.1435
 9536TIP3    H152803   3.828   1.699   8.572 -0.1318 -2.8311 -1.1640
 9536TIP3    H252804   3.955   1.618   8.557  2.3742  0.3757  1.2935
 9537TIP3   OH252805   6.173   2.379   9.153 -0.3639 -0.4704 -0.4596
 9537TIP3    H152806   6.258   2.342   9.129 -0.0867 -0.2458  0.1329
 9537TIP3    H252807   6.114   2.304   9.155  0.0260 -0.7736  0.0094
 9538TIP3   OH252808   3.108   5.336  10.275 -0.0341  0.1355 -0.0368
 9538TIP3    H152809   3.094   5.415  10.223  0.7582  0.2597 -0.0728
 9538TIP3    H252810   3.132   5.269  10.211  1.5013  0.4246  0.1906
 9539TIP3   OH252811   4.649   0.080  10.555  0.1409  0.3316  0.1382
 9539TIP3    H152812   4.570   0.047  10.511 -0.3603  0.4432  0.9261
 9539TIP3    H252813   4.618   0.105  10.643  0.8382  1.3587  0.1063
 9540TIP3   OH252814   6.425   3.199   9.251 -0.0736  0.0835  0.0884
 9540TIP3    H152815   6.433   3.108   9.282  0.3207 -0.6406 -1.9646
 9540TIP3    H252816   6.337   3.204   9.214  0.2466  0.2138 -0.6878
 9541TIP3   OH252817   6.310   0.460   9.413 -0.0553 -0.0976  0.5345
 9541TIP3    H152818   6.403   0.480   9.404 -0.1304 -0.4173 -1.4673
 9541TIP3    H252819   6.270   0.544   9.436  0.6064  0.2614  0.4121
 9542TIP3   OH252820   3.144   6.104   9.141  0.3279  0.7561 -0.0093
 9542TIP3    H152821   3.144   6.056   9.224 -0.3883 -0.0954 -0.4837
 9542TIP3    H252822   3.122   6.194   9.166 -0.8546  0.3163  0.6429
 9543TIP3   OH252823   3.392   2.580   8.737  0.2008 -0.2396 -0.2166
 9543TIP3    H152824   3.320   2.518   8.728  0.7012 -1.0984  1.4772
 9543TIP3    H252825   3.352   2.657   8.778 -0.2871  0.3920 -1.7712
 9544TIP3   OH252826   3.105   1.830  10.738  0.0979 -0.1825 -0.1756
 9544TIP3    H152827   3.038   1.807  10.802 -0.2489 -0.2155 -0.5464
 9544TIP3    H252828   3.059   1.883  10.673  0.7049  0.8770  0.2302
 9545TIP3   OH252829   6.220   0.935  10.324  0.2178  0.4528  0.6356
 9545TIP3    H152830   6.246   0.845  10.305  1.3858  0.6920  1.0687
 9545TIP3    H252831   6.218   0.941  10.419  3.7576  1.8213  0.7787
 9546TIP3   OH252832   5.647   2.138  10.974 -0.5759  0.3789  0.2006
 9546TIP3    H152833   5.597   2.091  10.908 -0.3786  2.6173 -1.6928
 9546TIP3    H252834   5.739   2.123  10.950 -0.3662 -1.0530  1.7048
 9547TIP3   OH252835   0.297   0.568   9.989  0.0127  0.4390 -0.2506
 9547TIP3    H152836   0.292   0.633  10.059 -1.1368 -0.3081  0.4065
 9547TIP3    H252837   0.224   0.590   9.932 -0.2079 -0.0817 -0.1775
 9548TIP3   OH252838   5.797   2.792   9.851 -0.3631 -0.2456 -0.5698
 9548TIP3    H152839   5.703   2.785   9.871 -0.7949  2.3251 -1.3486
 9548TIP3    H252840   5.820   2.707   9.814 -2.5171 -0.7484 -0.8978
 9549TIP3   OH252841   0.384   3.764   9.237 -0.0718  0.2160 -0.3908
 9549TIP3    H152842   0.332   3.844   9.235 -0.0372  0.2144 -2.0814
 9549TIP3    H252843   0.461   3.784   9.184  0.8014 -0.3788  0.6088
 9550TIP3   OH252844   5.837   5.127  10.422 -0.0753  0.8626  0.0195
 9550TIP3    H152845   5.835   5.173  10.506  1.3949  0.1183  0.4973
 9550TIP3    H252846   5.755   5.078  10.419 -2.0031  3.8508 -0.7603
 9551TIP3   OH252847   0.990   4.458   9.129  0.2683 -0.6112  0.8227
 9551TIP3    H152848   0.935   4.440   9.052  1.1216 -1.1894  0.3347
 9551TIP3    H252849   0.960   4.543   9.160  0.4045 -0.0164 -0.5995
 9552TIP3   OH252850   2.766   2.927   8.733 -0.0981  0.7806  0.1425
 9552TIP3    H152851   2.814   2.986   8.675 -2.6331  2.1412 -0.7423
 9552TIP3    H252852   2.745   2.852   8.678  1.3194 -0.0242  0.6586
 9553TIP3   OH252853   6.350   2.103  10.416 -0.3634 -0.4347 -0.2410
 9553TIP3    H152854   6.361   2.121  10.322  1.7840 -0.4900 -0.0465
 9553TIP3    H252855   6.437   2.075  10.445 -1.0364 -0.5875  1.7422
 9554TIP3   OH252856   0.835   4.534  11.922  0.4838 -0.5328  0.0545
 9554TIP3    H152857   0.814   4.470  11.989  0.3161 -0.9724 -0.4126
 9554TIP3    H252858   0.788   4.613  11.948 -0.9388 -1.1978 -0.4196
 9555TIP3   OH252859   6.379   3.000   8.534  0.2607 -0.6478  0.4913
 9555TIP3    H152860   6.443   2.961   8.474 -0.3035 -0.8364  0.0142
 9555TIP3    H252861   6.308   2.937   8.538 -2.1022  1.5327 -2.6366
 9556TIP3   OH252862   6.342   0.186   9.290  0.2273 -0.0127  0.1530
 9556TIP3    H152863   6.310   0.276   9.288 -0.7493 -0.2713  1.8529
 9556TIP3    H252864   6.428   0.192   9.333  0.7281  0.2211 -0.8441
 9557TIP3   OH252865   3.017   2.790  10.784 -0.4110 -0.2226 -0.2736
 9557TIP3    H152866   2.969   2.785  10.867 -0.7810 -0.4691 -0.5024
 9557TIP3    H252867   3.094   2.842  10.805  0.0218 -1.1316  0.4881
 9558TIP3   OH252868   4.667   4.569  10.488  0.0582 -0.3657 -0.0015
 9558TIP3    H152869   4.611   4.617  10.428 -1.3082 -0.9021  0.8042
 9558TIP3    H252870   4.747   4.621  10.493 -0.4740  0.5729 -0.9547
 9559TIP3   OH252871   1.972   5.217   7.802 -0.5795  0.0954 -0.2346
 9559TIP3    H152872   1.949   5.266   7.882  0.7112 -0.1521  0.3195
 9559TIP3    H252873   2.066   5.233   7.791 -1.0145  1.4468 -2.6497
 9560TIP3   OH252874   4.161   2.094  11.062 -0.0008 -0.5865 -0.0221
 9560TIP3    H152875   4.147   2.000  11.051  0.1767 -0.3864 -2.4547
 9560TIP3    H252876   4.168   2.106  11.157 -1.4171 -2.8096  0.4416
 9561TIP3   OH252877   2.223   2.539   9.226 -0.6743 -0.2511 -0.2518
 9561TIP3    H152878   2.226   2.551   9.131 -0.4939 -1.1472 -0.3753
 9561TIP3    H252879   2.174   2.457   9.237  0.0864 -0.6318  0.3739
 9562TIP3   OH252880   5.038   2.324   9.703 -0.0733  0.5137  0.1922
 9562TIP3    H152881   4.992   2.391   9.653 -3.7202 -1.4398  0.5768
 9562TIP3    H252882   5.035   2.354   9.794 -4.8334 -1.4042  0.9330
 9563TIP3   OH252883   3.652   4.438   9.730 -0.0920 -0.5188 -0.8384
 9563TIP3    H152884   3.652   4.389   9.812  0.4912 -0.0838 -0.5742
 9563TIP3    H252885   3.588   4.507   9.743 -0.9371 -1.2114 -1.2213
 9564TIP3   OH252886   5.874   3.980  10.145  0.1154  0.2108 -0.1412
 9564TIP3    H152887   5.921   3.913  10.095  1.1133 -0.2833  1.3858
 9564TIP3    H252888   5.782   3.968  10.121  0.4248 -0.9094 -0.8144
 9565TIP3   OH252889   2.018   6.639   9.740  0.3553  0.3843 -0.1626
 9565TIP3    H152890   2.069   6.565   9.707 -0.1641  0.2675 -0.7150
 9565TIP3    H252891   2.008   6.622   9.834  0.0193 -0.3859 -0.3292
 9566TIP3   OH252892   1.342   0.347   9.379  0.4714 -0.3533 -0.3922
 9566TIP3    H152893   1.338   0.257   9.412  1.4010 -0.3689 -0.2870
 9566TIP3    H252894   1.389   0.395   9.447 -1.3914  0.5833  0.2903
 9567TIP3   OH252895   0.330   5.131  10.971 -0.1400 -0.3323  0.1736
 9567TIP3    H152896   0.379   5.210  10.993 -1.3247  0.5792 -0.3414
 9567TIP3    H252897   0.377   5.094  10.896 -0.2963  0.6060 -0.4049
 9568TIP3   OH252898   3.692   3.349   8.371 -0.0029 -0.1145 -0.0522
 9568TIP3    H152899   3.602   3.364   8.343  0.5476  1.0337 -1.3302
 9568TIP3    H252900   3.685   3.286   8.443 -1.7102 -1.2229 -1.1155
 9569TIP3   OH252901   2.292   0.673   8.583  0.0247  0.2504  0.3154
 9569TIP3    H152902   2.282   0.579   8.595 -0.9591  0.4119  0.8826
 9569TIP3    H252903   2.344   0.682   8.504 -2.4884 -0.7392 -1.5874
 9570TIP3   OH252904   4.710   6.261   8.237  0.1292 -0.5787  0.2714
 9570TIP3    H152905   4.754   6.335   8.278  0.3858  0.2160 -1.3652
 9570TIP3    H252906   4.622   6.293   8.216 -0.9293 -1.8070  2.5131
 9571TIP3   OH252907   1.842   3.101  10.593 -0.0685 -0.2932 -0.2013
 9571TIP3    H152908   1.919   3.147  10.628 -0.6034  0.3177  0.2105
 9571TIP3    H252909   1.820   3.037  10.660 -2.0905  1.9757  1.5075
 9572TIP3   OH252910   2.379   6.140   9.727 -0.4031 -0.0609  0.2756
 9572TIP3    H152911   2.318   6.102   9.664 -0.7922  2.2252 -0.8741
 9572TIP3    H252912   2.327   6.206   9.773  0.8657  1.0913  0.1228
 9573TIP3   OH252913   2.897   2.753  11.059  0.1600 -0.6047  0.0810
 9573TIP3    H152914   2.944   2.794  11.131 -0.1269  0.1800 -0.1662
 9573TIP3    H252915   2.805   2.760  11.084  0.0940 -0.8779 -0.0838
 9574TIP3   OH252916   2.426   4.868   8.155 -0.0889 -0.3734  0.2882
 9574TIP3    H152917   2.420   4.828   8.068  1.5923  0.5097 -0.2659
 9574TIP3    H252918   2.457   4.798   8.212 -0.7344 -0.8250  0.1006
 9575TIP3   OH252919   1.786   1.363   8.478 -0.7844  0.7853 -0.0586
 9575TIP3    H152920   1.706   1.325   8.515 -0.5040  0.9168  0.7187
 9575TIP3    H252921   1.779   1.347   8.384 -0.5691 -1.4197  0.2324
 9576TIP3   OH252922   5.629   6.109  10.648 -0.8222 -0.0731  0.1462
 9576TIP3    H152923   5.594   6.033  10.601 -2.9682 -0.4878  2.2522
 9576TIP3    H252924   5.556   6.170  10.654 -0.2377  0.5228  1.7589
 9577TIP3   OH252925   0.180   2.803   9.026 -0.1617  0.0491  0.3002
 9577TIP3    H152926   0.177   2.812   9.121  1.3593 -1.4898  0.5397
 9577TIP3    H252927   0.221   2.718   9.011  1.1867  0.9826 -1.7456
 9578TIP3   OH252928   0.265   1.340   8.934  0.3908  0.0656 -0.2736
 9578TIP3    H152929   0.351   1.330   8.974  0.6834  1.3853 -0.5230
 9578TIP3    H252930   0.222   1.256   8.947  1.1832 -0.1439  1.1199
 9579TIP3   OH252931   1.614   5.672   9.436 -0.2736  0.0593 -0.2633
 9579TIP3    H152932   1.572   5.603   9.488 -1.8220  1.2661  0.2020
 9579TIP3    H252933   1.593   5.753   9.484  0.4494  0.9595 -1.4206
 9580TIP3   OH252934   2.619   5.092   8.828 -0.2717 -0.8267 -0.1280
 9580TIP3    H152935   2.629   5.105   8.922  1.8599 -1.5323 -0.2141
 9580TIP3    H252936   2.573   5.008   8.820 -0.8492 -0.5590  0.2547
 9581TIP3   OH252937   0.666   3.724   9.571 -0.0646  0.1678  0.2003
 9581TIP3    H152938   0.750   3.679   9.573  0.2084  0.5979 -0.7474
 9581TIP3    H252939   0.649   3.739   9.478 -1.5120 -0.4908  0.3353
 9582TIP3   OH252940   5.541   3.466   8.996 -0.0395 -0.1952  0.1159
 9582TIP3    H152941   5.626   3.422   9.000 -0.1236 -0.3135  0.5725
 9582TIP3    H252942   5.506   3.442   8.910 -0.1829 -1.1988  0.4401
 9583TIP3   OH252943   1.213   3.321   7.724  0.1131 -0.1621  0.8103
 9583TIP3    H152944   1.255   3.401   7.756  0.6241  0.3305 -0.9625
 9583TIP3    H252945   1.129   3.351   7.688 -0.5761 -0.7387  1.8808
 9584TIP3   OH252946   1.594   4.508  11.307 -0.0877 -0.8182 -0.0774
 9584TIP3    H152947   1.650   4.474  11.376  1.0475 -0.2827 -0.6985
 9584TIP3    H252948   1.529   4.440  11.293  0.2942 -1.3792  0.7980
 9585TIP3   OH252949   2.359   1.118   9.492 -0.2552 -0.1860  0.3189
 9585TIP3    H152950   2.337   1.033   9.455 -0.7930 -0.1337  0.5051
 9585TIP3    H252951   2.407   1.098   9.572 -0.8924 -0.3322  0.6752
 9586TIP3   OH252952   2.155   1.720   9.878 -0.2301 -0.0381 -0.0851
 9586TIP3    H152953   2.143   1.801   9.927  0.9114  0.7526 -1.0526
 9586TIP3    H252954   2.192   1.747   9.794 -0.5978 -1.4932 -0.7616
 9587TIP3   OH252955   3.962   1.473   8.450  0.3931  0.9404 -0.2759
 9587TIP3    H152956   4.007   1.389   8.462 -1.1129  0.2980  1.4317
 9587TIP3    H252957   3.962   1.487   8.355  1.1086 -0.7384 -0.5676
 9588TIP3   OH252958   1.370   4.020   8.412  0.6205  0.1036  0.5804
 9588TIP3    H152959   1.344   4.108   8.438  1.9285  0.5387  0.4696
 9588TIP3    H252960   1.466   4.020   8.419  0.6436 -1.2851  0.5203
 9589TIP3   OH252961   0.016   2.838  10.600 -0.2502 -0.8165 -0.0326
 9589TIP3    H152962   0.012   2.764  10.660  0.8406 -0.0767  0.9877
 9589TIP3    H252963  -0.073   2.873  10.598 -0.2858 -0.8229  1.1954
 9590TIP3   OH252964   1.425   1.597  11.042 -0.1840 -0.3257 -0.0578
 9590TIP3    H152965   1.495   1.661  11.028  0.5322 -1.1721 -0.4225
 9590TIP3    H252966   1.461   1.535  11.105 -1.9901  1.3031  2.7946
 9591TIP3   OH252967   2.793   2.425   8.153 -0.1208  0.2105  0.2463
 9591TIP3    H152968   2.826   2.511   8.130  0.5682 -0.3357 -0.9166
 9591TIP3    H252969   2.866   2.382   8.198 -0.1462 -0.0800  0.0130
 9592TIP3   OH252970   2.605   2.984   8.490  0.3401  0.7216 -0.2096
 9592TIP3    H152971   2.666   2.941   8.430  0.7264  0.7110  0.1783
 9592TIP3    H252972   2.641   3.072   8.501 -0.8208  1.3855 -1.5290
 9593TIP3   OH252973   1.508   2.290   8.892  0.7187  0.5213 -0.4324
 9593TIP3    H152974   1.469   2.343   8.822  0.0512  1.4806  0.6312
 9593TIP3    H252975   1.450   2.304   8.967  1.9171  0.2218  0.5691
 9594TIP3   OH252976   1.948   1.641  10.101 -0.7453 -0.3481  0.5768
 9594TIP3    H152977   1.873   1.682  10.145 -1.6374 -0.8752 -0.4061
 9594TIP3    H252978   2.022   1.699  10.118 -1.8765  1.4554 -0.4438
 9595TIP3   OH252979   3.507   3.855   8.185  0.3141  0.0331  0.0047
 9595TIP3    H152980   3.533   3.868   8.276 -2.4131  1.8332  0.6572
 9595TIP3    H252981   3.442   3.785   8.188 -1.7160  1.7989 -0.0360
 9596TIP3   OH252982   1.600   4.706   8.640  0.4364  0.2134 -0.8354
 9596TIP3    H152983   1.678   4.707   8.585  1.2213  1.9520  0.2274
 9596TIP3    H252984   1.539   4.766   8.597  1.6628  2.8822  0.8880
 9597TIP3   OH252985   6.582   3.985  10.163 -0.3279 -0.4882  0.0068
 9597TIP3    H152986   6.669   3.966  10.198 -0.7100  0.5800  1.6182
 9597TIP3    H252987   6.599   4.036  10.084  0.5209 -0.5496  0.1408
 9598TIP3   OH252988   3.511   4.369  10.729 -0.0797 -0.6153 -0.0133
 9598TIP3    H152989   3.562   4.300  10.771  0.6081  0.5995  1.2163
 9598TIP3    H252990   3.540   4.369  10.638 -0.1519 -1.9712 -0.0621
 9599TIP3   OH252991   5.905   4.355  10.221 -0.1803  0.3240 -0.2245
 9599TIP3    H152992   5.841   4.345  10.292 -0.4203  0.7803 -0.3705
 9599TIP3    H252993   5.958   4.276  10.225 -0.2117  0.3333  0.4499
 9600TIP3   OH252994   5.268   2.871   9.826 -0.3491 -0.3362 -0.1292
 9600TIP3    H152995   5.228   2.802   9.773 -0.7209 -0.2027 -0.0294
 9600TIP3    H252996   5.263   2.949   9.770 -1.4187 -0.0260  0.3723
 9601TIP3   OH252997   6.480   2.061  10.672 -0.0402  0.3254 -0.2621
 9601TIP3    H152998   6.518   2.142  10.708 -0.1912  0.5734 -0.6559
 9601TIP3    H252999   6.541   2.035  10.603  0.2463 -0.1490  0.1598
 9602TIP3   OH253000   5.407   2.908  10.244  0.2099 -0.6849 -0.0699
 9602TIP3    H153001   5.475   2.884  10.181 -1.0835 -0.9386 -1.4352
 9602TIP3    H253002   5.376   2.994  10.213  0.0510 -0.4712  0.6678
 9603TIP3   OH253003   0.404   4.643   9.694 -0.3285  0.4379  0.2117
 9603TIP3    H153004   0.411   4.548   9.688  1.0621  0.5944 -1.3643
 9603TIP3    H253005   0.315   4.663   9.664 -0.7748 -0.3541  0.9511
 9604TIP3   OH253006   0.717   4.509  10.353  0.4249 -0.2536  0.0261
 9604TIP3    H153007   0.710   4.472  10.264  1.5913 -1.8639  0.5510
 9604TIP3    H253008   0.628   4.538  10.373 -0.3322 -1.7566 -0.9083
 9605TIP3   OH253009   4.310   0.723  10.620  0.0936 -0.1260  0.1701
 9605TIP3    H153010   4.241   0.790  10.624  0.8754  0.7078  0.2256
 9605TIP3    H253011   4.345   0.731  10.532  0.0583 -0.6118  0.1124
 9606TIP3   OH253012   1.812   5.039   8.269  1.0252 -0.0446 -0.2378
 9606TIP3    H153013   1.840   5.027   8.360  0.3609 -1.1198 -0.1535
 9606TIP3    H253014   1.725   4.999   8.266  1.8101 -1.7976 -1.7768
 9607TIP3   OH253015   0.160   6.060   8.405  0.0342  0.2705 -0.2415
 9607TIP3    H153016   0.148   6.150   8.374  0.0779  0.9571  1.6224
 9607TIP3    H253017   0.197   6.069   8.493 -0.0670 -1.5655  0.0331
 9608TIP3   OH253018   2.123   3.460   9.725 -0.3383  0.4361  0.0302
 9608TIP3    H153019   2.037   3.496   9.704  0.3042  0.6342 -2.5690
 9608TIP3    H253020   2.184   3.514   9.675  1.2105 -0.3717  0.9857
 9609TIP3   OH253021   4.244   5.785   9.627 -0.2037  0.4501  0.7769
 9609TIP3    H153022   4.177   5.754   9.567 -0.8480 -0.5405  1.9690
 9609TIP3    H253023   4.317   5.724   9.615  0.1055  0.9330  0.1911
 9610TIP3   OH253024   0.308   3.446   9.107 -1.0177  0.0475 -0.5217
 9610TIP3    H153025   0.367   3.491   9.046 -0.7362  0.2704 -0.0941
 9610TIP3    H253026   0.221   3.459   9.070 -0.8107 -0.2093 -1.1189
 9611TIP3   OH253027   3.955   6.473  10.308 -0.2186  1.2317  0.3208
 9611TIP3    H153028   3.869   6.442  10.280  0.4933 -0.3489 -0.2356
 9611TIP3    H253029   3.953   6.464  10.404 -0.4519  0.5715  0.2623
 9612TIP3   OH253030   2.967   6.622  11.736  0.6571 -0.2348  0.0080
 9612TIP3    H153031   2.988   6.588  11.649  1.9170  2.0896 -0.6657
 9612TIP3    H253032   3.036   6.588  11.793  1.5615  0.6615 -0.5346
 9613TIP3   OH253033   5.730   4.101   8.875  0.0586  0.0344 -0.5167
 9613TIP3    H153034   5.727   4.175   8.814 -1.3443  1.1772  0.8749
 9613TIP3    H253035   5.686   4.029   8.828  2.9247 -0.5762 -2.5673
 9614TIP3   OH253036   4.344   5.205   9.732 -0.3295  0.2487  0.1577
 9614TIP3    H153037   4.427   5.247   9.713  0.0344 -0.4831  0.0701
 9614TIP3    H253038   4.366   5.112   9.741 -0.8761  0.2306  1.7009
 9615TIP3   OH253039   4.425   2.713  11.076  0.8979  0.0731 -0.5271
 9615TIP3    H153040   4.464   2.651  11.137 -0.9310  2.2548  3.2350
 9615TIP3    H253041   4.484   2.788  11.076 -0.3570  1.1065  0.6809
 9616TIP3   OH253042   2.783   0.161   8.588  0.8857 -0.3262  0.1678
 9616TIP3    H153043   2.801   0.208   8.507  3.3043  1.9734  1.8786
 9616TIP3    H253044   2.709   0.208   8.626  1.6138  0.4783  0.6248
 9617TIP3   OH253045   6.398   3.555   8.013 -0.3694  0.2148  0.3665
 9617TIP3    H153046   6.324   3.614   7.998  0.0406  0.5357 -0.4530
 9617TIP3    H253047   6.368   3.497   8.082 -1.2991  0.5054  0.2251
 9618TIP3   OH253048   5.195   0.329  10.711 -0.3753  0.3629  0.9282
 9618TIP3    H153049   5.184   0.362  10.800 -0.4734 -1.0197  1.4613
 9618TIP3    H253050   5.228   0.404  10.661  1.8283  0.6156  2.6037
 9619TIP3   OH253051   0.232   5.615   8.623 -0.0928 -0.3136 -0.1711
 9619TIP3    H153052   0.162   5.552   8.610  1.2695 -2.2248  1.2023
 9619TIP3    H253053   0.241   5.622   8.718  0.2987  1.4231 -0.2969
 9620TIP3   OH253054   2.037   0.042   8.912  0.2593 -0.1739 -0.5995
 9620TIP3    H153055   2.109   0.052   8.974  0.2283 -1.0833 -0.4077
 9620TIP3    H253056   1.965   0.092   8.951  0.1306 -1.0270  0.2855
 9621TIP3   OH253057   1.985   1.976   8.185  0.2066 -0.0743  0.3077
 9621TIP3    H153058   2.068   2.007   8.148  1.7957 -1.7018  2.3028
 9621TIP3    H253059   1.989   1.881   8.177 -1.2821 -0.2130  0.8984
 9622TIP3   OH253060   3.293   3.356   9.839  0.4618  0.1168 -0.1950
 9622TIP3    H153061   3.371   3.374   9.786  0.9891 -0.1961  0.4463
 9622TIP3    H253062   3.253   3.280   9.798 -0.8461  1.6596 -1.9307
 9623TIP3   OH253063   1.344   5.097  10.563  0.4189 -0.1337 -0.1171
 9623TIP3    H153064   1.317   5.044  10.488  1.2803 -1.1445  0.2639
 9623TIP3    H253065   1.431   5.129  10.539  0.1449  0.6521 -0.0946
 9624TIP3   OH253066   0.739   0.589  10.249  0.2308  0.1879 -0.1966
 9624TIP3    H153067   0.683   0.555  10.179 -0.4311  0.5903  0.1361
 9624TIP3    H253068   0.708   0.678  10.264  0.9816  0.4330 -0.0246
 9625TIP3   OH253069   1.136   6.484   8.711 -0.4447 -0.5522  0.9344
 9625TIP3    H153070   1.043   6.479   8.733 -0.2875  1.3486  2.2409
 9625TIP3    H253071   1.168   6.394   8.720 -1.8061 -0.9473  2.1542
 9626TIP3   OH253072   5.818   3.741   9.867  0.2151  0.3340  0.0212
 9626TIP3    H153073   5.734   3.785   9.880  0.0291  0.3604 -1.1451
 9626TIP3    H253074   5.860   3.791   9.798  0.8839 -0.1201  0.0923
 9627TIP3   OH253075   4.697   1.571  10.767 -0.0628 -0.4991  0.6096
 9627TIP3    H153076   4.705   1.598  10.859 -0.7008 -0.4116  0.6409
 9627TIP3    H253077   4.727   1.648  10.718 -2.0968  0.4280  0.6926
 9628TIP3   OH253078   2.491   0.451   8.246  0.7205 -0.1754 -0.4652
 9628TIP3    H153079   2.500   0.524   8.307 -1.3696 -0.1468 -0.1092
 9628TIP3    H253080   2.543   0.477   8.169  3.0955 -0.0446  1.0792
 9629TIP3   OH253081   0.494   1.250   8.153  0.1409  0.3605  0.1603
 9629TIP3    H153082   0.584   1.240   8.183  0.4890  1.8367 -0.2781
 9629TIP3    H253083   0.444   1.266   8.233  0.6781  1.8806  0.2323
 9630TIP3   OH253084   1.087   2.535   9.007  0.6850 -0.3566  0.1856
 9630TIP3    H153085   1.167   2.582   9.031  0.8622  0.3917 -1.7129
 9630TIP3    H253086   1.117   2.460   8.955  0.2207 -0.8305  0.5901
 9631TIP3   OH253087   4.725   2.119   8.869 -0.4413 -0.3806  0.0852
 9631TIP3    H153088   4.671   2.197   8.863  1.3568  0.9813  0.7941
 9631TIP3    H253089   4.804   2.141   8.820  0.6232 -1.2774  1.3498
 9632TIP3   OH253090   0.522   4.759   9.901 -0.0595  0.2310 -0.0850
 9632TIP3    H153091   0.596   4.699   9.891 -0.9145 -1.1139  1.3432
 9632TIP3    H253092   0.451   4.718   9.851 -0.5046  0.3413  0.4536
 9633TIP3   OH253093   1.940   2.796  10.531 -0.3990 -0.8203 -0.2791
 9633TIP3    H153094   2.007   2.862  10.554 -2.0073  0.3742  1.2485
 9633TIP3    H253095   1.879   2.843  10.475 -0.7888 -1.4375 -0.3746
 9634TIP3   OH253096   6.617   5.673   8.710 -0.1085 -0.4791 -0.9863
 9634TIP3    H153097   6.645   5.583   8.692  1.6864 -0.1476 -0.0096
 9634TIP3    H253098   6.643   5.722   8.633 -0.1195 -0.6007 -1.0682
 9635TIP3   OH253099   6.357   3.267  10.782 -0.2483 -0.1561 -0.1281
 9635TIP3    H153100   6.376   3.337  10.719 -1.7176  1.3850  1.0422
 9635TIP3    H253101   6.327   3.194  10.729  0.8438  0.2598 -1.3639
 9636TIP3   OH253102   1.177   2.410   7.855 -0.3009 -0.1679 -0.1860
 9636TIP3    H153103   1.184   2.385   7.947  0.3477 -1.3334 -0.5264
 9636TIP3    H253104   1.158   2.328   7.809 -0.7665  0.4160 -1.0759
 9637TIP3   OH253105   3.374   1.946  10.605  0.5044  0.1749  0.0574
 9637TIP3    H153106   3.295   1.962  10.658 -0.1067 -0.5683 -0.6016
 9637TIP3    H253107   3.432   2.019  10.626 -1.0103  1.6520 -0.6728
 9638TIP3   OH253108   4.959   0.907   9.372 -0.1944  0.1004 -0.2268
 9638TIP3    H153109   4.920   0.895   9.458  1.2097 -0.1516  0.4015
 9638TIP3    H253110   5.006   0.825   9.355  0.9820  0.7925 -0.4456
 9639TIP3   OH253111   4.924   1.601   8.032 -0.2291  0.0629  0.3291
 9639TIP3    H153112   4.856   1.655   7.992 -0.1975  0.7435  1.1458
 9639TIP3    H253113   5.002   1.617   7.978  0.0307  1.6199  1.0904
 9640TIP3   OH253114   0.043   0.224   9.998  0.4469  0.3940  0.0532
 9640TIP3    H153115   0.122   0.237  10.051  0.3391  0.3403  0.2268
 9640TIP3    H253116  -0.010   0.302  10.013  0.8739  0.8589 -0.7780
 9641TIP3   OH253117   0.329   1.147   7.805 -0.0383  0.2416 -0.2159
 9641TIP3    H153118   0.395   1.078   7.802  0.5303  0.7736 -0.2440
 9641TIP3    H253119   0.273   1.131   7.729  0.1588 -0.1212 -0.2856
 9642TIP3   OH253120   0.101   4.035  10.578  0.3060  0.1215 -0.8245
 9642TIP3    H153121   0.153   4.024  10.657 -0.5378 -0.3886 -0.3239
 9642TIP3    H253122   0.042   3.959  10.577 -0.4749  0.7175 -1.3395
 9643TIP3   OH253123   5.660   6.738   9.390  0.2873  0.2084  0.1392
 9643TIP3    H153124   5.671   6.771   9.479 -0.1837 -0.7372  0.5673
 9643TIP3    H253125   5.743   6.756   9.347  0.6173  0.4311  0.8608
 9644TIP3   OH253126   2.879   0.260  10.499  0.4587 -0.1406 -0.2033
 9644TIP3    H153127   2.815   0.309  10.551  0.6744 -0.3256  0.2431
 9644TIP3    H253128   2.948   0.238  10.561  0.9174 -0.0176 -0.6677
 9645TIP3   OH253129   6.144   3.210   9.253  0.1228 -0.2702 -0.1623
 9645TIP3    H153130   6.108   3.194   9.166 -0.3651  0.1519 -0.0374
 9645TIP3    H253131   6.087   3.161   9.312 -0.2464  0.3881  0.0348
 9646TIP3   OH253132   4.688   3.772   9.641  0.3809  0.1535 -0.1459
 9646TIP3    H153133   4.688   3.856   9.687 -0.1438 -0.1382  0.3965
 9646TIP3    H253134   4.609   3.773   9.588 -0.3522 -0.5404  0.8963
 9647TIP3   OH253135   5.718   1.693   8.077  0.2287  0.2357 -0.4518
 9647TIP3    H153136   5.699   1.607   8.114  0.2889  1.0059  1.4801
 9647TIP3    H253137   5.637   1.719   8.033  0.4601 -1.1066 -1.7799
 9648TIP3   OH253138   0.020   3.707  10.771  0.0935 -0.9114 -0.1184
 9648TIP3    H153139   0.109   3.720  10.804  0.4959  0.6237 -1.6928
 9648TIP3    H253140   0.028   3.714  10.676 -1.8403  0.1498 -0.2576
 9649TIP3   OH253141   6.168   3.676   9.870  0.0447 -0.5159 -0.1717
 9649TIP3    H153142   6.086   3.712   9.835  0.0421  1.3044  1.5429
 9649TIP3    H253143   6.205   3.627   9.797 -2.7723 -1.8094 -0.8794
 9650TIP3   OH253144   0.770   3.348   8.365 -0.4740  0.8121  0.3425
 9650TIP3    H153145   0.760   3.308   8.452 -0.3048  2.3574  1.1056
 9650TIP3    H253146   0.766   3.274   8.304 -3.8776 -0.0635  1.3927
 9651TIP3   OH253147   2.747   5.537   7.933  0.1593 -0.3314 -0.6282
 9651TIP3    H153148   2.695   5.458   7.924 -0.0815 -0.0549 -1.8366
 9651TIP3    H253149   2.693   5.606   7.894  0.5570  0.3490 -0.0115
 9652TIP3   OH253150   0.064   6.744  10.475  0.2606  0.3249 -0.1535
 9652TIP3    H153151   0.135   6.802  10.445 -0.1911  0.5478 -0.8018
 9652TIP3    H253152   0.085   6.659  10.436 -0.2832  0.5955 -1.0653
 9653TIP3   OH253153   5.198   4.568   8.876 -0.4389 -0.5846 -0.0553
 9653TIP3    H153154   5.156   4.641   8.922 -0.0044 -0.8342  0.7660
 9653TIP3    H253155   5.213   4.601   8.788  0.0785  0.4631  0.4026
 9654TIP3   OH253156   2.160   5.817  10.431 -0.6072 -0.0812 -0.0534
 9654TIP3    H153157   2.125   5.795  10.517  2.2410 -1.2805  0.9192
 9654TIP3    H253158   2.204   5.901  10.443 -0.6644  0.0139 -0.4805
 9655TIP3   OH253159   5.916   5.375   8.892 -0.1135  0.0712 -0.1738
 9655TIP3    H153160   5.877   5.405   8.974  0.7214  0.4319  0.1013
 9655TIP3    H253161   6.009   5.367   8.911 -0.2118 -2.2970 -0.3768
 9656TIP3   OH253162   1.767   6.250   9.626  0.8523  0.1403  0.1162
 9656TIP3    H153163   1.854   6.212   9.634  1.0481  0.5225 -0.1484
 9656TIP3    H253164   1.759   6.271   9.533 -0.2922 -1.6961 -0.2471
 9657TIP3   OH253165   0.346   1.654   8.415  0.2342  0.6562 -0.3687
 9657TIP3    H153166   0.299   1.709   8.478 -1.0915  0.6614 -1.3191
 9657TIP3    H253167   0.376   1.715   8.348  0.9819  0.5413 -0.1559
 9658TIP3   OH253168   4.090   0.498   9.490 -0.3476  0.2453  0.1160
 9658TIP3    H153169   4.042   0.415   9.492  0.4047 -0.1915  1.5135
 9658TIP3    H253170   4.182   0.472   9.483 -0.1874  1.0155 -0.7867
 9659TIP3   OH253171   0.993   3.379  10.904  0.4355 -0.4023 -0.2822
 9659TIP3    H153172   1.012   3.467  10.870 -0.7790  0.1771  0.4857
 9659TIP3    H253173   0.958   3.331  10.829 -1.2617  0.5584 -0.1502
 9660TIP3   OH253174   1.181   3.434  10.014 -0.8007 -0.1542  0.2484
 9660TIP3    H153175   1.090   3.405  10.005 -0.5056 -0.4128 -3.4030
 9660TIP3    H253176   1.228   3.356  10.044 -1.2665 -1.1913 -1.5799
 9661TIP3   OH253177   3.761   6.125  10.031 -0.4267 -0.3676  0.8798
 9661TIP3    H153178   3.753   6.127  10.126 -2.2627 -1.8957  0.8139
 9661TIP3    H253179   3.853   6.101  10.016  0.6749  2.6035  2.1370
 9662TIP3   OH253180   2.423   2.171   8.030  0.3444  0.4049 -0.1032
 9662TIP3    H153181   2.386   2.093   8.072 -0.5486  0.7278 -0.2782
 9662TIP3    H253182   2.349   2.214   7.989  0.8853  1.1805 -0.2915
 9663TIP3   OH253183   6.342   5.417   8.923  0.2706 -0.2663 -0.4003
 9663TIP3    H153184   6.294   5.377   8.996  0.1867 -1.4002 -1.0585
 9663TIP3    H253185   6.274   5.436   8.858  0.6852 -2.0324 -1.4073
 9664TIP3   OH253186   3.749   6.335  10.972 -0.0345  0.1868 -0.0699
 9664TIP3    H153187   3.703   6.387  11.038 -1.4495 -1.0239 -0.0628
 9664TIP3    H253188   3.836   6.321  11.010 -0.3227  0.7961  0.8527
 9665TIP3   OH253189   3.363   1.602  10.100 -0.1348  0.8367 -0.2777
 9665TIP3    H153190   3.318   1.653  10.033 -0.0229  0.2956 -0.7725
 9665TIP3    H253191   3.450   1.643  10.107 -0.5531  1.6561  0.4254
 9666TIP3   OH253192   4.577   4.295  10.365 -0.1311  0.0933 -0.0039
 9666TIP3    H153193   4.553   4.386  10.381  1.5303  0.4311  0.8296
 9666TIP3    H253194   4.612   4.295  10.276  0.0830  0.3254  0.0791
 9667TIP3   OH253195   5.644   5.157   8.429 -0.0744 -0.2711  0.3295
 9667TIP3    H153196   5.731   5.117   8.422  0.1995 -0.0262  1.8636
 9667TIP3    H253197   5.651   5.238   8.379  0.3647 -0.5819 -0.1309
 9668TIP3   OH253198   3.907   4.147   9.369  0.3284 -0.7331  0.6360
 9668TIP3    H153199   3.902   4.134   9.464  2.1881 -2.6032  0.5695
 9668TIP3    H253200   3.990   4.192   9.356 -0.6927  1.0393 -0.0494
 9669TIP3   OH253201   5.592   2.056   8.404  0.2776 -0.2550  0.0060
 9669TIP3    H153202   5.582   2.149   8.422 -2.6048 -0.6964  1.1898
 9669TIP3    H253203   5.684   2.047   8.377  1.1533  2.6230  1.5436
 9670TIP3   OH253204   1.379   2.611   7.883  0.1036 -0.2197  0.3441
 9670TIP3    H153205   1.457   2.563   7.911 -0.3715 -0.1481  1.9105
 9670TIP3    H253206   1.313   2.543   7.869 -0.3003 -0.1347  1.6584
 9671TIP3   OH253207   3.510   5.781  10.164  0.4511  0.4832  0.8273
 9671TIP3    H153208   3.510   5.848  10.232  1.2929  0.6742  0.6433
 9671TIP3    H253209   3.479   5.826  10.085  0.6050  0.5499  0.8054
 9672TIP3   OH253210   2.609   4.080  10.392  0.2558  0.3548  0.3429
 9672TIP3    H153211   2.636   4.155  10.444  0.0049  1.6580 -1.3144
 9672TIP3    H253212   2.572   4.118  10.312  0.8809 -1.5327 -0.9154
 9673TIP3   OH253213   4.799   0.298   8.887  0.6772 -0.2606  0.4523
 9673TIP3    H153214   4.891   0.273   8.894  0.3131 -1.5912  0.9088
 9673TIP3    H253215   4.772   0.316   8.977  0.3466 -0.4475  0.3937
 9674TIP3   OH253216   3.028   6.666   8.409  0.5010 -0.0951  0.4072
 9674TIP3    H153217   3.035   6.594   8.471  0.0168  0.7493  1.4772
 9674TIP3    H253218   2.936   6.668   8.384  0.6960 -0.4359 -0.3613
 9675TIP3   OH253219   1.239   2.966   8.694  0.4687 -0.2904 -0.2103
 9675TIP3    H153220   1.225   2.974   8.789 -0.6232 -0.3629 -0.3494
 9675TIP3    H253221   1.251   2.872   8.680 -5.2625 -1.3533 -0.7563
 9676TIP3   OH253222   0.500   5.176  11.337  0.1268  0.4488 -0.4518
 9676TIP3    H153223   0.485   5.163  11.431 -0.1786  0.2087 -0.5308
 9676TIP3    H253224   0.431   5.237  11.311  0.8875  1.3961 -0.3012
 9677TIP3   OH253225   6.121   5.573   9.266  0.7649  0.1838  0.2260
 9677TIP3    H153226   6.173   5.641   9.224  2.6385 -0.4363  1.4079
 9677TIP3    H253227   6.167   5.554   9.348 -0.0024 -2.0716  0.2223
 9678TIP3   OH253228   3.600   5.512   9.848 -0.2521 -0.0958  0.0195
 9678TIP3    H153229   3.666   5.475   9.907  0.3686 -1.5267 -1.4787
 9678TIP3    H253230   3.620   5.605   9.845  2.1366 -0.5737 -0.8486
 9679TIP3   OH253231   5.445   2.297  10.107 -0.1207 -0.2372  0.5039
 9679TIP3    H153232   5.533   2.261  10.095 -0.4455 -0.4172 -1.8596
 9679TIP3    H253233   5.435   2.360  10.035 -2.0043 -0.4305  0.5331
 9680TIP3   OH253234   0.400   5.318   8.246 -0.0818  0.5956  0.2528
 9680TIP3    H153235   0.375   5.410   8.250  0.3355  0.7546 -0.6190
 9680TIP3    H253236   0.345   5.276   8.313  0.7247  1.6805  1.6591
 9681TIP3   OH253237   2.971   3.072   8.536  0.2801  0.1929 -0.3896
 9681TIP3    H153238   2.945   3.162   8.555  2.3276  0.4926  1.4151
 9681TIP3    H253239   2.991   3.071   8.443 -0.8899  1.2741 -0.6751
 9682TIP3   OH253240   6.225   5.470   9.491 -0.4585  0.3818 -0.0904
 9682TIP3    H153241   6.318   5.466   9.514 -0.5937 -0.9332  0.3052
 9682TIP3    H253242   6.205   5.383   9.458 -0.8031  1.5577 -3.2529
 9683TIP3   OH253243   1.959   5.388   8.018 -0.7639  0.2219 -0.0908
 9683TIP3    H153244   1.878   5.368   8.066 -0.1570 -0.4023  0.7223
 9683TIP3    H253245   1.969   5.483   8.025 -0.3134  0.0927  1.7248
 9684TIP3   OH253246   1.590   0.149   9.301  0.2434 -0.3158  0.4012
 9684TIP3    H153247   1.505   0.111   9.322  0.2836 -1.5134 -1.4236
 9684TIP3    H253248   1.643   0.075   9.273  1.7507  0.4900  0.9838
 9685TIP3   OH253249   0.326   1.907   8.686 -0.0997  0.2923  0.0303
 9685TIP3    H153250   0.267   1.907   8.762 -0.0898 -0.1412  0.0429
 9685TIP3    H253251   0.292   1.837   8.630  0.9252 -0.5869  0.4627
 9686TIP3   OH253252   0.809   6.323   9.533 -0.8020  0.0447 -0.3178
 9686TIP3    H153253   0.807   6.362   9.445 -4.3253 -2.4921 -1.6237
 9686TIP3    H253254   0.847   6.236   9.519 -0.5309 -0.0420  0.8760
 9687TIP3   OH253255   3.334   2.032   8.754 -0.8305 -0.2217 -0.4577
 9687TIP3    H153256   3.330   2.048   8.660 -0.7526  0.7300 -0.3078
 9687TIP3    H253257   3.245   2.004   8.778 -1.5085  1.8052 -0.4337
 9688TIP3   OH253258   4.272   6.143   8.369  0.0780  0.0701 -0.1394
 9688TIP3    H153259   4.189   6.186   8.388 -2.3793 -2.9563 -2.7408
 9688TIP3    H253260   4.316   6.201   8.307 -0.8307  1.0319  0.0973
 9689TIP3   OH253261   0.959   1.991   8.525 -0.2059 -0.3836 -0.1634
 9689TIP3    H153262   1.051   2.001   8.498 -0.1029  0.5079  0.4694
 9689TIP3    H253263   0.962   1.984   8.620 -0.7926 -0.3934 -0.1413
 9690TIP3   OH253264   1.203   1.181  10.094  0.2252  0.3863 -0.2873
 9690TIP3    H153265   1.273   1.119  10.116 -1.4569 -1.1998  0.9574
 9690TIP3    H253266   1.225   1.260  10.142  0.6209 -0.4686  1.0108
 9691TIP3   OH253267   6.202   5.058  10.300 -0.3936  0.0063 -0.2372
 9691TIP3    H153268   6.183   5.137  10.350 -0.0195  0.9241 -1.4810
 9691TIP3    H253269   6.129   4.998  10.321  0.3391 -0.1288  2.2379
 9692TIP3   OH253270   0.718   3.569  10.848  0.2712  0.2191 -0.4453
 9692TIP3    H153271   0.672   3.652  10.836 -0.2781 -0.2261 -1.5619
 9692TIP3    H253272   0.781   3.586  10.919  1.2736  2.0635 -1.7037
 9693TIP3   OH253273   5.533   1.778  10.184  0.0273  0.2642 -0.3690
 9693TIP3    H153274   5.624   1.747  10.183  1.0666  3.0094 -2.1483
 9693TIP3    H253275   5.521   1.820  10.099 -2.3387  1.5363  0.5024
 9694TIP3   OH253276   1.509   5.318   8.198 -0.6572  0.2089  0.1037
 9694TIP3    H153277   1.503   5.302   8.104 -2.1346 -1.5353  0.4438
 9694TIP3    H253278   1.438   5.379   8.216  0.0502  1.0876  0.0277
 9695TIP3   OH253279   5.193   3.323   9.222  0.6145  0.0351  0.4371
 9695TIP3    H153280   5.263   3.387   9.209  0.9502 -0.3895  0.0827
 9695TIP3    H253281   5.229   3.261   9.286  1.0931 -0.9103 -0.6956
 9696TIP3   OH253282   4.929   6.469   9.054 -0.2136 -0.3205  0.1989
 9696TIP3    H153283   4.950   6.559   9.079  0.7822 -0.1386 -1.1890
 9696TIP3    H253284   4.993   6.447   8.986 -0.4318 -2.0836  0.5130
 9697TIP3   OH253285   6.079   2.700   8.006  0.4673 -0.0768  0.6146
 9697TIP3    H153286   6.038   2.700   8.092  1.4210  0.3397  1.0829
 9697TIP3    H253287   6.043   2.623   7.962  0.6408 -0.8081  1.7227
 9698TIP3   OH253288   5.799   3.793  10.775  0.0866  0.5615  0.0665
 9698TIP3    H153289   5.844   3.868  10.813 -3.0040  3.2641 -1.1340
 9698TIP3    H253290   5.797   3.811  10.681  0.6691 -1.9256 -0.4941
 9699TIP3   OH253291   5.536   1.157   9.419 -0.3047  0.2457 -0.1213
 9699TIP3    H153292   5.469   1.097   9.386  0.4517 -1.5573  1.4605
 9699TIP3    H253293   5.486   1.227   9.462 -1.1867 -0.2755 -0.2632
 9700TIP3   OH253294   0.541   3.862   9.015  0.1103  0.5035 -0.0355
 9700TIP3    H153295   0.517   3.930   8.953  0.2215  0.8481  0.2994
 9700TIP3    H253296   0.636   3.859   9.013  0.0869 -0.2671 -0.7149
 9701TIP3   OH253297   2.845   0.378   8.779  0.1836 -0.5345 -0.3917
 9701TIP3    H153298   2.921   0.398   8.833  0.0563  1.0661 -0.7652
 9701TIP3    H253299   2.787   0.329   8.837  1.0032 -0.7805  0.2426
 9702TIP3   OH253300   5.512   3.817   9.007  0.1942 -0.2526  0.4140
 9702TIP3    H153301   5.488   3.869   9.083 -0.7009  1.1664 -0.7882
 9702TIP3    H253302   5.429   3.793   8.967  0.6397 -1.4172  0.1581
 9703TIP3   OH253303   0.508   2.911   9.097 -0.6191  0.7768 -0.2149
 9703TIP3    H153304   0.415   2.896   9.080 -1.4124  0.3229  3.5431
 9703TIP3    H253305   0.545   2.823   9.105  0.0670  0.9578 -1.2063
 9704TIP3   OH253306   5.394   1.536  10.212  0.0656 -0.7082 -0.0528
 9704TIP3    H153307   5.448   1.459  10.232 -0.0274 -0.4385  1.3471
 9704TIP3    H253308   5.457   1.608  10.202  0.0189  0.3249  4.7832
 9705TIP3   OH253309   0.087   3.965  10.287  0.0453 -0.3302  0.4365
 9705TIP3    H153310   0.090   4.013  10.370 -1.0140 -1.8973  1.4463
 9705TIP3    H253311   0.178   3.960  10.259  0.2659  1.4948  0.7239
 9706TIP3   OH253312   6.428   3.311  10.406  0.2664 -0.0410  0.3482
 9706TIP3    H153313   6.403   3.292  10.315  1.6731 -1.8380  0.2627
 9706TIP3    H253314   6.360   3.370  10.438 -1.1686 -0.6501 -1.3802
 9707TIP3   OH253315   1.047   1.309   8.932  0.5602 -0.0452  0.6168
 9707TIP3    H153316   1.014   1.319   8.843  0.4260  1.6023  0.8339
 9707TIP3    H253317   1.101   1.229   8.928 -1.1842 -1.2403 -0.3825
 9708TIP3   OH253318   0.714   0.698   8.374 -0.0886 -0.1466 -0.0098
 9708TIP3    H153319   0.718   0.791   8.351 -1.9715  0.0638  0.3034
 9708TIP3    H253320   0.692   0.698   8.467 -1.5703 -0.8505 -0.3242
 9709TIP3   OH253321   6.474   0.554  10.523 -0.0036  0.5248  1.0827
 9709TIP3    H153322   6.498   0.550  10.615  0.4608 -0.7834  0.9282
 9709TIP3    H253323   6.383   0.525  10.519  0.8405 -2.4258  0.8720
 9710TIP3   OH253324   5.704   1.353  10.375  0.1140 -0.1595  0.1614
 9710TIP3    H153325   5.754   1.435  10.375  1.7026 -1.0581 -1.1832
 9710TIP3    H253326   5.768   1.286  10.351 -1.3098 -1.6943  0.4670
 9711TIP3   OH253327   6.246   6.585   8.041 -0.5250  0.1125  0.4329
 9711TIP3    H153328   6.273   6.516   8.102 -0.6877 -0.2505  0.0989
 9711TIP3    H253329   6.229   6.539   7.959  1.4465  0.8332 -0.4338
 9712TIP3   OH253330   5.333   0.738   8.593 -0.5451  0.9215  0.0534
 9712TIP3    H153331   5.325   0.655   8.545 -0.2176  1.3813 -0.8111
 9712TIP3    H253332   5.243   0.758   8.620 -0.9486  1.2642 -1.4319
 9713TIP3   OH253333   3.458   4.587   7.919 -0.5987 -0.1516  0.2299
 9713TIP3    H153334   3.516   4.602   7.844  0.6640  1.7677  1.5141
 9713TIP3    H253335   3.494   4.509   7.961 -0.4857 -0.4344 -0.3660
 9714TIP3   OH253336   2.063   4.854   8.725  0.2823 -0.3771  0.5502
 9714TIP3    H153337   2.107   4.807   8.654  1.1726 -0.1599  0.9405
 9714TIP3    H253338   2.115   4.834   8.803  0.2000  0.5903  0.8699
 9715TIP3   OH253339   3.293   0.469  10.160  0.1088 -0.1182  0.3068
 9715TIP3    H153340   3.263   0.381  10.137 -0.4400  0.0962  0.1643
 9715TIP3    H253341   3.388   0.464  10.157  0.0936 -0.1443 -1.9161
 9716TIP3   OH253342   0.920   0.866   9.933  0.0778  0.5131  0.4246
 9716TIP3    H153343   0.898   0.841   9.844 -1.5801 -0.0415  0.9691
 9716TIP3    H253344   0.936   0.783   9.978  1.9341  0.8238  0.4349
 9717TIP3   OH253345   2.030   4.890   7.821 -0.0454 -0.3551  0.2054
 9717TIP3    H153346   1.985   4.856   7.899  1.4677  0.4805  1.4869
 9717TIP3    H253347   1.962   4.939   7.775 -0.8594 -0.4540  1.2511
 9718TIP3   OH253348   5.156   4.294   8.551 -0.0321 -0.1683 -0.2149
 9718TIP3    H153349   5.151   4.377   8.503 -2.7545 -0.5515 -0.7606
 9718TIP3    H253350   5.111   4.311   8.633  3.0201 -0.0417  1.6063
 9719TIP3   OH253351   6.006   5.108   9.991 -1.0570 -0.1133 -0.3394
 9719TIP3    H153352   5.995   5.190  10.040 -0.9220 -0.3172  0.0333
 9719TIP3    H253353   6.048   5.135   9.909  0.4840 -0.0068  0.4629
 9720TIP3   OH253354   2.017   2.395   7.739  0.2539 -0.2143  0.2732
 9720TIP3    H153355   2.092   2.445   7.705  1.6897 -0.6739  2.5240
 9720TIP3    H253356   2.035   2.305   7.712  0.7752 -0.3885  1.1444
 9721TIP3   OH253357   1.679   3.579  10.485 -0.9800  0.2557  0.1524
 9721TIP3    H153358   1.658   3.609  10.574  0.3240 -0.4186  0.7102
 9721TIP3    H253359   1.708   3.489  10.497 -2.3655 -0.4099 -1.1864
 9722TIP3   OH253360   1.851   4.838   9.393  0.0401  0.0637  0.5491
 9722TIP3    H153361   1.922   4.886   9.434  0.7184 -0.6679  0.2488
 9722TIP3    H253362   1.833   4.887   9.312 -0.6177  0.9206  1.1863
 9723TIP3   OH253363   0.576   5.852   9.583  0.1114  0.0051  0.3454
 9723TIP3    H153364   0.564   5.919   9.517 -2.1457 -0.6630 -0.0271
 9723TIP3    H253365   0.607   5.775   9.535  1.6236  0.4270  0.6030
 9724TIP3   OH253366   0.072   6.569   8.675  0.0779 -0.8516 -0.1034
 9724TIP3    H153367   0.136   6.590   8.744 -0.2651  2.4301 -0.6203
 9724TIP3    H253368   0.031   6.653   8.655 -1.3931 -2.1107 -2.8074
 9725TIP3   OH253369   5.968   0.697   8.324  0.2617 -0.0031  0.4746
 9725TIP3    H153370   5.945   0.750   8.401  1.7874  0.4114  0.6789
 9725TIP3    H253371   5.952   0.754   8.250  0.5890  0.2723  0.6118
 9726TIP3   OH253372   2.035   3.630   8.507  0.4080  0.3143 -0.2203
 9726TIP3    H153373   2.026   3.601   8.416  0.9357  1.0493 -0.5093
 9726TIP3    H253374   2.056   3.723   8.502 -1.2553  0.7975  0.7021
 9727TIP3   OH253375   0.375   6.492   9.847  0.1618 -0.1355 -0.4125
 9727TIP3    H153376   0.305   6.438   9.884  0.7833  0.6394  2.1401
 9727TIP3    H253377   0.424   6.433   9.790 -1.6459 -1.0892 -1.0473
 9728TIP3   OH253378   6.498   0.440  10.265 -0.0356 -0.3203 -0.1821
 9728TIP3    H153379   6.579   0.389  10.276 -0.0040 -0.6937 -1.8200
 9728TIP3    H253380   6.484   0.482  10.349  1.7260 -0.4816  0.2290
 9729TIP3   OH253381   1.419   4.965  10.278 -0.2715  0.2294 -0.1053
 9729TIP3    H153382   1.463   4.956  10.194  0.6354  0.7359  0.3072
 9729TIP3    H253383   1.394   4.875  10.301  1.7428 -0.2701  0.2761
 9730TIP3   OH253384   1.573   1.107   9.961 -0.5023  0.0655 -0.3942
 9730TIP3    H153385   1.478   1.115   9.951 -0.8781 -2.8588  0.1127
 9730TIP3    H253386   1.596   1.028   9.912  1.5500  0.2360  0.1945
 9731TIP3   OH253387   3.155   1.112   9.524 -0.4891 -0.2659  0.1166
 9731TIP3    H153388   3.213   1.077   9.592 -0.6479 -0.4230  0.1727
 9731TIP3    H253389   3.080   1.147   9.572 -1.7869 -2.5943 -0.0877
 9732TIP3   OH253390   4.716   5.875  10.530  0.3603 -0.4741 -0.0240
 9732TIP3    H153391   4.763   5.833  10.458  1.7383  0.2081  0.4374
 9732TIP3    H253392   4.757   5.840  10.609 -0.3320 -0.3261  0.4069
 9733TIP3   OH253393   0.436   0.540   8.805  0.5430 -0.9247 -0.5975
 9733TIP3    H153394   0.527   0.545   8.833  0.5990  0.6701 -0.9734
 9733TIP3    H253395   0.385   0.543   8.886  0.8094 -1.4896 -0.4068
 9734TIP3   OH253396   2.899   3.809   8.823 -0.2252 -0.0429 -0.3722
 9734TIP3    H153397   2.908   3.764   8.908 -0.1529 -0.5091 -0.6205
 9734TIP3    H253398   2.862   3.742   8.765 -1.0250  0.5059 -0.5143
 9735TIP3   OH253399   0.771   2.220   9.575 -0.2570  0.1820 -0.0043
 9735TIP3    H153400   0.860   2.191   9.557 -0.0859  1.9932 -2.8558
 9735TIP3    H253401   0.749   2.182   9.660  3.1559 -0.4355  0.7499
 9736TIP3   OH253402   1.480   0.570   8.743  0.2224 -0.2155 -0.3672
 9736TIP3    H153403   1.439   0.546   8.660 -1.8169 -1.8577  1.0143
 9736TIP3    H253404   1.428   0.524   8.810  2.9661 -0.5412  1.7022
 9737TIP3   OH253405   1.201   5.148   8.024 -0.3388 -0.5242 -0.2541
 9737TIP3    H153406   1.221   5.136   7.931  0.3645 -0.4552 -0.1166
 9737TIP3    H253407   1.115   5.189   8.025  0.2455  0.7778 -0.9136
 9738TIP3   OH253408   0.161   5.804  10.983  0.1448 -0.6527  0.2028
 9738TIP3    H153409   0.090   5.741  10.996 -1.1424 -0.0252 -2.7794
 9738TIP3    H253410   0.127   5.887  11.017 -0.3315 -0.5053 -0.5939
 9739TIP3   OH253411   2.692   0.600   9.363 -0.4093  0.0381  0.2960
 9739TIP3    H153412   2.640   0.680   9.368 -1.9605 -0.7022 -2.2382
 9739TIP3    H253413   2.748   0.612   9.287  1.2918 -0.2500  1.4610
 9740TIP3   OH253414   5.425   0.875   8.366  0.2995 -0.1456 -0.3940
 9740TIP3    H153415   5.423   0.806   8.431  0.1828  0.3857  0.1780
 9740TIP3    H253416   5.427   0.956   8.417  2.8040  0.2512 -1.0196
 9741TIP3   OH253417   3.352   3.406   9.045  0.3774 -0.4712 -0.3900
 9741TIP3    H153418   3.338   3.318   9.010  0.8798 -0.4890 -0.5525
 9741TIP3    H253419   3.447   3.415   9.050  0.3505  0.3430 -1.0924
 9742TIP3   OH253420   1.716   3.613  11.010 -0.2919  0.1238 -0.3128
 9742TIP3    H153421   1.631   3.580  10.981 -0.4463  0.3781 -0.1487
 9742TIP3    H253422   1.701   3.644  11.099  0.4461 -1.7281  0.5115
 9743TIP3   OH253423   1.868   3.221   9.621  0.0092 -0.5192  0.4868
 9743TIP3    H153424   1.784   3.177   9.607 -0.5109  0.1370  1.4067
 9743TIP3    H253425   1.871   3.238   9.715  0.4212  0.9284  0.2388
 9744TIP3   OH253426   3.946   6.133  10.499  0.4817  0.9406 -0.2819
 9744TIP3    H153427   3.974   6.178  10.578  0.3937  1.1373 -0.3624
 9744TIP3    H253428   3.965   6.041  10.516  0.1151  0.9338  0.1233
 9745TIP3   OH253429   0.171   3.958   8.989 -0.3677 -0.5007 -0.1191
 9745TIP3    H153430   0.235   3.959   8.918  0.4878 -0.9111  0.6216
 9745TIP3    H253431   0.161   4.049   9.015 -1.1576 -0.2775 -1.1676
 9746TIP3   OH253432   5.449   5.474  10.580  0.2265  0.5100  0.2786
 9746TIP3    H153433   5.385   5.522  10.528  0.5395 -0.7727 -1.3401
 9746TIP3    H253434   5.400   5.401  10.618  0.7178 -0.6327 -1.1832
 9747TIP3   OH253435   1.580   4.503  11.784 -0.1841 -0.1954 -0.0077
 9747TIP3    H153436   1.493   4.517  11.746  0.1346  1.1305 -0.2768
 9747TIP3    H253437   1.629   4.582  11.763  0.5570 -0.1707  1.6526
 9748TIP3   OH253438   0.308   1.055  10.856 -0.1513 -0.7393  0.0243
 9748TIP3    H153439   0.240   1.046  10.922 -1.8205  0.6815 -1.4052
 9748TIP3    H253440   0.286   1.135  10.809  2.1967 -0.5386 -0.8973
 9749TIP3   OH253441   4.773   4.440   8.484  0.0768  0.0906 -0.0141
 9749TIP3    H153442   4.761   4.504   8.554  1.7062  1.3534 -0.8083
 9749TIP3    H253443   4.795   4.493   8.407  1.9361 -1.4033 -0.5948
 9750TIP3   OH253444   3.284   4.466   9.535 -0.1851  0.3877 -0.5636
 9750TIP3    H153445   3.306   4.559   9.536  1.4038  0.0807 -2.1158
 9750TIP3    H253446   3.214   4.457   9.600  1.1057  2.2715  1.2189
 9751TIP3   OH253447   5.930   4.203   9.623 -0.4000  0.7038 -1.1349
 9751TIP3    H153448   6.018   4.204   9.586  0.5495 -0.4007  0.9001
 9751TIP3    H253449   5.924   4.283   9.675  0.4088 -0.3724  0.7272
 9752TIP3   OH253450   2.449   6.501   9.915  0.0887  0.2761 -0.1413
 9752TIP3    H153451   2.512   6.539   9.977 -0.7193  0.9428  0.3048
 9752TIP3    H253452   2.406   6.577   9.876 -0.8804 -0.1633  0.0399
 9753TIP3   OH253453   6.390   2.154  10.108  0.0441 -0.2137  0.6375
 9753TIP3    H153454   6.405   2.061  10.090 -0.1038 -0.4598  1.7037
 9753TIP3    H253455   6.298   2.159  10.133  0.4183 -0.0372  2.0474
 9754TIP3   OH253456   4.214   1.725   9.372  0.5486 -0.0053 -0.3853
 9754TIP3    H153457   4.139   1.783   9.357  0.0462 -0.6109 -0.2730
 9754TIP3    H253458   4.284   1.762   9.318  0.4876  1.1629  0.2969
 9755TIP3   OH253459   1.072   6.215   8.429 -0.4913  0.2995 -0.7106
 9755TIP3    H153460   1.131   6.221   8.504  0.9705 -0.8160 -1.7248
 9755TIP3    H253461   1.108   6.278   8.366  0.9720 -1.8792 -2.1716
 9756TIP3   OH253462   4.869   3.858  10.903 -0.3002 -0.0220 -0.0907
 9756TIP3    H153463   4.875   3.900  10.817  0.9437  1.1284  0.5270
 9756TIP3    H253464   4.782   3.883  10.935 -0.4294  0.2655 -0.6439
 9757TIP3   OH253465   2.915   2.829  11.519  0.4210 -0.0895 -0.1639
 9757TIP3    H153466   3.004   2.802  11.542  0.4016 -1.2083 -1.2394
 9757TIP3    H253467   2.906   2.805  11.427 -1.5824 -1.7126  0.3651
 9758TIP3   OH253468   2.314   3.862  10.217  0.2278  0.3760  0.2800
 9758TIP3    H153469   2.225   3.829  10.204  0.6265 -1.4129  1.6289
 9758TIP3    H253470   2.312   3.902  10.304  0.2940  2.1202 -0.4835
 9759TIP3   OH253471   2.746   1.138  11.177  0.2199  0.2814  0.3888
 9759TIP3    H153472   2.731   1.227  11.147  2.2775  0.3426 -0.6096
 9759TIP3    H253473   2.840   1.132  11.190  0.4519 -2.3049 -1.5555
 9760TIP3   OH253474   1.015   3.629  10.766 -0.1904  0.5829  0.2087
 9760TIP3    H153475   1.092   3.670  10.727 -0.2925  0.8718  0.3106
 9760TIP3    H253476   0.947   3.696  10.762 -1.1842 -0.4500 -2.1472
 9761TIP3   OH253477   4.981   3.254   8.213  0.0731  0.5143  0.2271
 9761TIP3    H153478   5.052   3.276   8.152  1.1235 -0.0345  1.2050
 9761TIP3    H253479   4.983   3.159   8.218  0.3602  0.5683  1.4948
 9762TIP3   OH253480   0.151   1.461   9.250  0.0948 -0.3179  1.0546
 9762TIP3    H153481   0.076   1.419   9.208  1.0792 -1.1916  0.0770
 9762TIP3    H253482   0.158   1.546   9.207 -0.7467  0.0523  1.6459
 9763TIP3   OH253483   4.324   4.723  10.712 -0.7070  0.3488  0.2471
 9763TIP3    H153484   4.296   4.752  10.625 -0.4027  0.3714  0.1565
 9763TIP3    H253485   4.419   4.715  10.706 -0.9261 -3.3883 -0.5924
 9764TIP3   OH253486   2.005   2.777   8.068  0.6402  0.3689 -0.5411
 9764TIP3    H153487   2.064   2.703   8.051  0.0856  0.2292 -1.9981
 9764TIP3    H253488   1.968   2.759   8.154 -0.2176 -1.5711 -1.2657
 9765TIP3   OH253489   6.446   2.902   8.823 -0.0876 -0.2748 -0.3196
 9765TIP3    H153490   6.470   2.820   8.779  0.4747 -0.3391  0.0981
 9765TIP3    H253491   6.418   2.960   8.752  0.0906 -0.6270 -0.6797
 9766TIP3   OH253492   0.177   4.622   8.639 -0.1206  0.0167  0.1843
 9766TIP3    H153493   0.127   4.552   8.681 -0.7476  0.1967 -0.2350
 9766TIP3    H253494   0.138   4.629   8.552  0.3408  0.4802  0.0116
 9767TIP3   OH253495   4.695   4.110   9.403 -0.0661  0.4002 -0.0894
 9767TIP3    H153496   4.688   4.065   9.488  0.2024 -0.6398 -0.6059
 9767TIP3    H253497   4.785   4.142   9.401  1.0528 -2.5472 -1.3895
 9768TIP3   OH253498   5.663   1.821   9.878  0.2332 -0.2641  0.5979
 9768TIP3    H153499   5.725   1.868   9.934  0.2161  0.4952  0.0083
 9768TIP3    H253500   5.713   1.745   9.846  1.5816  1.3194 -1.3784
 9769TIP3   OH253501   0.574   5.316   9.659  0.0987  0.4329 -0.4476
 9769TIP3    H153502   0.621   5.364   9.727  1.0049  0.1050 -0.8332
 9769TIP3    H253503   0.623   5.235   9.648 -0.5404  0.0969 -0.8890
 9770TIP3   OH253504   2.175   2.322  10.670 -0.2141  0.3488  0.0901
 9770TIP3    H153505   2.200   2.238  10.708 -0.1723  0.7536  0.9800
 9770TIP3    H253506   2.240   2.384  10.703  0.8255  0.4493 -1.9617
 9771TIP3   OH253507   2.339   2.243   8.794 -0.3994  0.1420 -0.0143
 9771TIP3    H153508   2.370   2.323   8.751  0.1900  0.1941  0.4974
 9771TIP3    H253509   2.252   2.228   8.757 -0.0085  0.3290 -1.0328
 9772TIP3   OH253510   6.748   5.834  10.658  0.5020 -0.3800  0.4475
 9772TIP3    H153511   6.797   5.906  10.698 -0.3457 -0.1455  1.1002
 9772TIP3    H253512   6.802   5.756  10.673 -0.6384 -0.6487  3.8389
 9773TIP3   OH253513   0.446   5.783   9.131 -0.3337 -0.6595 -0.0983
 9773TIP3    H153514   0.373   5.725   9.106 -0.1163 -1.0091  0.0676
 9773TIP3    H253515   0.472   5.826   9.050 -2.6075  1.6781  0.2803
 9774TIP3   OH253516   0.803   4.924  11.367  0.6349  0.1887 -0.2768
 9774TIP3    H153517   0.880   4.938  11.422  1.3215 -2.9917 -0.2283
 9774TIP3    H253518   0.729   4.943  11.424  1.3594  0.6711  0.5226
 9775TIP3   OH253519   1.785   5.297   8.186  0.4704  0.1552  0.0340
 9775TIP3    H153520   1.803   5.211   8.222  0.4515  0.8913  1.9403
 9775TIP3    H253521   1.693   5.314   8.208  1.3660  2.0282  2.9523
 9776TIP3   OH253522   1.250   1.311  10.494 -0.4832 -0.2971 -0.3632
 9776TIP3    H153523   1.226   1.394  10.535 -0.7087 -1.8043  2.8646
 9776TIP3    H253524   1.344   1.303  10.509 -0.6043 -0.9709  0.0620
 9777TIP3   OH253525   4.763   3.941  10.657  0.0690  0.5996 -0.4109
 9777TIP3    H153526   4.669   3.935  10.671  0.2775  0.7157  1.2198
 9777TIP3    H253527   4.779   4.032  10.632 -0.3086  0.4355 -1.2675
 9778TIP3   OH253528   0.996   4.674  11.099 -0.1980  0.3531 -0.1690
 9778TIP3    H153529   1.091   4.679  11.103 -0.0600 -1.5257 -0.3151
 9778TIP3    H253530   0.969   4.660  11.190 -0.4163  1.6076 -0.0221
 9779TIP3   OH253531   4.284   4.914  10.923  0.0753  0.5262  0.1166
 9779TIP3    H153532   4.369   4.888  10.960 -0.4825 -0.1167  0.9707
 9779TIP3    H253533   4.259   4.840  10.867  1.4491  1.9468 -2.5889
 9780TIP3   OH253534   0.697   6.642  11.021  0.0493  0.0972 -0.2132
 9780TIP3    H153535   0.673   6.727  11.057  0.9697  1.0885 -1.8081
 9780TIP3    H253536   0.677   6.580  11.091  1.9430  1.8876  2.0810
 9781TIP3   OH253537   2.105   0.637  10.722 -0.1171 -0.2554  0.2628
 9781TIP3    H153538   2.152   0.570  10.771  0.2292 -1.3612 -1.4614
 9781TIP3    H253539   2.040   0.588  10.672  0.1403  0.6691 -1.0403
 9782TIP3   OH253540   1.133   5.194  10.895 -0.3072  0.2368  0.2607
 9782TIP3    H153541   1.142   5.137  10.971  0.5565 -0.3285 -0.2397
 9782TIP3    H253542   1.196   5.265  10.910 -1.7101  1.3639  1.1064
 9783TIP3   OH253543   3.900   4.213  10.735 -0.2056 -0.2587 -0.3372
 9783TIP3    H153544   3.899   4.294  10.785 -1.1819  0.1909 -1.0651
 9783TIP3    H253545   3.950   4.152  10.789 -0.0860  0.6091  0.5494
 9784TIP3   OH253546   2.342   5.638   9.180  1.0466  0.1629  0.0430
 9784TIP3    H153547   2.317   5.554   9.219 -0.1950  0.5066  0.0104
 9784TIP3    H253548   2.266   5.695   9.193  1.3951  0.9128 -1.0509
 9785TIP3   OH253549   6.183   5.678   9.654  0.0857 -0.1721 -0.4874
 9785TIP3    H153550   6.204   5.640   9.569 -0.3377  0.2469 -0.7878
 9785TIP3    H253551   6.137   5.608   9.702 -0.3543 -0.1644 -0.8915
 9786TIP3   OH253552   0.493   3.168   9.220  0.2930  0.0656  0.3882
 9786TIP3    H153553   0.570   3.163   9.276  2.2148 -0.0328 -2.1065
 9786TIP3    H253554   0.499   3.092   9.162 -0.9935  0.7274 -0.6851
 9787TIP3   OH253555   4.326   2.317   9.617 -0.3537  0.5496 -0.1319
 9787TIP3    H153556   4.373   2.324   9.534  0.5688  1.9535  0.4571
 9787TIP3    H253557   4.382   2.262   9.672 -0.3765  0.5957 -0.0630
 9788TIP3   OH253558   2.753   1.608   9.938 -0.1336 -0.1977 -0.5301
 9788TIP3    H153559   2.768   1.578   9.849  2.1442 -2.8863  0.6337
 9788TIP3    H253560   2.662   1.585   9.957 -0.3833 -0.3398 -1.8382
 9789TIP3   OH253561   0.384   2.176   8.982 -0.0817  0.0089 -0.2036
 9789TIP3    H153562   0.479   2.179   8.976 -0.1988  0.6981 -2.4295
 9789TIP3    H253563   0.364   2.210   9.069  1.6594  0.6145 -0.0090
 9790TIP3   OH253564   2.552   6.644   8.635 -0.4759 -0.2613 -0.2131
 9790TIP3    H153565   2.467   6.600   8.634 -0.3651 -0.4853  0.0502
 9790TIP3    H253566   2.540   6.716   8.696 -0.3338 -0.5901  0.2116
 9791TIP3   OH253567   0.024   0.579   8.428  0.1484  0.3072  0.6626
 9791TIP3    H153568   0.092   0.523   8.392 -1.4595 -0.0069 -2.1706
 9791TIP3    H253569   0.023   0.657   8.371 -2.8234 -0.4168 -0.4915
 9792TIP3   OH253570   0.565   3.799  10.371  0.0830 -0.0437 -0.4873
 9792TIP3    H153571   0.515   3.875  10.343  1.2829  0.9619  0.0153
 9792TIP3    H253572   0.507   3.753  10.432 -0.7456  0.3045 -0.9959
 9793TIP3   OH253573   4.407   0.592   7.952 -0.3242 -0.0101 -0.2027
 9793TIP3    H153574   4.376   0.680   7.928 -0.3209 -0.1656 -0.7887
 9793TIP3    H253575   4.336   0.534   7.930  0.3325 -0.3568 -1.4775
 9794TIP3   OH253576   2.970   2.279   8.325  0.3507  0.3844  0.0218
 9794TIP3    H153577   2.949   2.304   8.415  0.3513  1.0060 -0.1413
 9794TIP3    H253578   3.066   2.276   8.323  0.3406 -1.3288  0.4733
 9795TIP3   OH253579   5.864   1.764   9.374  0.1733  0.8049 -0.0625
 9795TIP3    H153580   5.778   1.776   9.416 -0.4352 -3.1095  0.1868
 9795TIP3    H253581   5.850   1.793   9.284 -0.3956  3.2234  0.7332
 9796TIP3   OH253582   0.272   6.681   8.827  0.3350 -0.7801 -0.1974
 9796TIP3    H153583   0.297   6.604   8.878 -0.5974 -0.7746  0.2869
 9796TIP3    H253584   0.273   6.753   8.889  0.4083 -0.5381 -0.4728
 9797TIP3   OH253585   2.222   5.097  10.286 -0.3838 -0.2422 -0.0444
 9797TIP3    H153586   2.169   5.109  10.365 -0.4818 -0.2953 -0.1015
 9797TIP3    H253587   2.160   5.106  10.214 -0.1404  0.6320 -0.1461
 9798TIP3   OH253588   1.362   2.312   8.490  0.3678  0.0716 -0.3497
 9798TIP3    H153589   1.270   2.316   8.513  0.4504 -2.6114  0.9040
 9798TIP3    H253590   1.403   2.383   8.540 -1.0787  1.8474 -1.5983
 9799TIP3   OH253591   2.522   5.345   7.956 -0.2501  0.4658 -0.2277
 9799TIP3    H153592   2.465   5.417   7.983  0.1087  0.4510  0.6051
 9799TIP3    H253593   2.537   5.295   8.036 -1.7675 -1.4684 -1.0670
 9800TIP3   OH253594   4.818   4.905   9.175  0.6443 -0.6346  0.0775
 9800TIP3    H153595   4.766   4.829   9.200 -0.3082  0.1605  0.6382
 9800TIP3    H253596   4.784   4.976   9.230  2.8451 -0.2223  1.0358
 9801TIP3   OH253597   4.367   3.352   8.532  0.1221  0.4631  0.1975
 9801TIP3    H153598   4.407   3.280   8.581 -0.6732  1.2031  2.0224
 9801TIP3    H253599   4.442   3.401   8.496  0.6704 -1.3594 -1.3067
 9802TIP3   OH253600   4.300   3.645  10.563  0.1957  0.1524  0.0447
 9802TIP3    H153601   4.365   3.670  10.498  2.1508  0.0673  1.8657
 9802TIP3    H253602   4.335   3.565  10.603  0.1994  1.3604  2.6422
 9803TIP3   OH253603   2.473   5.851   8.069  0.0347  0.4164 -0.6091
 9803TIP3    H153604   2.501   5.932   8.111 -0.8082  1.0358 -1.2041
 9803TIP3    H253605   2.509   5.781   8.124  1.7700  1.1631 -0.7451
 9804TIP3   OH253606   0.043   4.618   8.388  0.2002 -0.3980 -0.4181
 9804TIP3    H153607  -0.021   4.624   8.317  0.0069  0.7259 -0.1703
 9804TIP3    H253608   0.113   4.564   8.353 -0.0176 -0.0819 -1.3753
 9805TIP3   OH253609   0.207   4.492   9.970  0.2121 -0.8465 -0.0813
 9805TIP3    H153610   0.183   4.411   9.925  0.1106 -1.9310  1.7958
 9805TIP3    H253611   0.265   4.463  10.040  1.5028  0.9370 -0.3610
 9806TIP3   OH253612   4.688   1.223   8.198 -0.1619  0.2581 -0.1478
 9806TIP3    H153613   4.662   1.131   8.187  0.1808  0.1853 -0.3681
 9806TIP3    H253614   4.784   1.221   8.198 -0.1360  0.7467 -1.3034
 9807TIP3   OH253615   4.516   4.701  11.304 -0.2162 -0.1169  0.2602
 9807TIP3    H153616   4.539   4.617  11.344 -0.1270  0.0358  0.5290
 9807TIP3    H253617   4.423   4.712  11.322  0.0579  0.4628  1.3662
 9808TIP3   OH253618   3.450   0.627   8.907 -0.7374  0.1071  0.4364
 9808TIP3    H153619   3.518   0.564   8.880 -1.4567 -0.2129 -0.6881
 9808TIP3    H253620   3.368   0.587   8.878 -1.3752  0.6988  1.3914
 9809TIP3   OH253621   3.464   3.407  11.673  0.4882  0.4169 -0.0328
 9809TIP3    H153622   3.435   3.383  11.585 -0.6799 -2.1297  0.9517
 9809TIP3    H253623   3.384   3.412  11.724  1.1588  1.7555  0.9308
 9810TIP3   OH253624   4.613   0.653  10.054 -0.7305  0.0239  0.1774
 9810TIP3    H153625   4.558   0.712  10.002 -1.1825 -0.5666 -0.0206
 9810TIP3    H253626   4.624   0.576   9.999 -0.2114 -0.1114  0.4709
 9811TIP3   OH253627   5.209   1.747   8.449 -0.5158  0.1336 -0.2487
 9811TIP3    H153628   5.165   1.799   8.516 -2.4046  0.4463 -1.6470
 9811TIP3    H253629   5.185   1.657   8.468  2.5765 -0.3456  2.0423
 9812TIP3   OH253630   4.040   4.852   8.487  0.7569  0.2046  0.6471
 9812TIP3    H153631   4.020   4.945   8.477  0.6359  0.0378 -0.7870
 9812TIP3    H253632   3.962   4.807   8.454  1.0766 -0.4078  0.7136
 9813TIP3   OH253633   0.825   4.230  10.842 -0.3697 -0.5641  0.4703
 9813TIP3    H153634   0.765   4.170  10.886 -1.4905  1.8101  2.3581
 9813TIP3    H253635   0.782   4.315  10.845  1.8785  0.7166 -0.6059
 9814TIP3   OH253636   6.336   0.305   8.421 -0.0437  0.3501 -0.4997
 9814TIP3    H153637   6.421   0.261   8.414  0.5445  1.3147  0.3281
 9814TIP3    H253638   6.355   0.387   8.466 -1.3270  0.8647 -0.8545
 9815TIP3   OH253639   5.472   2.802   9.646  0.3502  0.3231  0.2957
 9815TIP3    H153640   5.403   2.737   9.631  0.5291  0.4030 -1.0126
 9815TIP3    H253641   5.495   2.791   9.738 -0.6083 -0.4906  0.4668
 9816TIP3   OH253642   1.706   6.691   9.165  0.5007  0.6809  0.1615
 9816TIP3    H153643   1.647   6.626   9.129  0.4497  0.4271  0.7062
 9816TIP3    H253644   1.779   6.641   9.201 -0.4748  0.7751  2.3810
 9817TIP3   OH253645   2.257   0.137  11.408  0.1717  0.0344 -0.1555
 9817TIP3    H153646   2.191   0.086  11.455  0.1582  1.1159  1.0431
 9817TIP3    H253647   2.297   0.074  11.348 -1.8906 -0.6779 -0.8945
 9818TIP3   OH253648   3.089   3.904  10.734 -0.4028 -0.6493 -0.0927
 9818TIP3    H153649   3.023   3.873  10.673 -0.5577 -0.3708 -0.0672
 9818TIP3    H253650   3.167   3.918  10.680 -1.0873  1.5470 -0.6442
 9819TIP3   OH253651   3.435   1.444  10.881  0.7687 -0.4930  0.5038
 9819TIP3    H153652   3.397   1.519  10.834 -0.7946 -1.3744  0.3078
 9819TIP3    H253653   3.415   1.461  10.973  2.1580  0.2783  0.6977
 9820TIP3   OH253654   0.371   0.816   9.231 -0.4776  0.5515  0.5782
 9820TIP3    H153655   0.376   0.785   9.322 -2.4621  0.0989  0.5769
 9820TIP3    H253656   0.279   0.836   9.218 -1.0626 -3.0613 -2.5145
 9821TIP3   OH253657   2.959   0.548  11.561 -0.2403  0.5956 -0.0457
 9821TIP3    H153658   2.928   0.578  11.475 -1.6212 -0.6484 -0.0074
 9821TIP3    H253659   3.013   0.471  11.542  0.3458  0.9505  0.1387
 9822TIP3   OH253660   6.042   1.400  10.297  0.7394  0.3019 -0.2394
 9822TIP3    H153661   6.031   1.309  10.325  0.0523  0.5474  0.3244
 9822TIP3    H253662   6.136   1.409  10.282  1.0830 -0.0337  1.4215
 9823TIP3   OH253663   3.396   5.934  10.450  0.2269  0.0988 -0.1125
 9823TIP3    H153664   3.325   5.876  10.475 -0.2277  1.2675  1.4526
 9823TIP3    H253665   3.394   6.004  10.514  2.4490  0.4675 -0.3513
 9824TIP3   OH253666   0.170   0.351   8.760  0.2237 -0.1386 -0.4580
 9824TIP3    H153667   0.102   0.375   8.696  0.4655  2.0959  0.0240
 9824TIP3    H253668   0.127   0.359   8.845  0.8750  0.6083 -0.1839
 9825TIP3   OH253669   4.627   3.331   8.854  0.0198 -0.6444  0.0479
 9825TIP3    H153670   4.593   3.349   8.766 -2.5440  0.4547  1.1579
 9825TIP3    H253671   4.710   3.378   8.858 -0.5923  0.6263 -1.2885
 9826TIP3   OH253672   3.149   3.591  10.514 -0.5138  0.4279 -0.0642
 9826TIP3    H153673   3.164   3.512  10.463  1.7092  0.9572 -0.3040
 9826TIP3    H253674   3.131   3.659  10.449  0.0602  0.6255 -0.0219
 9827TIP3   OH253675   0.832   2.414   8.593  0.0954  0.2497 -0.1473
 9827TIP3    H153676   0.771   2.395   8.521  0.7901  0.0485 -0.6960
 9827TIP3    H253677   0.806   2.501   8.623  0.7942  1.0454 -1.7196
 9828TIP3   OH253678   3.698   4.831  10.501 -0.0349 -0.1244 -0.5883
 9828TIP3    H153679   3.711   4.798  10.412  2.2030 -0.8444 -0.0377
 9828TIP3    H253680   3.669   4.755  10.551  1.2953 -0.3757 -0.1643
 9829TIP3   OH253681   0.526   2.339   9.779 -0.0839  0.5823 -0.0618
 9829TIP3    H153682   0.468   2.414   9.765  1.2884  1.6961 -0.0371
 9829TIP3    H253683   0.467   2.264   9.787 -1.5115  1.6643  0.0001
 9830TIP3   OH253684   3.145   4.782   8.491 -0.6389  0.5637 -0.2309
 9830TIP3    H153685   3.197   4.764   8.570  0.5225 -0.3978 -1.1740
 9830TIP3    H253686   3.092   4.703   8.479  2.0553 -1.1029 -2.5270
 9831TIP3   OH253687   5.362   3.846   8.662 -0.0260  0.7508  0.5170
 9831TIP3    H153688   5.302   3.838   8.736 -0.9041 -0.8966 -0.3144
 9831TIP3    H253689   5.361   3.939   8.640 -2.2735  0.7924  0.5603
 9832TIP3   OH253690   4.150   6.687   8.985 -0.3290 -0.2776 -0.3119
 9832TIP3    H153691   4.214   6.622   8.958  0.5691 -0.1136  1.2929
 9832TIP3    H253692   4.202   6.766   9.003 -1.0600  0.0823  0.2929
 9833TIP3   OH253693   1.423   0.697   9.882  0.7169 -0.3916 -0.1423
 9833TIP3    H153694   1.414   0.712   9.788  1.4653  2.0259  0.1120
 9833TIP3    H253695   1.347   0.741   9.920  1.5340  0.4972  0.4967
 9834TIP3   OH253696   1.470   3.558  11.238  0.2685  0.8747 -0.1819
 9834TIP3    H153697   1.517   3.630  11.280  1.0114  1.2464 -1.5646
 9834TIP3    H253698   1.393   3.544  11.292  1.2493  1.2023  1.3748
 9835TIP3   OH253699   1.422   2.239  10.860  0.6199  0.1815 -0.6202
 9835TIP3    H153700   1.342   2.288  10.881  1.6421  1.3598  0.7874
 9835TIP3    H253701   1.434   2.180  10.935  1.8641  1.1316 -0.0312
 9836TIP3   OH253702   3.777   3.197   9.303  0.0185 -0.6597  0.6528
 9836TIP3    H153703   3.771   3.116   9.355  0.1075 -0.5729  0.8013
 9836TIP3    H253704   3.824   3.171   9.224  0.9252 -0.5497  1.1350
 9837TIP3   OH253705   2.404   6.153   8.361 -0.7799  0.1569 -0.0053
 9837TIP3    H153706   2.384   6.098   8.436 -3.1722  0.7786 -0.1070
 9837TIP3    H253707   2.321   6.161   8.314  0.2055  1.3608 -1.6682
 9838TIP3   OH253708   1.136   4.384  11.569  0.1475  0.1859  0.0005
 9838TIP3    H153709   1.098   4.460  11.614 -2.0979 -1.0106  0.2914
 9838TIP3    H253710   1.152   4.321  11.639  1.3710  0.1226 -0.3170
 9839TIP3   OH253711   0.589   0.485   8.244  0.5559 -0.4755 -0.2958
 9839TIP3    H153712   0.516   0.521   8.192  1.7268  2.7586  0.0759
 9839TIP3    H253713   0.623   0.560   8.293  3.6108 -2.0284  0.2125
 9840TIP3   OH253714   3.438   5.171  11.568 -0.1582 -0.3020  0.0231
 9840TIP3    H153715   3.366   5.149  11.508  0.3885  0.1913 -0.8499
 9840TIP3    H253716   3.473   5.254  11.533  0.7992 -0.5132  0.4538
 9841TIP3   OH253717   2.007   0.614  10.308  0.4606 -0.1253  0.0391
 9841TIP3    H153718   1.982   0.537  10.257  1.3103 -1.0707  1.0049
 9841TIP3    H253719   1.930   0.671  10.305  0.1395 -0.5984 -1.4263
 9842TIP3   OH253720   2.492   5.283  10.419 -0.2183  0.4041  0.4253
 9842TIP3    H153721   2.449   5.206  10.457  0.0596  0.0651  0.0540
 9842TIP3    H253722   2.562   5.248  10.365  0.3439  0.9446  0.7858
 9843TIP3   OH253723   0.452   0.173   9.194  0.1389  0.1126  0.3563
 9843TIP3    H153724   0.541   0.166   9.161 -0.0576  0.1828 -0.1952
 9843TIP3    H253725   0.438   0.266   9.208  0.3473  0.0532  1.0013
 9844TIP3   OH253726   2.084   1.750   7.914 -0.1901 -0.3917  0.4174
 9844TIP3    H153727   2.029   1.712   7.844 -1.0611  1.7136 -0.1180
 9844TIP3    H253728   2.028   1.748   7.991  0.2223 -1.3132  0.7035
 9845TIP3   OH253729   6.056   4.747   8.378  0.4436  0.3154  0.7960
 9845TIP3    H153730   6.044   4.652   8.382 -0.1026  0.4056  1.6548
 9845TIP3    H253731   6.124   4.765   8.443 -0.1091  0.5951  1.3108
 9846TIP3   OH253732   2.766   6.380  11.075 -0.1343  0.3666  0.7955
 9846TIP3    H153733   2.798   6.359  10.988  0.4007  1.6505  0.6593
 9846TIP3    H253734   2.705   6.454  11.062  0.0064  0.6218  1.5048
 9847TIP3   OH253735   3.801   4.612   8.239  1.2447 -0.1356  0.6864
 9847TIP3    H153736   3.896   4.600   8.241  1.5098  1.6212  0.2434
 9847TIP3    H253737   3.785   4.685   8.298  0.3409  0.4961 -0.3094
 9848TIP3   OH253738   0.520   0.686  11.046 -0.5847 -0.2531  0.3443
 9848TIP3    H153739   0.616   0.692  11.045 -0.6043  0.0502 -1.2330
 9848TIP3    H253740   0.497   0.700  11.138  0.7967  1.2126  0.5210
 9849TIP3   OH253741   2.975   4.959   9.979  0.1060  0.3374 -0.8218
 9849TIP3    H153742   2.955   5.015   9.904 -0.3911 -0.8772 -1.6249
 9849TIP3    H253743   2.898   4.903   9.990  0.9290 -0.8044 -0.6201
 9850TIP3   OH253744   1.404   6.583   9.520  0.3803 -0.3372 -0.2780
 9850TIP3    H153745   1.386   6.489   9.510  1.2555 -0.4946 -0.4821
 9850TIP3    H253746   1.496   6.592   9.494  0.6873  0.3704  0.9966
 9851TIP3   OH253747   0.234   1.101   8.169 -0.8634  0.2650  0.3093
 9851TIP3    H153748   0.313   1.063   8.130 -0.7636  1.4988 -0.7643
 9851TIP3    H253749   0.226   1.057   8.254  1.4808  0.7004  0.8455
 9852TIP3   OH253750   4.062   6.521   8.763 -0.2228 -0.6077 -0.5139
 9852TIP3    H153751   4.071   6.576   8.841  0.1003 -0.8067 -0.4069
 9852TIP3    H253752   4.151   6.514   8.728 -0.2470 -1.1218 -0.4813
 9853TIP3   OH253753   5.879   1.071  10.675  0.0438 -0.1946 -0.2814
 9853TIP3    H153754   5.823   0.993  10.670 -0.6078  0.2803 -0.5739
 9853TIP3    H253755   5.967   1.039  10.655 -0.3332 -0.7403 -1.1077
 9854TIP3   OH253756   2.724   6.148   8.592 -0.3218  0.1038 -0.1044
 9854TIP3    H153757   2.775   6.096   8.529 -1.6525 -0.7448 -0.5223
 9854TIP3    H253758   2.679   6.213   8.537 -2.0602 -1.1013 -0.1721
 9855TIP3   OH253759   5.659   6.704   8.529 -0.2899  0.5971 -0.3851
 9855TIP3    H153760   5.734   6.703   8.469  0.9397  0.5140  1.0828
 9855TIP3    H253761   5.643   6.797   8.544 -1.9732  0.7000 -2.4085
 9856TIP3   OH253762   6.423   1.202   8.906  0.1111 -0.0691  0.0676
 9856TIP3    H153763   6.430   1.274   8.969 -1.3582 -2.1516  2.7776
 9856TIP3    H253764   6.498   1.146   8.925 -1.2965 -1.6314  1.3234
 9857TIP3   OH253765   3.665   5.816  10.527 -0.4640  0.0833 -0.2582
 9857TIP3    H153766   3.669   5.734  10.479  0.0557 -0.3307  0.4709
 9857TIP3    H253767   3.580   5.854  10.504 -1.1508 -1.1500  0.1823
 9858TIP3   OH253768   4.711   5.024   9.803 -0.3045 -0.2989 -0.1501
 9858TIP3    H153769   4.620   4.998   9.811 -0.3057 -0.6120 -1.1013
 9858TIP3    H253770   4.708   5.115   9.775 -0.3481 -0.6805 -1.4318
 9859TIP3   OH253771   2.714   3.247   8.533  0.0108  0.5437  0.0083
 9859TIP3    H153772   2.767   3.258   8.612 -0.7745  3.5840  0.2209
 9859TIP3    H253773   2.768   3.283   8.462 -0.5649  0.8947 -0.2620
 9860TIP3   OH253774   5.181   3.050   9.616 -0.1010 -0.3569  0.0804
 9860TIP3    H153775   5.169   3.026   9.524  0.7967  0.6575 -0.3194
 9860TIP3    H253776   5.185   3.145   9.616  1.3482 -0.3928  0.9732
 9861TIP3   OH253777   6.627   6.336  10.123 -0.4189 -0.2254  0.1452
 9861TIP3    H153778   6.593   6.254  10.159 -3.0576  1.1354  0.9604
 9861TIP3    H253779   6.554   6.373  10.074 -0.6592  3.3915  2.8560
 9862TIP3   OH253780   4.978   5.683   9.592 -0.4093  0.4057  0.7247
 9862TIP3    H153781   4.991   5.718   9.504  0.3358 -1.6346 -0.0384
 9862TIP3    H253782   4.886   5.658   9.594 -0.6269  1.1824  0.8311
 9863TIP3   OH253783   1.553   4.310  10.004  0.6906 -0.1321  0.1670
 9863TIP3    H153784   1.475   4.364  10.016  0.3447 -0.8903  1.4852
 9863TIP3    H253785   1.560   4.300   9.909  0.1495  1.3129 -0.0543
 9864TIP3   OH253786   4.646   5.787   8.925 -0.0051  0.4058  0.4421
 9864TIP3    H153787   4.633   5.870   8.879  1.5219 -0.4801 -1.7675
 9864TIP3    H253788   4.564   5.772   8.972  0.6033  4.4931  3.3656
 9865TIP3   OH253789   6.204   1.551   9.003  0.1691 -0.0205  0.0209
 9865TIP3    H153790   6.165   1.479   8.953  0.0405  0.7943 -1.0987
 9865TIP3    H253791   6.130   1.610   9.020 -0.2227 -1.1650  2.9189
 9866TIP3   OH253792   1.105   2.861   9.267 -0.7276  0.2236  0.1113
 9866TIP3    H153793   1.098   2.934   9.328 -0.3267  1.0077 -0.7578
 9866TIP3    H253794   1.124   2.902   9.183  2.4863 -1.0328  0.1101
 9867TIP3   OH253795   2.587   3.447   9.610 -0.0435  0.5202 -0.3684
 9867TIP3    H153796   2.545   3.504   9.545  1.0251  1.5750 -0.1750
 9867TIP3    H253797   2.611   3.507   9.681 -0.0094 -0.4010  0.4158
 9868TIP3   OH253798   1.521   6.688   8.672  0.2627 -0.0731  0.1642
 9868TIP3    H153799   1.616   6.684   8.668  0.2879  0.4335  0.2070
 9868TIP3    H253800   1.498   6.659   8.760  0.2093 -2.8349 -0.6650
 9869TIP3   OH253801   5.333   6.122  10.369 -0.7572  0.3349  0.2137
 9869TIP3    H153802   5.415   6.144  10.414 -1.8770  2.1417  1.5150
 9869TIP3    H253803   5.286   6.205  10.362 -2.4659 -0.6317 -0.5684
 9870TIP3   OH253804   2.227   1.495   7.998  0.3110 -0.0851 -0.0119
 9870TIP3    H153805   2.213   1.588   7.980  0.9809 -0.0070 -0.1708
 9870TIP3    H253806   2.150   1.452   7.963  0.0115  0.4098  0.0308
 9871TIP3   OH253807   5.988   0.147  10.270 -0.4843 -0.1307 -0.6429
 9871TIP3    H153808   5.937   0.074  10.303 -0.2898  0.3305  0.7256
 9871TIP3    H253809   5.958   0.222  10.321  1.3677  0.1952  0.0354
 9872TIP3   OH253810   5.277   1.712   9.668  0.1348 -0.9131 -0.0930
 9872TIP3    H153811   5.363   1.709   9.626  0.1391 -0.8839 -0.0863
 9872TIP3    H253812   5.235   1.630   9.642  1.2513 -2.3596  2.2425
 9873TIP3   OH253813   1.701   5.522  10.267 -0.2875  0.3594 -0.4029
 9873TIP3    H153814   1.724   5.458  10.334 -1.1392 -0.7094 -1.1061
 9873TIP3    H253815   1.784   5.563  10.243  0.0886  0.4630  0.9926
 9874TIP3   OH253816   2.961   3.080  10.362  0.0618  0.0539  0.3886
 9874TIP3    H153817   2.938   3.035  10.443 -1.2927 -2.9303 -1.4656
 9874TIP3    H253818   2.898   3.047  10.298  3.0438 -0.3364 -2.6294
 9875TIP3   OH253819   6.262   2.127   8.067 -0.4523  0.3322  0.0434
 9875TIP3    H153820   6.348   2.164   8.050  0.1835 -1.6099 -1.2273
 9875TIP3    H253821   6.204   2.171   8.003  0.0233  0.1228 -0.5421
 9876TIP3   OH253822   1.319   3.989   8.126  0.4502 -0.0962  0.0311
 9876TIP3    H153823   1.316   3.983   8.222  0.6399 -0.6713  0.0038
 9876TIP3    H253824   1.321   4.083   8.108  0.0807  0.0265  0.5816
 9877TIP3   OH253825   6.249   4.092  10.906 -0.1922  0.2144  0.0372
 9877TIP3    H153826   6.286   4.179  10.887  1.2056 -0.1445  0.9219
 9877TIP3    H253827   6.199   4.104  10.987 -1.7261  0.6134 -0.9426
 9878TIP3   OH253828   2.010   2.192   7.959  0.4292  0.2490 -0.4264
 9878TIP3    H153829   2.091   2.176   7.910  0.2518  1.4341 -1.1323
 9878TIP3    H253830   1.940   2.173   7.897  0.1407 -0.7959  0.1920
 9879TIP3   OH253831   1.744   5.808   7.875  0.6757 -0.0405 -0.3519
 9879TIP3    H153832   1.783   5.889   7.909 -0.0461  0.3341 -0.4078
 9879TIP3    H253833   1.818   5.747   7.870  1.5356  1.0672 -1.7729
 9880TIP3   OH253834   0.642   2.447   8.373 -1.0131  0.7290 -0.3781
 9880TIP3    H153835   0.560   2.495   8.384 -2.3384 -1.7213  1.5273
 9880TIP3    H253836   0.615   2.360   8.345  0.8622 -0.2752  0.7144
 9881TIP3   OH253837   3.889   5.831   9.957  0.0513 -0.1756 -0.1230
 9881TIP3    H153838   3.830   5.865  10.024  0.2990 -0.0429  0.0335
 9881TIP3    H253839   3.967   5.804  10.007  0.3955  0.2892 -0.4055
 9882TIP3   OH253840   2.377   5.622  10.613  0.2876  0.2176 -0.1678
 9882TIP3    H153841   2.455   5.612  10.668  1.9943 -0.2157 -2.4986
 9882TIP3    H253842   2.330   5.696  10.651  1.1319 -0.3350  2.0765
 9883TIP3   OH253843   6.716   5.314  11.070 -0.0137  0.6917  0.4171
 9883TIP3    H153844   6.806   5.305  11.101 -0.3337 -0.0389  1.2014
 9883TIP3    H253845   6.667   5.250  11.122 -0.3283 -1.8823 -2.7323
 9884TIP3   OH253846   3.157   6.045   9.406 -0.2733  0.5016 -0.2293
 9884TIP3    H153847   3.250   6.050   9.426 -0.2794  0.2950 -0.1460
 9884TIP3    H253848   3.116   6.104   9.471 -0.1835  0.7588 -0.4032
 9885TIP3   OH253849   0.286   5.739   9.499 -0.4522 -0.3279  0.2408
 9885TIP3    H153850   0.362   5.720   9.444 -0.6153  0.3066 -0.2250
 9885TIP3    H253851   0.218   5.680   9.468 -0.2052 -0.7704  0.5351
 9886TIP3   OH253852   4.149   3.053   8.603 -0.6749 -0.4027  0.1837
 9886TIP3    H153853   4.227   3.052   8.547 -0.9317  1.0844 -0.2334
 9886TIP3    H253854   4.184   3.059   8.692 -0.2916  1.4783 -0.0636
 9887TIP3   OH253855   1.231   5.752   8.694  0.1193 -0.7289  0.3544
 9887TIP3    H153856   1.218   5.691   8.621 -1.0532  0.4138 -0.4298
 9887TIP3    H253857   1.169   5.723   8.761 -0.0030 -0.7605  0.2282
 9888TIP3   OH253858   3.253   1.833   9.677 -0.2195 -0.6212 -0.5574
 9888TIP3    H153859   3.291   1.833   9.764  0.7169  0.6724 -0.9402
 9888TIP3    H253860   3.187   1.763   9.679  2.0065 -2.8151  0.1950
 9889TIP3   OH253861   2.935   3.868   8.101  0.6642  0.0637 -0.7174
 9889TIP3    H153862   3.023   3.864   8.066  2.0653 -0.0518  2.4800
 9889TIP3    H253863   2.915   3.962   8.104  0.2829  0.0540 -2.2009
 9890TIP3   OH253864   4.360   1.598  10.715  0.2569  0.2398 -0.1836
 9890TIP3    H153865   4.272   1.579  10.750  0.7227  0.8465  1.4262
 9890TIP3    H253866   4.375   1.530  10.650 -1.8334  0.7352 -1.2876
 9891TIP3   OH253867   0.476   5.768  11.094  0.5920 -0.3754  0.3568
 9891TIP3    H153868   0.382   5.751  11.092  0.3179  0.6023 -3.1155
 9891TIP3    H253869   0.517   5.684  11.075  0.1063 -0.1605 -1.9389
 9892TIP3   OH253870   5.136   0.551   9.957  0.1775  0.1759  0.1549
 9892TIP3    H153871   5.198   0.623   9.959 -0.8315  1.1036  3.6175
 9892TIP3    H253872   5.056   0.586   9.997 -1.3666 -2.0316 -0.7640
 9893TIP3   OH253873   3.263   0.420  10.995 -0.1748 -0.3814  0.4355
 9893TIP3    H153874   3.209   0.351  11.035  0.3911 -1.0174  0.1151
 9893TIP3    H253875   3.317   0.452  11.067 -0.1556 -0.5515  0.4983
 9894TIP3   OH253876   4.942   6.208   9.540 -0.1778  0.5981  0.0143
 9894TIP3    H153877   5.028   6.179   9.510 -0.4621  0.1267 -0.3537
 9894TIP3    H253878   4.956   6.236   9.630  0.1179 -0.6706  0.3817
 9895TIP3   OH253879   0.292   5.494  10.822 -0.0327  0.1328  0.0780
 9895TIP3    H153880   0.378   5.511  10.784 -0.1395 -0.9163 -0.6980
 9895TIP3    H253881   0.310   5.433  10.894  0.2055  2.3502  1.9926
 9896TIP3   OH253882   1.273   4.794   9.180  0.0387 -0.0047  0.1788
 9896TIP3    H153883   1.309   4.762   9.263 -1.4565 -0.5487  0.6657
 9896TIP3    H253884   1.202   4.853   9.207 -0.0955  0.2586 -0.7279
 9897TIP3   OH253885   6.523   2.284  11.247 -0.2261  0.2568  0.3328
 9897TIP3    H153886   6.474   2.202  11.241 -0.9922  0.7482 -0.3689
 9897TIP3    H253887   6.510   2.326  11.162  0.1185  1.1265  0.6963
 9898TIP3   OH253888   0.513   5.743   7.907 -0.5427  0.0340  0.3542
 9898TIP3    H153889   0.578   5.711   7.969 -0.7585 -1.8235 -0.3022
 9898TIP3    H253890   0.484   5.665   7.861  0.5913  1.4326 -3.0732
 9899TIP3   OH253891   5.640   2.989  10.106  0.3119 -0.2629  0.3066
 9899TIP3    H153892   5.596   3.071  10.084  1.5788  0.2384 -0.5210
 9899TIP3    H253893   5.725   3.017  10.141  0.6873 -1.2042  0.1758
 9900TIP3   OH253894   4.412   4.605  10.361  0.4779 -0.5995 -0.2260
 9900TIP3    H153895   4.440   4.692  10.335 -2.1650  0.1698 -0.8530
 9900TIP3    H253896   4.396   4.559  10.279 -0.2339 -0.8992  0.0678
 9901TIP3   OH253897   4.799   1.713  10.511 -0.2971 -0.5367  0.7518
 9901TIP3    H153898   4.729   1.728  10.448  0.9646  0.2708 -0.5068
 9901TIP3    H253899   4.860   1.655  10.465  0.9389  0.5442  0.9905
 9902TIP3   OH253900   5.093   0.915   8.903  0.3472 -0.6961 -0.0961
 9902TIP3    H153901   5.155   0.950   8.840 -1.1446  1.2592 -0.5928
 9902TIP3    H253902   5.105   0.969   8.982  2.0028 -2.9321  1.3115
 9903TIP3   OH253903   0.821   3.796   8.976  0.5703 -0.0590 -0.0424
 9903TIP3    H153904   0.900   3.766   9.021  0.1913 -1.0413 -0.0258
 9903TIP3    H253905   0.844   3.793   8.883  0.6859  0.0595 -0.0191
 9904TIP3   OH253906   2.642   0.708  10.446 -0.3245 -0.4579  0.0518
 9904TIP3    H153907   2.571   0.661  10.490 -1.5458  1.3639  0.1894
 9904TIP3    H253908   2.718   0.652  10.455 -1.3984 -1.8000  1.2746
 9905TIP3   OH253909   1.689   5.207  10.189  0.0154 -0.4213  0.1704
 9905TIP3    H153910   1.647   5.243  10.111 -3.4368 -1.0848  1.5347
 9905TIP3    H253911   1.694   5.113  10.173  0.3073 -0.4312  0.3165
 9906TIP3   OH253912   2.378   2.407   8.292  0.7289 -0.4745 -0.0901
 9906TIP3    H153913   2.396   2.488   8.245  0.8918 -0.3161  0.2411
 9906TIP3    H253914   2.460   2.358   8.290  0.6603 -0.5860 -0.2007
 9907TIP3   OH253915   5.637   0.204   8.582 -0.4526 -0.3815  0.0476
 9907TIP3    H153916   5.594   0.279   8.541 -1.3652 -1.4174 -0.9583
 9907TIP3    H253917   5.620   0.215   8.676 -0.2667  0.8398 -0.0454
 9908TIP3   OH253918   0.514   6.008   9.380  0.0852  0.2745  0.1600
 9908TIP3    H153919   0.480   6.087   9.420  0.3506  1.0471 -1.0879
 9908TIP3    H253920   0.438   5.953   9.365 -0.3406  1.0182 -0.5006
 9909TIP3   OH253921   5.514   2.009   8.868 -0.1166  0.1706  0.0875
 9909TIP3    H153922   5.460   1.996   8.946 -1.5360 -1.8149 -1.1177
 9909TIP3    H253923   5.563   1.927   8.860  2.3914  1.5314  0.5475
 9910TIP3   OH253924   3.372   6.235  10.377 -0.2475  0.3730  0.4508
 9910TIP3    H153925   3.307   6.295  10.341 -0.2470  0.8126  1.1745
 9910TIP3    H253926   3.393   6.176  10.304 -1.5922  0.0897  0.2591
 9911TIP3   OH253927   0.426   5.307   8.646 -0.0119  0.2886 -0.2687
 9911TIP3    H153928   0.418   5.393   8.605 -1.0148 -0.1404 -1.0287
 9911TIP3    H253929   0.517   5.280   8.630 -0.7398 -0.5908 -3.8236
 9912TIP3   OH253930   5.320   1.303   8.133  0.1395  0.1564 -0.3924
 9912TIP3    H153931   5.354   1.363   8.199 -0.6944 -0.4743  0.6454
 9912TIP3    H253932   5.268   1.240   8.183  1.7358 -2.0120 -1.3074
 9913TIP3   OH253933   2.591   2.470  10.191 -0.5430  0.4980 -0.1199
 9913TIP3    H153934   2.581   2.514  10.107 -1.9248  1.2422  0.3897
 9913TIP3    H253935   2.623   2.538  10.250 -0.7837  0.3140  0.2294
 9914TIP3   OH253936   4.730   5.232   9.488 -0.3616  0.1404  0.2085
 9914TIP3    H153937   4.704   5.264   9.574  1.8981  1.3023  0.5044
 9914TIP3    H253938   4.813   5.187   9.502 -0.6437 -0.8979 -1.1656
 9915TIP3   OH253939   6.426   2.666  10.964  0.3847 -0.3161  0.0600
 9915TIP3    H153940   6.347   2.667  10.910 -0.3439 -0.8124  1.0743
 9915TIP3    H253941   6.395   2.691  11.051  1.4219 -0.1431  0.3902
 9916TIP3   OH253942   0.517   2.170   9.505 -0.0755 -0.7048 -0.1990
 9916TIP3    H153943   0.522   2.098   9.569  1.9784 -1.3805 -1.0438
 9916TIP3    H253944   0.608   2.199   9.495 -0.2468 -0.8928 -3.0847
 9917TIP3   OH253945   2.266   5.929   9.116  0.2268 -0.2718 -0.3121
 9917TIP3    H153946   2.317   5.999   9.075  0.9009 -0.7974 -0.3836
 9917TIP3    H253947   2.286   5.851   9.064  0.4013 -0.7580  0.4681
 9918TIP3   OH253948   3.340   2.180   9.187 -0.0550  0.5719 -0.3711
 9918TIP3    H153949   3.380   2.133   9.114 -0.5976 -2.2735  1.0342
 9918TIP3    H253950   3.248   2.189   9.162  0.0847  1.0993 -0.7196
 9919TIP3   OH253951   6.521   3.756   8.181  0.4141  0.4791 -0.5889
 9919TIP3    H153952   6.480   3.684   8.132  1.5445  0.6521 -1.8497
 9919TIP3    H253953   6.552   3.715   8.262 -2.0214  0.3082  0.3471
 9920TIP3   OH253954   5.239   5.442   8.444  0.1087 -0.0534 -0.4715
 9920TIP3    H153955   5.304   5.392   8.493  0.4593  0.9023  0.0665
 9920TIP3    H253956   5.221   5.518   8.500 -3.1255 -1.3561  0.5007
 9921TIP3   OH253957   0.493   5.624   8.756 -0.1263 -0.1902 -0.0664
 9921TIP3    H153958   0.486   5.643   8.662  1.8212  0.5369 -0.1004
 9921TIP3    H253959   0.441   5.694   8.797  0.3769  0.4766 -0.5387
 9922TIP3   OH253960   3.434   6.169  11.139  0.0857  0.1798  0.2040
 9922TIP3    H153961   3.502   6.236  11.130 -0.4308  0.7648  0.5799
 9922TIP3    H253962   3.379   6.200  11.211 -0.3920 -0.4514  0.1211
 9923TIP3   OH253963   5.462   1.633   9.908 -0.2996 -0.7801  0.0395
 9923TIP3    H153964   5.378   1.678   9.918  0.6157  0.6774  2.3375
 9923TIP3    H253965   5.527   1.704   9.914  1.1494 -2.1300  1.2909
 9924TIP3   OH253966   5.453   1.727   7.958  0.2703 -0.2587  0.6801
 9924TIP3    H153967   5.411   1.655   7.913  1.6977  1.4022 -3.8264
 9924TIP3    H253968   5.399   1.803   7.940  0.7273  0.4845  2.2014
 9925TIP3   OH253969   2.627   3.592   8.078 -0.2666  0.2674 -0.0869
 9925TIP3    H153970   2.549   3.537   8.079 -0.0096 -0.1879 -1.7507
 9925TIP3    H253971   2.612   3.654   8.007  1.0161 -0.0623 -0.6902
 9926TIP3   OH253972   0.950   1.191   9.993  0.1158  0.2043  0.1454
 9926TIP3    H153973   0.948   1.111   9.940  1.5290 -1.6945  2.7299
 9926TIP3    H253974   1.035   1.188  10.037  0.3540  3.3598  0.1325
 9927TIP3   OH253975   0.195   3.171   9.190  0.2700  0.5185 -0.2616
 9927TIP3    H153976   0.185   3.192   9.098  0.3257  0.7644 -0.2110
 9927TIP3    H253977   0.144   3.090   9.202  0.7153  0.1801 -0.6252
 9928TIP3   OH253978   0.497   1.010  11.432  0.4850  0.3037 -0.5598
 9928TIP3    H153979   0.554   1.000  11.356  0.2963  0.9420 -0.7894
 9928TIP3    H253980   0.508   1.101  11.459 -0.8861  0.6125 -0.9838
 9929TIP3   OH253981   1.793   1.989  10.981  0.1421  0.0153  0.0336
 9929TIP3    H153982   1.795   2.064  11.039 -0.5062  0.1414 -0.1007
 9929TIP3    H253983   1.876   1.993  10.933 -0.3519  1.2638 -0.7507
 9930TIP3   OH253984   6.437   0.877   9.442 -0.0310 -0.4005  0.1900
 9930TIP3    H153985   6.445   0.971   9.458 -0.8613 -0.5099  1.4159
 9930TIP3    H253986   6.503   0.838   9.500  1.0194 -0.5369 -1.0711
 9931TIP3   OH253987   1.861   6.397  10.752  0.0646 -0.2263  0.2674
 9931TIP3    H153988   1.897   6.478  10.717 -0.8368  1.2129  2.4072
 9931TIP3    H253989   1.859   6.337  10.678 -0.0666  1.9821 -1.6297
 9932TIP3   OH253990   3.539   2.355   8.531 -0.8922  0.4342  0.2297
 9932TIP3    H153991   3.477   2.282   8.532  0.2005 -0.6882 -2.5373
 9932TIP3    H253992   3.598   2.337   8.604 -0.8732 -1.2689 -0.1660
 9933TIP3   OH253993   3.517   6.559  10.914 -0.3012 -0.0993 -0.0309
 9933TIP3    H153994   3.475   6.496  10.856 -0.9108  0.0794  0.2039
 9933TIP3    H253995   3.479   6.541  11.000  0.5750 -0.3504  0.3228
 9934TIP3   OH253996   2.427   2.240  10.265  0.3707  0.1756 -0.4123
 9934TIP3    H153997   2.410   2.261  10.357  0.0921 -0.1582 -0.3857
 9934TIP3    H253998   2.488   2.308  10.236  1.6135 -0.5501  0.4166
 9935TIP3   OH253999   0.517   0.257   8.727  0.1870 -0.2562 -0.1250
 9935TIP3    H154000   0.541   0.301   8.645  1.8096 -0.7897  0.0291
 9935TIP3    H254001   0.443   0.307   8.760 -1.1794 -0.6061 -2.3980
 9936TIP3   OH254002   5.217   3.362   9.664 -0.1234  0.7060  0.4588
 9936TIP3    H154003   5.251   3.440   9.708  2.9012  0.1243 -0.5958
 9936TIP3    H254004   5.156   3.396   9.599 -0.4625  1.9890  1.4087
 9937TIP3   OH254005   0.361   2.854   8.148  0.2723  0.0674  0.3068
 9937TIP3    H154006   0.306   2.889   8.219  1.3643 -1.8600  2.2183
 9937TIP3    H254007   0.317   2.773   8.121  1.6716 -1.0794  1.3130
 9938TIP3   OH254008   2.214   0.444  10.446  0.0432  0.3945  0.1794
 9938TIP3    H154009   2.176   0.357  10.429 -0.8898  0.3874  2.0192
 9938TIP3    H254010   2.206   0.490  10.362  1.7884 -1.6741 -1.2384
 9939TIP3   OH254011   0.716   3.875  10.098 -0.6937  0.5231 -0.3684
 9939TIP3    H154012   0.660   3.931  10.151 -1.5003 -0.0887 -0.5536
 9939TIP3    H254013   0.735   3.800  10.154 -1.2966  0.0206 -0.8182
 9940TIP3   OH254014   2.648   2.037   9.994 -0.1083 -0.2272  0.0510
 9940TIP3    H154015   2.680   1.979  10.063 -0.3123  0.1816  0.4950
 9940TIP3    H254016   2.670   1.992   9.913  0.6924 -0.4162  0.3690
 9941TIP3   OH254017   1.590   0.028  10.536 -0.0963 -0.1336 -0.5726
 9941TIP3    H154018   1.641   0.104  10.505  0.1166  0.1361  0.4077
 9941TIP3    H254019   1.580   0.043  10.630 -3.0994  0.4789 -0.8896
 9942TIP3   OH254020   4.469   1.523   9.154 -0.0248  0.0151 -0.4119
 9942TIP3    H154021   4.413   1.448   9.171 -2.3555  1.3885 -1.4555
 9942TIP3    H254022   4.479   1.525   9.059  3.2369 -1.0703 -0.2196
 9943TIP3   OH254023   1.432   0.265   8.690 -0.0104 -0.5031 -0.2056
 9943TIP3    H154024   1.524   0.245   8.706  0.3206 -1.3349 -2.6495
 9943TIP3    H254025   1.384   0.213   8.753  1.1715 -1.0530  0.2645
 9944TIP3   OH254026   1.629   0.933  10.832 -0.8584 -0.0702 -0.0173
 9944TIP3    H154027   1.612   0.881  10.910  0.3623 -1.1893 -0.4484
 9944TIP3    H254028   1.562   0.904  10.769 -0.3522 -0.9556 -0.1647
 9945TIP3   OH254029   1.759   3.004  11.417 -0.2297  0.7220  0.5675
 9945TIP3    H154030   1.838   2.981  11.368 -1.6378 -3.2404 -0.2856
 9945TIP3    H254031   1.774   2.968  11.505 -1.0758 -0.2522  0.3406
 9946TIP3   OH254032   0.322   5.310   9.890 -0.2034 -0.0302 -0.0350
 9946TIP3    H154033   0.300   5.283   9.801 -0.0025 -0.5694  0.0763
 9946TIP3    H254034   0.257   5.266   9.946  0.7195 -1.1066  0.2335
 9947TIP3   OH254035   3.714   5.369   8.130  0.2529 -0.6879 -0.2559
 9947TIP3    H154036   3.755   5.429   8.068 -1.2655  0.8649  0.1517
 9947TIP3    H254037   3.626   5.405   8.143  0.6850 -0.5898  3.2606
 9948TIP3   OH254038   6.586   0.990   7.823 -0.7291  0.3823 -0.4870
 9948TIP3    H154039   6.579   0.935   7.745 -1.9815  0.7361 -0.6368
 9948TIP3    H254040   6.674   1.027   7.818 -0.7247  0.2540 -1.6344
 9949TIP3   OH254041   0.062   5.735  10.023 -0.2031  0.3053 -0.2299
 9949TIP3    H154042   0.075   5.804   9.958 -2.6142 -0.2602 -1.4438
 9949TIP3    H254043  -0.006   5.679   9.985 -0.9051 -0.7089  2.3043
 9950TIP3   OH254044   4.278   0.291   8.806  0.2866  0.8304  0.9571
 9950TIP3    H154045   4.336   0.221   8.834  0.1987  0.3797  0.0634
 9950TIP3    H254046   4.224   0.311   8.883 -0.2488 -0.6599  0.9929
 9951TIP3   OH254047   4.548   4.568   9.438 -0.3520 -0.0015 -0.4166
 9951TIP3    H154048   4.596   4.646   9.465  0.7315 -0.3998 -1.1265
 9951TIP3    H254049   4.483   4.555   9.507  0.5149  0.5956  0.5486
 9952TIP3   OH254050   2.802   1.636   9.395 -0.0339  0.0397  0.0882
 9952TIP3    H154051   2.742   1.658   9.324  0.3770  0.6940 -0.0611
 9952TIP3    H254052   2.860   1.712   9.403  1.0511 -0.7504 -0.0565
 9953TIP3   OH254053   2.888   4.385   8.988 -0.2380  0.4632 -0.9216
 9953TIP3    H154054   2.873   4.445   8.914 -2.5081  2.2633  0.8219
 9953TIP3    H254055   2.932   4.439   9.053 -0.5406 -0.3448 -0.0400
 9954TIP3   OH254056   0.786   5.365   7.933  0.3684 -0.1879  0.2963
 9954TIP3    H154057   0.746   5.294   7.883  0.1433  1.1198 -1.4902
 9954TIP3    H254058   0.712   5.409   7.977  0.5319 -1.1404  1.5908
 9955TIP3   OH254059   3.668   6.219  10.742 -0.0839 -0.2987  0.1143
 9955TIP3    H154060   3.590   6.166  10.757  0.0059  0.0203  1.8331
 9955TIP3    H254061   3.686   6.261  10.826  3.1988 -2.0560  0.4525
 9956TIP3   OH254062   0.476   4.016  10.643  0.0064  0.3091  0.3204
 9956TIP3    H154063   0.445   3.951  10.706  0.3997 -1.3395 -1.1170
 9956TIP3    H254064   0.558   3.981  10.610 -0.9990  0.2497 -2.3328
 9957TIP3   OH254065   1.776   5.928  10.220  0.3148  0.5147 -0.4669
 9957TIP3    H154066   1.735   5.964  10.142 -0.6895 -0.6546 -0.4941
 9957TIP3    H254067   1.729   5.969  10.293  0.9179  1.2220 -0.4617
 9958TIP3   OH254068   3.758   5.868  10.825  0.4650  0.6820  0.5626
 9958TIP3    H154069   3.751   5.830  10.738  0.6021 -0.4647  1.0310
 9958TIP3    H254070   3.682   5.926  10.832 -0.3867 -0.3506  0.2031
 9959TIP3   OH254071   5.344   1.952   8.307 -0.2680 -0.0275  0.0694
 9959TIP3    H154072   5.304   1.872   8.342 -1.9031  0.3085 -0.9331
 9959TIP3    H254073   5.435   1.948   8.336 -0.1382 -2.5610 -0.4729
 9960TIP3   OH254074   5.892   6.568  11.544  0.0099  0.0021  0.2213
 9960TIP3    H154075   5.878   6.528  11.630  1.3571  1.2828  1.0829
 9960TIP3    H254076   5.833   6.521  11.485 -0.8609 -0.9723  1.8234
 9961TIP3   OH254077   6.368   6.433   9.000  0.6143 -0.1562 -0.1104
 9961TIP3    H154078   6.442   6.461   9.053  1.9421  0.1701 -2.0085
 9961TIP3    H254079   6.350   6.509   8.944 -1.4941 -0.0608  0.6161
 9962TIP3   OH254080   0.623   2.262  11.142 -0.0900 -0.7587 -0.0624
 9962TIP3    H154081   0.603   2.252  11.049  0.7064  0.0324 -0.3244
 9962TIP3    H254082   0.627   2.357  11.156  1.2343 -0.8721  0.4565
 9963TIP3   OH254083   2.041   1.297  10.931 -0.5579  0.1522  0.0992
 9963TIP3    H154084   2.041   1.340  10.845  1.9183 -1.4839 -0.8428
 9963TIP3    H254085   2.119   1.329  10.975  0.3649 -1.9085  0.0866
 9964TIP3   OH254086   4.793   6.065  11.001 -0.1173  0.6069  0.4067
 9964TIP3    H154087   4.888   6.063  11.001 -0.0358  2.5367  0.9320
 9964TIP3    H254088   4.771   6.156  10.981 -1.8889 -0.1426 -1.3917
 9965TIP3   OH254089   5.673   6.031   9.401  0.4012  0.1397  0.9165
 9965TIP3    H154090   5.697   6.124   9.406 -0.5605  0.6621 -2.0629
 9965TIP3    H254091   5.745   5.990   9.355 -0.1741 -0.1109  0.2170
 9966TIP3   OH254092   0.020   2.265   7.949 -0.0937  0.2173 -0.2054
 9966TIP3    H154093   0.086   2.196   7.940 -0.4373 -0.0483 -0.7268
 9966TIP3    H254094   0.068   2.346   7.929  0.6261  0.2974  1.6421
 9967TIP3   OH254095   4.854   3.849   8.150  0.1323 -0.1798  0.7189
 9967TIP3    H154096   4.946   3.873   8.133  0.4198  1.4413  3.8108
 9967TIP3    H254097   4.859   3.766   8.197 -0.0130 -0.1947  0.7070
 9968TIP3   OH254098   0.322   3.650   9.885 -0.1032  0.0815  0.5203
 9968TIP3    H154099   0.338   3.609   9.970 -0.4069 -0.6418  0.2382
 9968TIP3    H254100   0.383   3.606   9.826 -2.5396 -2.2901 -0.4509
 9969TIP3   OH254101   5.308   3.438  10.269  0.3409  0.3470  0.0973
 9969TIP3    H154102   5.292   3.461  10.177 -0.3671 -1.4762 -0.2857
 9969TIP3    H254103   5.335   3.520  10.310 -0.1721  1.3922 -1.5475
 9970TIP3   OH254104   4.612   2.888   8.485  0.3446  0.0641 -0.0537
 9970TIP3    H154105   4.627   2.795   8.467 -0.5790 -0.3827  1.3417
 9970TIP3    H254106   4.699   2.922   8.505  0.3905 -1.0832  1.9074
 9971TIP3   OH254107   5.330   4.069  10.062  0.6927  0.2008 -0.2170
 9971TIP3    H154108   5.408   4.101  10.016  1.0820  1.0426  0.9759
 9971TIP3    H254109   5.256   4.103  10.011  0.9726 -2.5443 -2.7321
 9972TIP3   OH254110   3.564   4.669  11.049 -0.0266 -0.5347 -0.0940
 9972TIP3    H154111   3.606   4.674  10.963 -0.5562 -1.2012 -0.3961
 9972TIP3    H254112   3.636   4.653  11.110  0.3219 -0.3047 -0.4396
 9973TIP3   OH254113   0.380   3.357   7.741 -0.0865 -0.3312  0.5904
 9973TIP3    H154114   0.450   3.351   7.677 -0.8139  2.3527 -0.5761
 9973TIP3    H254115   0.425   3.370   7.825  0.8231 -0.9009  0.2025
 9974TIP3   OH254116   0.700   0.276  10.143 -0.7083  0.4941  0.0394
 9974TIP3    H154117   0.760   0.275  10.069 -2.8328  1.2007 -1.8169
 9974TIP3    H254118   0.649   0.196  10.133  0.1607 -0.3275  1.8431
 9975TIP3   OH254119   0.633   3.240  11.440 -0.6676 -0.7138  0.1707
 9975TIP3    H154120   0.583   3.229  11.521 -2.0135  2.4327 -0.1044
 9975TIP3    H254121   0.710   3.291  11.466 -2.2195  2.2920 -0.7477
 9976TIP3   OH254122   4.207   6.117   9.249  0.2263  0.5870  0.1594
 9976TIP3    H154123   4.118   6.127   9.284  0.0708  1.3653 -0.4261
 9976TIP3    H254124   4.252   6.061   9.313 -0.7273  0.0465  0.3759
 9977TIP3   OH254125   1.700   3.176   7.628 -0.4629 -0.6355 -0.3363
 9977TIP3    H154126   1.705   3.183   7.532 -0.9876  1.3432 -0.2500
 9977TIP3    H254127   1.607   3.165   7.646 -0.3225 -1.4292 -0.0525
 9978TIP3   OH254128   1.729   2.394   9.468 -0.0863 -0.0299  0.3949
 9978TIP3    H154129   1.719   2.400   9.373 -1.1915  1.9390  0.5738
 9978TIP3    H254130   1.673   2.320   9.493 -0.0570 -0.3491 -0.4346
 9979TIP3   OH254131   2.716   0.188   8.276 -0.0309 -0.4692  0.5477
 9979TIP3    H154132   2.786   0.250   8.297  0.8485 -1.0148 -0.6940
 9979TIP3    H254133   2.675   0.224   8.198 -0.1281 -0.9591  0.3720
 9980TIP3   OH254134   4.638   1.776   8.355  0.0173  0.4357 -0.5338
 9980TIP3    H154135   4.623   1.695   8.308 -0.8882 -0.2565  0.8630
 9980TIP3    H254136   4.732   1.793   8.345  0.3069 -1.0252 -0.4987
 9981TIP3   OH254137   5.738   4.740  10.335  0.1456  0.6528 -0.5028
 9981TIP3    H154138   5.765   4.689  10.259 -0.5514  0.8775 -0.9135
 9981TIP3    H254139   5.717   4.675  10.402 -0.6401  0.3992 -0.9873
 9982TIP3   OH254140   5.398   4.374  10.647 -0.1952 -0.5234  0.0918
 9982TIP3    H154141   5.337   4.414  10.708  0.3739  0.4741  0.0451
 9982TIP3    H254142   5.448   4.311  10.700 -0.7832 -0.8291  0.2826
 9983TIP3   OH254143   1.961   3.378  10.048 -0.2886 -0.2238  0.0132
 9983TIP3    H154144   2.014   3.311  10.003  0.0975  0.9907 -1.4479
 9983TIP3    H254145   2.025   3.445  10.073 -0.9010  0.5010 -0.3205
 9984TIP3   OH254146   6.611   6.080   9.634 -0.4052  0.1425  0.2273
 9984TIP3    H154147   6.563   6.129   9.700 -0.6070  0.1406  0.0823
 9984TIP3    H254148   6.614   6.138   9.558 -1.4297 -0.4081 -0.2603
 9985TIP3   OH254149   6.211   0.410  11.294  0.1224  0.3071 -0.3776
 9985TIP3    H154150   6.120   0.382  11.305  0.2261  0.4265  0.8592
 9985TIP3    H254151   6.209   0.469  11.218 -0.7151 -0.1696 -0.7346
 9986TIP3   OH254152   6.296   5.814  10.278  0.0951  0.1792  0.1460
 9986TIP3    H154153   6.282   5.870  10.202  1.3900  1.6068  0.9125
 9986TIP3    H254154   6.282   5.871  10.353 -3.2613 -1.6896  1.1383
 9987TIP3   OH254155   5.185   3.559  11.163  0.0071 -0.3322  0.2378
 9987TIP3    H154156   5.121   3.629  11.147 -0.6644 -1.0958 -0.5302
 9987TIP3    H254157   5.265   3.590  11.121 -0.5961 -0.4990 -1.0738
 9988TIP3   OH254158   1.185   3.348   9.150 -0.0734 -0.0584 -0.1128
 9988TIP3    H154159   1.159   3.435   9.121 -0.0764  0.1602  0.5341
 9988TIP3    H254160   1.106   3.295   9.140  0.1001 -0.1591 -1.1250
 9989TIP3   OH254161   3.971   5.114  10.491  0.1706  0.6462 -0.0540
 9989TIP3    H154162   3.902   5.068  10.539 -1.5549  0.5366 -2.4507
 9989TIP3    H254163   4.005   5.048  10.430 -1.4017  1.9932 -2.5944
 9990TIP3   OH254164   1.138   2.694   8.147 -0.1804  0.4055  0.0981
 9990TIP3    H154165   1.065   2.694   8.210  0.6661  0.6728  1.0966
 9990TIP3    H254166   1.166   2.602   8.143 -0.8112  0.2297 -0.5958
 9991TIP3   OH254167   2.701   0.890  10.691 -0.2451 -0.1579 -0.4697
 9991TIP3    H154168   2.731   0.902  10.601 -1.3298  1.8266 -0.6365
 9991TIP3    H254169   2.656   0.972  10.712  1.1483  0.0139  2.3661
 9992TIP3   OH254170   3.031   5.161  10.480 -0.0231 -0.2876  0.3566
 9992TIP3    H154171   3.052   5.223  10.410 -4.9899  1.7670  0.2094
 9992TIP3    H254172   2.987   5.088  10.436 -1.4158  0.0836  1.0448
 9993TIP3   OH254173   1.238   5.469  10.587 -0.2501 -0.2284  0.7483
 9993TIP3    H154174   1.179   5.432  10.652 -1.6271 -0.1752 -0.4101
 9993TIP3    H254175   1.301   5.520  10.638 -0.6844 -0.9680  2.0818
 9994TIP3   OH254176   2.298   0.227   8.878  0.5185 -0.1289  0.3498
 9994TIP3    H154177   2.293   0.322   8.877  0.2382 -0.1255 -1.5092
 9994TIP3    H254178   2.274   0.202   8.967 -0.5189  1.4867  0.5559
 9995TIP3   OH254179   3.480   1.206   8.164  0.5264 -0.0430 -0.0965
 9995TIP3    H154180   3.406   1.180   8.220  0.5307  1.2694  0.5429
 9995TIP3    H254181   3.532   1.126   8.156 -0.4193 -0.7271  0.2864
 9996TIP3   OH254182   2.241   5.146   7.865  0.3317  0.2689 -0.2079
 9996TIP3    H154183   2.231   5.163   7.959 -0.0762 -0.4698 -0.1101
 9996TIP3    H254184   2.196   5.062   7.851 -2.8160  2.0207 -1.6774
 9997TIP3   OH254185   4.974   1.791  10.012 -0.7401  0.6953  0.5149
 9997TIP3    H154186   5.037   1.798  10.084 -0.7666  1.1459  0.4978
 9997TIP3    H254187   4.896   1.837  10.044 -0.3619  1.8970 -0.2174
 9998TIP3   OH254188   5.160   6.716   8.357 -0.4853  0.1806  0.0784
 9998TIP3    H154189   5.227   6.766   8.403 -1.6470  1.1737  0.7707
 9998TIP3    H254190   5.100   6.782   8.323 -0.5935 -0.6285 -1.3988
 9999TIP3   OH254191   1.155   4.778   8.281 -0.8398  0.4321  0.0816
 9999TIP3    H154192   1.118   4.837   8.347 -1.3302 -1.1335  1.2462
 9999TIP3    H254193   1.079   4.748   8.231 -1.0300 -1.6111  1.5069
10000TIP3   OH254194   6.512   3.232   7.972  0.3208 -0.6140  0.1088
10000TIP3    H154195   6.529   3.259   7.882 -1.3300  0.2953  0.0387
10000TIP3    H254196   6.564   3.293   8.025 -0.4439  0.2900 -0.1687
10001TIP3   OH254197   5.210   4.628  10.050 -0.0021 -0.5898 -0.2614
10001TIP3    H154198   5.250   4.711  10.026 -1.8115  0.4811  0.2743
10001TIP3    H254199   5.213   4.576   9.970  1.8447 -0.3344 -0.4007
10002TIP3   OH254200   4.943   5.548   9.048 -0.2270  0.0004  0.6082
10002TIP3    H154201   5.027   5.572   9.006 -1.6552  0.4060 -2.3009
10002TIP3    H254202   4.904   5.632   9.072 -0.1637 -0.1380  1.1944
10003TIP3   OH254203   5.653   4.318   9.080 -0.5743  0.0379 -0.3800
10003TIP3    H154204   5.677   4.240   9.030  0.5637 -0.5093  0.9456
10003TIP3    H254205   5.698   4.390   9.036  0.5979 -0.4625 -0.0331
10004TIP3   OH254206   1.242   6.014   9.379 -0.2089 -0.1136  0.2818
10004TIP3    H154207   1.212   5.938   9.428 -0.3383 -0.2291  0.0234
10004TIP3    H254208   1.255   5.982   9.290 -0.8313  0.3006  0.0328
10005TIP3   OH254209   5.833   2.155   9.374 -0.0786 -0.8301 -0.0913
10005TIP3    H154210   5.774   2.079   9.378 -1.0458 -0.1499 -0.8380
10005TIP3    H254211   5.834   2.190   9.463 -1.5223 -0.3511 -0.2349
10006TIP3   OH254212   0.890   2.998  10.501  0.0245  0.0350  0.1020
10006TIP3    H154213   0.928   3.074  10.457  2.1824 -1.5827 -1.0428
10006TIP3    H254214   0.818   2.971  10.445  2.7432 -2.0057 -2.7358
10007TIP3   OH254215   2.177   4.251   9.998  0.0026  0.0437 -0.0804
10007TIP3    H154216   2.193   4.342   9.972  0.5068 -0.5424 -1.9574
10007TIP3    H254217   2.261   4.222  10.035 -0.1046  0.2696  0.3499
10008TIP3   OH254218   5.337   4.859   9.109  0.5122 -0.1646  0.3963
10008TIP3    H154219   5.373   4.798   9.174  1.1130 -0.1549  0.0800
10008TIP3    H254220   5.251   4.883   9.144  1.1605  0.4874  1.6089
10009TIP3   OH254221   2.252   0.803   9.012  0.2365  0.6674  0.4817
10009TIP3    H154222   2.194   0.751   9.069 -1.9760  2.8342  0.4013
10009TIP3    H254223   2.195   0.872   8.978  2.5478  1.9562 -0.9842
10010TIP3   OH254224   3.757   4.837   8.404  0.4972  0.5638  0.2191
10010TIP3    H154225   3.672   4.830   8.448  0.7001 -0.2745  0.5077
10010TIP3    H254226   3.744   4.901   8.335 -0.6216 -0.2073 -0.3137
10011TIP3   OH254227   6.102   3.835   9.339  0.5487  0.2400 -0.3858
10011TIP3    H154228   6.136   3.753   9.375 -2.4866 -0.4997  1.1188
10011TIP3    H254229   6.180   3.885   9.317  2.5629 -1.8082  1.5015
10012TIP3   OH254230   4.434   2.310   8.066 -0.0946  0.3867 -0.1458
10012TIP3    H154231   4.483   2.340   8.142  0.1126  0.3365 -0.2571
10012TIP3    H254232   4.350   2.356   8.070 -1.1304 -1.4945  1.5233
10013TIP3   OH254233   2.360   2.967   9.151 -0.6490  0.1877 -0.1047
10013TIP3    H154234   2.394   2.897   9.095 -1.1009  1.0013 -1.4403
10013TIP3    H254235   2.383   2.939   9.240 -0.2689 -1.3438 -0.6422
10014TIP3   OH254236   1.256   1.502   8.655  0.2824 -0.0288  0.5162
10014TIP3    H154237   1.241   1.497   8.560  1.8207  0.3151  0.2386
10014TIP3    H254238   1.171   1.529   8.690  0.2364  2.0344 -0.9830
10015TIP3   OH254239   3.791   3.065   8.903  0.1691 -0.2458 -0.0028
10015TIP3    H154240   3.785   2.991   8.842 -3.1057 -0.4935  0.4128
10015TIP3    H254241   3.779   3.025   8.990 -0.5591  0.6173  0.3093
10016TIP3   OH254242   3.820   2.012   9.132  0.1074 -0.1949  0.2851
10016TIP3    H154243   3.815   1.916   9.130 -0.4808 -0.1603 -0.1246
10016TIP3    H254244   3.736   2.041   9.097  1.3631  0.4757 -2.4476
10017TIP3   OH254245   0.516   2.351  10.535  0.5844 -0.5699  0.6306
10017TIP3    H154246   0.547   2.355  10.625 -0.2891  0.5117  0.8972
10017TIP3    H254247   0.590   2.314  10.486  1.5866  0.1638  1.5505
10018TIP3   OH254248   1.874   5.400  10.486  0.0021 -0.2275  0.2318
10018TIP3    H154249   1.898   5.308  10.480  1.3472  0.0632  0.6390
10018TIP3    H254250   1.902   5.426  10.574 -3.8565 -0.3429  1.6874
10019TIP3   OH254251   3.475   5.077   9.490  0.0712 -0.1719  0.6335
10019TIP3    H154252   3.440   5.167   9.493  1.1391  0.2330  2.4717
10019TIP3    H254253   3.570   5.088   9.493  0.2037 -1.3665  1.3731
10020TIP3   OH254254   5.435   1.891   8.614  0.1179  0.6362  0.3944
10020TIP3    H154255   5.522   1.900   8.651  0.4613 -0.1284 -0.1977
10020TIP3    H254256   5.398   1.979   8.617  1.0489  1.0417  0.3001
10021TIP3   OH254257   3.303   1.514  11.114  0.1931 -0.5152 -0.1053
10021TIP3    H154258   3.214   1.478  11.109  0.3252 -0.9272  0.4491
10021TIP3    H254259   3.299   1.578  11.185  0.3880 -0.6719  0.0475
10022TIP3   OH254260   1.885   0.276   8.506 -0.2302 -0.5865  0.2905
10022TIP3    H154261   1.952   0.283   8.574 -0.7146 -0.8244  0.7992
10022TIP3    H254262   1.933   0.248   8.428 -0.0929 -3.7762  1.3542
10023TIP3   OH254263   0.106   2.185  10.679 -0.2734 -0.2017 -0.1404
10023TIP3    H154264   0.180   2.172  10.737 -0.1809  1.4701  0.1756
10023TIP3    H254265   0.037   2.128  10.713 -0.4989  1.3228  2.1658
10024TIP3   OH254266   4.822   4.038   9.940 -0.1869 -0.1055 -0.4176
10024TIP3    H154267   4.814   3.970  10.007  1.2609 -0.6606 -0.7928
10024TIP3    H254268   4.870   3.997   9.869  0.6042  1.2687 -0.7090
10025TIP3   OH254269   1.183   3.182  10.531  0.0518  0.1664  0.2276
10025TIP3    H154270   1.245   3.164  10.460 -0.4537  1.0464 -0.4483
10025TIP3    H254271   1.097   3.167  10.492 -0.1959 -2.2483  1.4895
10026TIP3   OH254272   0.848   3.042   9.762 -0.1393  0.2733  0.5928
10026TIP3    H154273   0.863   2.949   9.774 -1.4660  0.2421  2.2602
10026TIP3    H254274   0.801   3.048   9.678 -0.3204 -0.5768  0.6262
10027TIP3   OH254275   3.160   2.945   9.782 -0.1397  0.5589 -0.3157
10027TIP3    H154276   3.165   2.912   9.871  1.1290  2.0656  0.2174
10027TIP3    H254277   3.104   3.023   9.788  1.3347  1.6764 -0.4664
10028TIP3   OH254278   1.319   4.246   8.072 -0.6745 -0.2788 -0.1588
10028TIP3    H154279   1.334   4.271   7.980  0.7842 -1.9261 -0.4172
10028TIP3    H254280   1.242   4.296   8.098 -0.1911  1.4250 -1.7948
10029TIP3   OH254281   1.635   1.420   9.690 -0.5034  0.4551 -0.5044
10029TIP3    H154282   1.675   1.478   9.755 -1.1073 -0.7684  1.0274
10029TIP3    H254283   1.653   1.462   9.606  1.5918  1.3557  0.3232
10030TIP3   OH254284   0.430   2.099   9.824  0.2688  0.9499 -0.1945
10030TIP3    H154285   0.480   2.045   9.886 -1.5717 -0.1377  0.4279
10030TIP3    H254286   0.340   2.069   9.834 -0.2696  1.5820 -2.5840
10031TIP3   OH254287   3.020   4.679  10.849  0.0202 -0.2039  0.4096
10031TIP3    H154288   3.089   4.645  10.906 -0.9190 -0.7563  1.2640
10031TIP3    H254289   3.064   4.744  10.794  1.4074 -1.2019  0.2768
10032TIP3   OH254290   5.164   2.109  10.028 -0.2746 -0.1067  0.2535
10032TIP3    H154291   5.181   2.196   9.994 -2.4793  0.5777  0.7439
10032TIP3    H254292   5.180   2.051   9.953  1.0488  0.6855 -0.1231
10033TIP3   OH254293   1.939   0.876   8.887 -0.2640  0.1086 -0.3715
10033TIP3    H154294   1.960   0.960   8.928 -2.1324 -0.9035  2.9826
10033TIP3    H254295   1.846   0.864   8.903 -0.7592 -1.3187 -3.4756
10034TIP3   OH254296   1.042   4.588  10.224  0.9280 -0.4085  0.5655
10034TIP3    H154297   0.964   4.635  10.252  1.4231  0.6605  0.1988
10034TIP3    H254298   1.023   4.561  10.134  0.8352 -0.4849  0.6071
10035TIP3   OH254299   0.750   1.292   8.891 -0.4986  0.2889 -0.8935
10035TIP3    H154300   0.824   1.274   8.833  0.2281 -1.5942  0.5090
10035TIP3    H254301   0.781   1.360   8.950  0.9204 -1.7807  0.9091
10036TIP3   OH254302   0.368   6.276   9.195  0.2865  0.4354  0.0383
10036TIP3    H154303   0.347   6.200   9.141  2.3849  0.2421 -0.5980
10036TIP3    H254304   0.300   6.277   9.263 -0.4083 -1.3620 -0.5780
10037TIP3   OH254305   2.539   3.020  10.147 -0.2857  1.0369 -0.5998
10037TIP3    H154306   2.486   3.085  10.193 -0.1251  0.4926  0.3933
10037TIP3    H254307   2.479   2.976  10.087 -0.7253  1.1152 -0.2199
10038TIP3   OH254308   1.941   5.665   8.036 -0.2849  0.6984  0.4160
10038TIP3    H154309   2.018   5.721   8.048 -0.7159  1.3520  0.2226
10038TIP3    H254310   1.887   5.683   8.113 -1.8837  2.9778 -1.0958
10039TIP3   OH254311   2.317   2.685   9.433 -0.2563 -0.3205  0.2775
10039TIP3    H154312   2.275   2.636   9.362  0.8545 -0.0348 -0.5974
10039TIP3    H254313   2.383   2.625   9.468  0.2995  0.1310 -0.0021
10040TIP3   OH254314   1.245   3.409  11.095  0.0254 -0.1564  0.0962
10040TIP3    H154315   1.250   3.438  11.186  2.6853 -0.9273  0.2735
10040TIP3    H254316   1.163   3.359  11.090  0.5702 -1.4176  2.5144
10041TIP3   OH254317   2.917   0.670   9.527 -0.1489 -0.4942 -0.9845
10041TIP3    H154318   2.853   0.730   9.566 -0.0391  0.0921 -1.6936
10041TIP3    H254319   2.873   0.636   9.449  0.8949  0.9914 -2.2808
10042TIP3   OH254320   2.244   2.474  10.129  0.3227 -0.1576  0.0375
10042TIP3    H154321   2.208   2.467  10.217  0.1329  1.9369  0.1680
10042TIP3    H254322   2.337   2.491  10.142  0.2962  0.1459 -0.1670
10043TIP3   OH254323   4.905   5.295  10.046  0.3702 -0.1086 -0.1810
10043TIP3    H154324   4.834   5.301   9.982  1.4837 -0.0701 -1.4791
10043TIP3    H254325   4.935   5.386  10.057  0.3410 -0.1457  0.1972
10044TIP3   OH254326   0.169   3.922   7.954 -0.0231 -0.3543 -0.4833
10044TIP3    H154327   0.187   3.853   7.891 -1.1764 -0.2490 -0.9441
10044TIP3    H254328   0.153   3.875   8.036  0.6880 -0.5315 -0.4316
10045TIP3   OH254329   4.349   2.589   9.972 -0.5393  0.5431  0.1925
10045TIP3    H154330   4.275   2.619  10.025 -0.9356  2.7768 -1.4360
10045TIP3    H254331   4.425   2.634  10.009 -0.5506  0.7800 -0.0602
10046TIP3   OH254332   0.864   5.983   8.703  0.3120 -0.1953 -0.4645
10046TIP3    H154333   0.910   5.964   8.622  1.9000  0.7302  0.1615
10046TIP3    H254334   0.898   6.069   8.730  0.3476 -0.7808  1.5201
10047TIP3   OH254335   2.022   1.188   9.982  0.3710  0.0027 -0.3051
10047TIP3    H154336   2.023   1.168   9.888 -0.2450  0.3286 -0.3878
10047TIP3    H254337   2.040   1.282   9.987  0.0286  0.0605 -0.1220
10048TIP3   OH254338   3.451   5.874   9.887  0.0693  0.1823 -0.2467
10048TIP3    H154339   3.530   5.829   9.855 -0.7906 -1.3999 -0.2308
10048TIP3    H254340   3.481   5.963   9.904  1.3543  0.2438 -2.3453
10049TIP3   OH254341   0.175   2.292   8.549  0.0991  0.3226  0.0768
10049TIP3    H154342   0.125   2.342   8.484  1.1077  1.9475  0.5079
10049TIP3    H254343   0.255   2.341   8.561  1.6909 -2.0052 -0.2674
10050TIP3   OH254344   2.976   1.249   9.659  0.5188 -0.4781  0.3970
10050TIP3    H154345   3.021   1.282   9.736  1.0094  0.1456 -0.1483
10050TIP3    H254346   2.898   1.206   9.694 -0.6517  2.0140  1.1260
10051TIP3   OH254347   0.432   4.980  10.084  0.4875 -0.1630  0.9794
10051TIP3    H154348   0.463   4.913  10.024 -2.6640  1.4958 -2.9007
10051TIP3    H254349   0.361   4.938  10.133 -0.7880 -0.0366 -0.6984
10052TIP3   OH254350   4.828   3.292   8.453  0.4608 -0.5181  0.3975
10052TIP3    H154351   4.755   3.346   8.421 -0.2705 -2.1180 -0.7684
10052TIP3    H254352   4.884   3.280   8.376  0.4186 -1.7067  0.5388
10053TIP3   OH254353   4.078   2.282   8.872 -0.7609  0.4326  0.3843
10053TIP3    H154354   4.022   2.358   8.891 -1.5132 -0.0930  0.3300
10053TIP3    H254355   4.083   2.234   8.954 -0.0799  0.6663  0.4841
10054TIP3   OH254356   3.503   2.012   9.014  0.4116 -0.0861 -0.3442
10054TIP3    H154357   3.433   2.026   8.951  1.4099  1.1801 -1.2032
10054TIP3    H254358   3.489   1.922   9.045 -0.5780 -0.4587 -1.7665
10055TIP3   OH254359   3.580   0.361   9.477 -0.5373 -0.0442 -0.2630
10055TIP3    H154360   3.593   0.455   9.490 -1.0032  0.3629 -2.3917
10055TIP3    H254361   3.610   0.321   9.559 -0.6725  1.9674  0.8289
10056TIP3   OH254362   3.189   6.595   8.767 -0.3614 -0.7064 -0.0985
10056TIP3    H154363   3.184   6.689   8.785 -1.4607 -0.4615 -1.4729
10056TIP3    H254364   3.280   6.572   8.786 -0.2554  0.4647  0.9621
10057TIP3   OH254365   0.549   0.971   8.328 -0.2255  0.1334  0.3191
10057TIP3    H154366   0.529   0.931   8.413 -2.4468  0.2921 -0.0847
10057TIP3    H254367   0.483   0.935   8.268  1.2135  0.1173 -1.3414
10058TIP3   OH254368   3.237   5.455   8.998  0.5828  0.0835  0.2023
10058TIP3    H154369   3.202   5.532   8.955  1.3762  0.7357  0.6952
10058TIP3    H254370   3.331   5.470   9.002  0.8178 -1.1464 -0.1496
10059TIP3   OH254371   5.948   0.700   8.891 -0.1990  0.5620  0.0458
10059TIP3    H154372   5.947   0.614   8.849  1.4586  1.4561 -2.0264
10059TIP3    H254373   5.989   0.685   8.977 -1.3636 -0.9266  0.3710
10060TIP3   OH254374   2.439   4.703  10.722  1.1256  0.2397 -0.2161
10060TIP3    H154375   2.450   4.658  10.805 -1.2664 -0.6442 -0.2748
10060TIP3    H254376   2.432   4.632  10.657 -2.1724  0.5557 -0.3867
10061TIP3   OH254377   0.623   4.770  10.200 -0.3032 -0.6648 -0.3381
10061TIP3    H154378   0.649   4.837  10.264 -1.5865  1.8683 -2.2799
10061TIP3    H254379   0.680   4.784  10.125 -1.1242 -1.2214 -1.0907
10062TIP3   OH254380   4.628   3.789  10.167 -0.3850  0.1064  0.4708
10062TIP3    H154381   4.611   3.813  10.076  0.7273  3.8670  1.0866
10062TIP3    H254382   4.718   3.757  10.167 -0.1039  0.8613  0.3023
10063TIP3   OH254383   6.396   0.204  11.360  0.4569 -0.0854  0.3185
10063TIP3    H154384   6.351   0.277  11.402  1.7621  1.2049 -0.4453
10063TIP3    H254385   6.480   0.239  11.332  0.9811 -1.7797 -0.4269
10064TIP3   OH254386   6.668   3.442  10.462 -0.0554 -0.2290 -0.4509
10064TIP3    H154387   6.593   3.385  10.451  1.6444 -2.3214 -2.0745
10064TIP3    H254388   6.660   3.507  10.392 -1.1879  0.6156  0.4364
10065TIP3   OH254389   0.720   6.732   7.859 -0.1783 -0.0269 -0.0102
10065TIP3    H154390   0.679   6.783   7.928  2.4366  0.2322  1.4702
10065TIP3    H254391   0.812   6.759   7.860  1.6721 -5.1239  1.4570
10066TIP3   OH254392   4.664   6.685   8.247 -0.7840  0.4730  0.4164
10066TIP3    H154393   4.652   6.697   8.341 -0.7812  1.2366  0.3221
10066TIP3    H254394   4.632   6.766   8.208 -1.7415 -0.2363 -0.3153
10067TIP3   OH254395   0.973   0.265   7.965 -0.5902  0.7038 -0.1342
10067TIP3    H154396   1.044   0.299   8.020  0.0020  0.5249 -0.7680
10067TIP3    H254397   0.897   0.264   8.022  0.6093 -2.2807  1.6643
10068TIP3   OH254398   6.547   3.832   9.767 -0.3461 -0.6712  0.5250
10068TIP3    H154399   6.621   3.784   9.730  0.3734  1.5887 -1.1756
10068TIP3    H254400   6.481   3.832   9.698  0.1080  1.6475  0.0264
10069TIP3   OH254401   3.261   2.824   9.274  0.1345  0.3893 -0.4589
10069TIP3    H154402   3.216   2.774   9.205 -2.1652  0.9342  0.5787
10069TIP3    H254403   3.200   2.824   9.347  2.9290 -1.1687  2.1169
10070TIP3   OH254404   0.917   2.426   9.211 -0.0203  0.0842 -0.5873
10070TIP3    H154405   0.987   2.456   9.153  1.1426 -1.0765  0.1483
10070TIP3    H254406   0.897   2.502   9.266  1.7750  0.0506  0.2066
10071TIP3   OH254407   1.559   3.775   9.832  0.5082 -0.2461  0.6568
10071TIP3    H154408   1.620   3.795   9.760 -0.2904  0.6716  0.2023
10071TIP3    H254409   1.518   3.693   9.806 -0.0419  0.2613 -0.1459
10072TIP3   OH254410   0.671   5.406  10.210  0.1928 -0.1084 -0.3109
10072TIP3    H154411   0.620   5.336  10.169  1.9886 -1.9916  0.5286
10072TIP3    H254412   0.613   5.441  10.277 -0.8255 -0.6048 -0.9027
10073TIP3   OH254413   0.441   6.740   8.626  0.0022 -0.7509 -0.5890
10073TIP3    H154414   0.358   6.706   8.660  1.3507 -2.2571  1.4191
10073TIP3    H254415   0.435   6.835   8.639 -1.3309 -0.8407 -0.3617
10074TIP3   OH254416   0.861   6.508  11.353  1.3449 -0.2102  0.4203
10074TIP3    H154417   0.776   6.528  11.312  0.1602  1.0507  3.2743
10074TIP3    H254418   0.926   6.534  11.287 -0.4323  0.4252 -1.1679
10075TIP3   OH254419   1.086   1.946   9.098  0.3743 -0.1189 -0.2120
10075TIP3    H154420   1.060   2.003   9.171  1.3750  0.9863 -0.6956
10075TIP3    H254421   1.095   1.859   9.138  1.3379  0.5446  1.0933
10076TIP3   OH254422   0.743   4.408   8.689 -0.4062  1.1610  0.0826
10076TIP3    H154423   0.725   4.322   8.650 -0.4369 -0.4726  3.3837
10076TIP3    H254424   0.675   4.465   8.653 -1.2407 -0.5141 -1.1564
10077TIP3   OH254425   2.576   3.864   9.791  0.2935  0.0535  0.0782
10077TIP3    H154426   2.559   3.883   9.883 -1.2389 -0.2209 -0.1221
10077TIP3    H254427   2.491   3.837   9.756  1.5424 -4.1576 -0.3679
10078TIP3   OH254428   2.716   1.297   8.781  0.4249 -0.0799 -0.1719
10078TIP3    H154429   2.792   1.239   8.776 -0.3503 -1.0274 -1.8090
10078TIP3    H254430   2.647   1.243   8.819 -0.8105 -0.9206 -3.3231
10079TIP3   OH254431   3.209   5.222   9.681 -0.8961  0.0469  0.4212
10079TIP3    H154432   3.224   5.302   9.732 -0.7392 -0.6290  1.4570
10079TIP3    H254433   3.140   5.175   9.729 -1.1395 -0.3416 -0.2968
10080TIP3   OH254434   1.321   1.159   8.287 -0.0565  0.0587 -0.7328
10080TIP3    H154435   1.336   1.173   8.194  0.3503 -0.5680 -0.7674
10080TIP3    H254436   1.247   1.098   8.291 -1.1553  1.3481 -0.6019
10081TIP3   OH254437   2.614   5.285   9.763 -0.5760  0.1674 -0.3048
10081TIP3    H154438   2.581   5.256   9.849  1.5365  1.6888  1.1322
10081TIP3    H254439   2.623   5.380   9.772  2.3954  0.0445 -1.1690
10082TIP3   OH254440   2.420   5.040  10.127 -0.5485 -0.2265  1.0562
10082TIP3    H154441   2.349   5.053  10.191 -1.0176 -0.4019  0.5807
10082TIP3    H254442   2.381   5.064  10.043  0.1712  0.3265  0.8753
10083TIP3   OH254443   2.946   0.819  11.195  0.8754 -0.1939  0.5843
10083TIP3    H154444   2.873   0.838  11.136  1.3860 -0.7523 -0.2547
10083TIP3    H254445   2.984   0.904  11.215 -0.6518  0.2200  1.9223
10084TIP3   OH254446   1.539   6.128   9.766  0.0788  0.2137 -0.5881
10084TIP3    H154447   1.588   6.152   9.687  1.7654  1.0997  0.6801
10084TIP3    H254448   1.478   6.202   9.779  0.1418  0.3011 -0.7770
10085TIP3   OH254449   3.765   5.273   8.843 -0.8663  0.1929 -0.4447
10085TIP3    H154450   3.768   5.363   8.811  0.2995 -0.4968 -2.4330
10085TIP3    H254451   3.727   5.223   8.772 -1.9826 -0.8528  0.8329
10086TIP3   OH254452   4.369   3.838   9.064 -0.2978  0.0076  0.3530
10086TIP3    H154453   4.340   3.921   9.027  0.0275  0.5260  1.2160
10086TIP3    H254454   4.350   3.846   9.158 -1.9459 -1.6265  0.2034
10087TIP3   OH254455   0.552   4.041  10.229 -0.5635 -0.0875 -0.1768
10087TIP3    H154456   0.552   4.122  10.279 -2.1921 -0.1142 -0.0513
10087TIP3    H254457   0.459   4.019  10.220 -0.1754 -1.8147 -0.3929
10088TIP3   OH254458   5.697   1.033  10.239 -0.1947  0.2187 -0.0420
10088TIP3    H154459   5.738   0.947  10.246  1.0004  0.8312  0.8173
10088TIP3    H254460   5.761   1.087  10.193 -0.9977  0.6265 -0.7107
10089TIP3   OH254461   5.614   4.896   9.369 -0.4625 -0.2014  0.2118
10089TIP3    H154462   5.654   4.815   9.337 -0.9501 -0.7759  1.0117
10089TIP3    H254463   5.584   4.941   9.290  1.4246  0.0905 -0.3865
10090TIP3   OH254464   1.505   2.137   7.695 -0.0004  0.2443 -0.0354
10090TIP3    H154465   1.424   2.128   7.746  0.1081  2.1712  0.5699
10090TIP3    H254466   1.480   2.192   7.621 -0.1495 -2.5270 -2.1745
10091TIP3   OH254467   4.247   2.133   9.328 -0.1753  0.2795  0.1116
10091TIP3    H154468   4.336   2.159   9.352  0.1281 -0.3322 -0.3283
10091TIP3    H254469   4.193   2.209   9.350  0.0782 -0.1728  2.6392
10092TIP3   OH254470   2.905   4.079  11.301 -0.7697  0.1837  0.2849
10092TIP3    H154471   2.952   4.145  11.352 -1.1630  0.9287 -0.3008
10092TIP3    H254472   2.838   4.129  11.253 -1.8837 -0.7881  0.7698
10093TIP3   OH254473   5.125   0.294  10.326 -0.1833 -0.4780 -0.1474
10093TIP3    H154474   5.041   0.252  10.338 -0.9851  1.4579  1.5771
10093TIP3    H254475   5.186   0.245  10.381 -0.0536 -2.0683 -1.6345
10094TIP3   OH254476   1.881   5.996   8.266  0.1096 -1.1656 -0.4689
10094TIP3    H154477   1.817   6.067   8.266  1.4884  0.1322 -0.1744
10094TIP3    H254478   1.844   5.931   8.326 -1.1962 -0.7170 -0.7554
10095TIP3   OH254479   3.296   1.345   8.363  0.9826  0.5795  0.1110
10095TIP3    H154480   3.287   1.294   8.283 -0.3109 -0.9777  1.1849
10095TIP3    H254481   3.208   1.379   8.380  1.0268  0.1191  1.3343
10096TIP3   OH254482   1.201   3.033   8.965 -0.0418  0.1734 -0.3798
10096TIP3    H154483   1.108   3.023   8.987 -0.0136  1.6312  0.4922
10096TIP3    H254484   1.212   3.126   8.946  1.6702  0.4754  1.6834
10097TIP3   OH254485   0.814   3.107  11.636 -0.3663  0.1380  0.1123
10097TIP3    H154486   0.806   3.202  11.636 -2.2859  0.0179 -1.3024
10097TIP3    H254487   0.725   3.075  11.621  0.3500 -1.8692 -0.1394
10098TIP3   OH254488   6.548   1.835  11.250  0.6676 -0.0829 -0.3056
10098TIP3    H154489   6.592   1.752  11.235  0.4560 -0.2935  0.2291
10098TIP3    H254490   6.462   1.811  11.285  0.7199  0.3708  0.1442
10099TIP3   OH254491   5.848   4.745   8.833 -0.6029 -0.1095  0.3399
10099TIP3    H154492   5.866   4.839   8.845 -1.1811 -0.1950  2.1569
10099TIP3    H254493   5.916   4.716   8.772  1.9301  0.7499  2.5594
10100TIP3   OH254494   4.037   1.975   9.411  0.3737 -0.2367 -0.6357
10100TIP3    H154495   3.964   2.031   9.385 -0.4317 -1.2819 -0.6553
10100TIP3    H254496   4.110   2.006   9.357 -0.3978 -0.0963 -1.6398
10101TIP3   OH254497   4.652   6.487   8.668  0.5160  0.2033  0.3027
10101TIP3    H154498   4.742   6.467   8.642  0.6783  0.1325  0.8912
10101TIP3    H254499   4.625   6.410   8.719  0.4609  0.6425  0.9405
10102TIP3   OH254500   1.662   5.666   9.895  0.1039  0.1078 -0.0919
10102TIP3    H154501   1.754   5.644   9.912 -0.1072 -0.2495  0.6158
10102TIP3    H254502   1.666   5.752   9.854  0.6681  0.9124  1.5447
10103TIP3   OH254503   5.111   3.513   9.447  0.5960 -0.1187 -0.2745
10103TIP3    H154504   5.079   3.437   9.399 -0.0072  0.6599 -1.1255
10103TIP3    H254505   5.063   3.587   9.411  2.3398  0.9039 -0.6174
10104TIP3   OH254506   5.243   2.752   9.378 -0.0932  0.0808 -0.0128
10104TIP3    H154507   5.255   2.684   9.445 -2.1207 -0.7628 -0.4457
10104TIP3    H254508   5.278   2.712   9.298 -1.8764 -0.7671 -0.4090
10105TIP3   OH254509   2.022   0.679   7.990  0.3617 -0.0574  0.2956
10105TIP3    H154510   2.108   0.720   7.979  0.3948  0.5372  2.4623
10105TIP3    H254511   2.041   0.598   8.038 -0.2242 -0.3840 -0.0116
10106TIP3   OH254512   5.778   5.580   9.620  0.4931 -0.4757  0.7965
10106TIP3    H154513   5.800   5.596   9.528 -1.3991 -1.6395  0.0841
10106TIP3    H254514   5.798   5.488   9.634 -0.2272 -0.5790  1.2040
10107TIP3   OH254515   6.161   0.469  10.493  0.1777  0.0107 -0.6569
10107TIP3    H154516   6.150   0.462  10.398  1.5623 -1.1569 -0.7780
10107TIP3    H254517   6.095   0.411  10.530  1.1091 -1.3329 -1.0314
10108TIP3   OH254518   5.680   2.555  10.944  0.1309  0.0313 -0.6199
10108TIP3    H154519   5.657   2.633  10.994  0.1478  0.3148 -1.0611
10108TIP3    H254520   5.599   2.504  10.941 -0.3174  0.7657 -1.6851
10109TIP3   OH254521   2.119   2.165   9.023 -0.0662  0.6215  0.2813
10109TIP3    H154522   2.069   2.088   8.996 -0.6152  0.1214  2.5450
10109TIP3    H254523   2.206   2.152   8.986 -0.3618 -0.7384  0.0349
10110TIP3   OH254524   2.770   2.882   9.198  0.2629 -0.3291  0.0746
10110TIP3    H154525   2.857   2.918   9.179  1.2235 -2.2360  0.6176
10110TIP3    H254526   2.761   2.888   9.293 -1.6284  2.7799 -0.1435
10111TIP3   OH254527   4.443   3.216   9.245  0.6019  0.0841 -1.0958
10111TIP3    H154528   4.429   3.259   9.160 -0.3233  0.1567 -0.9149
10111TIP3    H254529   4.425   3.124   9.228 -0.7250  0.2556 -0.7367
10112TIP3   OH254530   6.362   5.171   9.670  0.1453  0.1197  0.0695
10112TIP3    H154531   6.307   5.113   9.617  1.4236 -1.1837  0.1146
10112TIP3    H254532   6.393   5.115   9.742 -0.0938  1.3711  1.1882
10113TIP3   OH254533   4.420   2.144   8.668  0.1138  0.0759  0.5886
10113TIP3    H154534   4.373   2.223   8.694 -0.5988  0.0696 -0.6346
10113TIP3    H254535   4.511   2.172   8.661 -0.1710  0.8621 -0.0982
10114TIP3   OH254536   2.606   2.684  10.720  0.1122  0.0689  0.3025
10114TIP3    H154537   2.590   2.626  10.794  0.6469 -0.9696 -0.3694
10114TIP3    H254538   2.701   2.691  10.715  0.0645  0.4988 -0.0054
10115TIP3   OH254539   3.215   0.485   8.792 -0.7044 -0.3798  0.3951
10115TIP3    H154540   3.145   0.535   8.750 -0.1056 -0.4563 -0.7379
10115TIP3    H254541   3.173   0.442   8.867 -1.2782  1.6740  1.3362
10116TIP3   OH254542   4.924   2.805   9.196  0.7288 -0.1913 -0.4149
10116TIP3    H154543   4.951   2.828   9.285  2.1149 -0.5151 -0.7212
10116TIP3    H254544   4.854   2.867   9.175  0.0070 -0.4551  1.0829
10117TIP3   OH254545   4.192   5.300   9.529 -0.5434 -0.4909  0.4376
10117TIP3    H154546   4.246   5.283   9.606 -2.2249 -1.0796  1.5470
10117TIP3    H254547   4.184   5.214   9.487 -0.9424 -0.5077  0.5356
10118TIP3   OH254548   2.137   2.117  10.233  0.0229 -0.3288 -0.3541
10118TIP3    H154549   2.102   2.205  10.220 -0.2000 -0.5047 -0.9578
10118TIP3    H254550   2.229   2.123  10.206 -0.7189 -0.9854 -3.4181
10119TIP3   OH254551   5.444   0.388   8.192  0.3174 -0.6376 -0.2502
10119TIP3    H154552   5.476   0.448   8.124  1.8292 -0.2904  0.7091
10119TIP3    H254553   5.368   0.346   8.153 -0.7488  1.8142 -1.0120
10120TIP3   OH254554   0.451   5.090  10.733 -0.3614  0.0861  0.2758
10120TIP3    H154555   0.483   5.170  10.691  0.0114 -0.8429 -1.2970
10120TIP3    H254556   0.372   5.067  10.684  0.0852 -1.0296  0.0469
10121TIP3   OH254557   5.227   3.276   8.093 -0.0111 -0.0355  0.0890
10121TIP3    H154558   5.303   3.305   8.144  1.8988 -0.8885 -2.0615
10121TIP3    H254559   5.228   3.180   8.103  0.3003 -0.1983 -1.3493
10122TIP3   OH254560   1.314   2.730  10.566  0.0830  0.2032 -0.2730
10122TIP3    H154561   1.380   2.788  10.529  1.7911  0.1425  2.4462
10122TIP3    H254562   1.354   2.695  10.645 -3.3386  0.5220  1.8075
10123TIP3   OH254563   2.557   5.115   8.096 -0.2755 -0.4232  0.1609
10123TIP3    H154564   2.512   5.035   8.123  0.0127 -0.7604 -0.3369
10123TIP3    H254565   2.608   5.089   8.020  0.1332  0.1447  0.2345
10124TIP3   OH254566   6.605   6.375   8.333 -0.0032  0.0455  0.4110
10124TIP3    H154567   6.623   6.283   8.352  0.9209 -0.0146 -0.6769
10124TIP3    H254568   6.691   6.414   8.320 -0.4429  0.7849 -0.3941
10125TIP3   OH254569   1.852   3.046   7.816  0.0285 -0.2856  0.0994
10125TIP3    H154570   1.883   3.122   7.865 -0.6847 -0.3280  0.6306
10125TIP3    H254571   1.801   3.084   7.744  0.6720 -0.2358 -0.3349
10126TIP3   OH254572   2.250   6.338   8.915  0.1649  0.2429  0.0993
10126TIP3    H154573   2.201   6.336   8.833  1.3297  0.7288 -0.6396
10126TIP3    H254574   2.281   6.248   8.926 -2.2035 -0.4647  1.4322
10127TIP3   OH254575   3.662   0.960   8.736  0.3339 -0.2303  0.0572
10127TIP3    H154576   3.670   0.937   8.829  0.5853  2.1254  0.6968
10127TIP3    H254577   3.657   1.056   8.736 -0.4672 -0.2149 -2.3264
10128TIP3   OH254578   1.924   1.359  10.336 -0.0145  0.1226  0.2567
10128TIP3    H154579   1.894   1.423  10.272 -1.2942  1.0499  1.7048
10128TIP3    H254580   2.011   1.391  10.364  0.6303 -0.3886 -1.0924
10129TIP3   OH254581   5.256   3.005   9.053  0.3761  0.0103  0.6462
10129TIP3    H154582   5.232   2.995   8.961  1.3958  1.6419  0.1699
10129TIP3    H254583   5.348   3.032   9.051  0.2236  0.7286  2.1151
10130TIP3   OH254584   2.881   2.362  10.614 -0.1425  0.2042 -0.3112
10130TIP3    H154585   2.975   2.371  10.603  0.1093 -1.6830 -0.0831
10130TIP3    H254586   2.856   2.430  10.676  0.8949  1.3287 -1.0942
10131TIP3   OH254587   6.148   0.094  11.275 -0.2544 -0.0240 -0.3828
10131TIP3    H154588   6.219   0.155  11.297 -2.1783  1.8385  1.0447
10131TIP3    H254589   6.151   0.028  11.344 -0.9042  1.0029  0.6640
10132TIP3   OH254590   4.788   4.628  10.881  0.1970 -0.5361 -0.4885
10132TIP3    H154591   4.728   4.685  10.834 -1.4127 -1.0652  0.7863
10132TIP3    H254592   4.836   4.686  10.940 -0.1764 -0.2680 -0.4422
10133TIP3   OH254593   0.094   1.126   9.496 -0.6255 -0.4417 -0.5180
10133TIP3    H154594   0.185   1.095   9.488 -0.7977 -0.6710 -1.8908
10133TIP3    H254595   0.041   1.053   9.463 -1.2417  0.0684 -0.6728
10134TIP3   OH254596   1.437   1.401   8.169  0.0178  0.2137 -0.1751
10134TIP3    H154597   1.520   1.405   8.122  0.3170  4.9006  0.2695
10134TIP3    H254598   1.461   1.383   8.260  0.6000  1.3502 -0.0845
10135TIP3   OH254599   0.557   1.067  10.543  0.2915 -0.0989 -0.1843
10135TIP3    H154600   0.493   1.000  10.569 -0.4326 -0.0129 -1.6567
10135TIP3    H254601   0.553   1.068  10.447  1.1364  1.2485 -0.2305
10136TIP3   OH254602   2.073   1.401  10.680 -0.2604  0.2908  0.3943
10136TIP3    H154603   2.161   1.432  10.702 -0.6123  0.7876  1.1161
10136TIP3    H254604   2.088   1.333  10.614  0.5830  1.3161 -0.5260
10137TIP3   OH254605   0.566   6.429   9.343 -0.2076  0.4011  0.2661
10137TIP3    H154606   0.512   6.508   9.349 -1.2221 -0.0695 -1.6984
10137TIP3    H254607   0.502   6.358   9.333  0.7321 -0.4013 -0.1793
10138TIP3   OH254608   0.887   0.557   9.515  0.1329  0.4209  0.0693
10138TIP3    H154609   0.963   0.500   9.503  0.3174  0.6290  0.2363
10138TIP3    H254610   0.925   0.643   9.535 -0.1433  0.5828 -0.1017
10139TIP3   OH254611   1.691   5.186  11.015 -0.1941  0.0009  0.3557
10139TIP3    H154612   1.599   5.210  11.030 -0.6320 -0.9493 -0.5950
10139TIP3    H254613   1.694   5.092  11.033  0.9815  0.3045  1.9321
10140TIP3   OH254614   4.522   1.983   8.046  0.5129  0.4825  0.9209
10140TIP3    H154615   4.579   2.058   8.060  0.9468 -0.1825  3.0448
10140TIP3    H254616   4.453   1.991   8.111 -0.6929  0.1676 -0.2656
10141TIP3   OH254617   1.120   1.885  10.580 -0.6351  0.6456 -0.3814
10141TIP3    H154618   1.213   1.893  10.603 -1.1942  0.0249  2.4717
10141TIP3    H254619   1.121   1.844  10.494  1.7561 -0.4023  0.0466
10142TIP3   OH254620   1.014   2.182   9.885  0.2771 -0.1415 -0.3041
10142TIP3    H154621   0.924   2.209   9.868 -0.6782 -2.0053  1.2994
10142TIP3    H254622   1.052   2.254   9.934 -0.2951  0.7054 -1.0752
10143TIP3   OH254623   4.935   2.927   9.647 -0.4840 -0.4582  0.3039
10143TIP3    H154624   4.910   2.948   9.557 -0.0952  0.9900  0.5103
10143TIP3    H254625   5.020   2.968   9.659 -0.6298 -0.4318  1.3937
10144TIP3   OH254626   1.955   1.796  10.628 -0.0624  1.0154  0.1712
10144TIP3    H154627   2.026   1.802  10.692  0.5692  0.4612 -0.4505
10144TIP3    H254628   1.902   1.722  10.657  1.3749 -0.5620 -1.0115
10145TIP3   OH254629   0.628   6.254   9.876  0.6831  0.1337 -0.5206
10145TIP3    H154630   0.553   6.223   9.824  1.9456  0.0257 -2.3799
10145TIP3    H254631   0.691   6.182   9.871  0.3242 -0.4944  2.4564
10146TIP3   OH254632   5.167   5.079   8.551 -0.3908 -0.0774 -0.2223
10146TIP3    H154633   5.137   5.135   8.479  0.1967  3.2105  1.8686
10146TIP3    H254634   5.260   5.065   8.533  0.0826  1.8551  0.4348
10147TIP3   OH254635   6.440   3.321   8.612  0.4290 -0.1870  0.5454
10147TIP3    H154636   6.437   3.242   8.558 -0.8545  0.3645 -0.2399
10147TIP3    H254637   6.512   3.373   8.575 -1.3911  0.8912 -1.7486
10148TIP3   OH254638   1.553   1.117  10.230  0.3372  0.2752 -0.0501
10148TIP3    H154639   1.483   1.051  10.227 -0.8661  1.5116 -0.2816
10148TIP3    H254640   1.584   1.124  10.140  2.2185 -1.7077  0.3620
10149TIP3   OH254641   3.045   5.090  10.832 -0.2441 -0.0065  1.0373
10149TIP3    H154642   2.971   5.102  10.773  1.1720  0.9111 -0.6373
10149TIP3    H254643   3.039   5.162  10.895 -0.7119  0.1088  0.8601
10150TIP3   OH254644   3.489   0.165  11.216 -0.1481  0.4569 -0.0657
10150TIP3    H154645   3.426   0.107  11.258 -1.4413  1.2564 -0.8270
10150TIP3    H254646   3.445   0.250  11.213  0.7925  0.9342 -1.0033
10151TIP3   OH254647   4.818   3.446   8.136 -0.3438  0.0784 -0.0401
10151TIP3    H154648   4.740   3.427   8.084 -0.1955 -2.2351  0.4489
10151TIP3    H254649   4.863   3.362   8.143  1.9454  1.2405  0.1387
10152TIP3   OH254650   4.582   3.178   8.583 -0.3705  0.5471 -0.2801
10152TIP3    H154651   4.677   3.184   8.594 -0.2988  2.3291 -1.4527
10152TIP3    H254652   4.569   3.158   8.491 -1.1493 -1.0658  0.1398
10153TIP3   OH254653   4.325   3.828   8.633  0.1368 -0.0494 -0.0746
10153TIP3    H154654   4.352   3.919   8.641  1.5094  0.0269 -3.7549
10153TIP3    H254655   4.406   3.779   8.622 -0.6712 -1.4381 -0.1736
10154TIP3   OH254656   0.885   4.984   8.661  0.3468  0.3597 -0.2767
10154TIP3    H154657   0.973   5.005   8.692 -0.2011  0.2730  1.4705
10154TIP3    H254658   0.827   5.038   8.715 -0.7530 -0.9703 -0.0707
10155TIP3   OH254659   4.314   3.311  10.394  0.1513 -0.4923  0.0059
10155TIP3    H154660   4.349   3.345  10.312 -0.5483 -0.5876 -0.3367
10155TIP3    H254661   4.248   3.248  10.368 -0.1283 -0.4725  0.6463
10156TIP3   OH254662   4.239   2.132   8.432 -0.1245 -0.4224 -0.0581
10156TIP3    H154663   4.160   2.095   8.472 -1.0177  1.0787 -0.3687
10156TIP3    H254664   4.309   2.112   8.495 -0.6598 -2.1153  0.0364
10157TIP3   OH254665   3.784   1.260   8.221  0.5221 -0.2390  0.2857
10157TIP3    H154666   3.695   1.285   8.200  1.1219  2.8578  0.9701
10157TIP3    H254667   3.784   1.247   8.316  0.6259 -1.2324  0.1650
10158TIP3   OH254668   0.115   3.370   7.679  0.0897  0.1033 -0.0838
10158TIP3    H154669   0.209   3.353   7.689  0.4872  1.6323 -0.8442
10158TIP3    H254670   0.111   3.454   7.633 -1.6391 -0.8986 -1.9049
10159TIP3   OH254671   2.238   4.046  11.238  0.0073  0.3615 -0.1268
10159TIP3    H154672   2.192   3.963  11.249 -0.5604  0.6207 -0.5261
10159TIP3    H254673   2.170   4.113  11.244  0.5075  0.8264  0.5164
10160TIP3   OH254674   4.926   0.605  10.114 -0.5085  0.4171  0.7325
10160TIP3    H154675   4.938   0.698  10.136  0.2232  0.6853 -0.6637
10160TIP3    H254676   4.835   0.598  10.087 -0.7069  0.6173  1.3407
10161TIP3   OH254677   6.164   6.660   9.928 -0.4118  0.8556 -0.0465
10161TIP3    H154678   6.079   6.694   9.900 -0.5058  0.9113  0.3016
10161TIP3    H254679   6.187   6.715  10.003 -0.6058  0.0959  0.5796
10162TIP3   OH254680   5.306   6.380  10.290 -0.9917 -0.1275 -0.0420
10162TIP3    H154681   5.221   6.355  10.252 -0.3101 -1.4599 -0.7666
10162TIP3    H254682   5.362   6.396  10.214 -0.3831  0.0203  0.4282
10163TIP3   OH254683   0.534   3.085   8.462 -0.3940  0.2733  0.0561
10163TIP3    H154684   0.517   3.029   8.538 -1.1173 -0.3913 -0.5767
10163TIP3    H254685   0.447   3.110   8.430 -0.0877  1.8501  0.3647
10164TIP3   OH254686   5.551   1.358  11.369  0.2630  0.0222 -0.0339
10164TIP3    H154687   5.484   1.295  11.397  1.0353 -0.6170  0.4276
10164TIP3    H254688   5.530   1.438  11.417 -1.1078  0.3488 -1.1023
10165TIP3   OH254689   2.447   4.050  11.453 -0.1451 -0.3907 -0.2819
10165TIP3    H154690   2.386   4.069  11.524 -0.6435 -0.1023 -0.7816
10165TIP3    H254691   2.399   4.071  11.373 -0.0458 -1.9169 -0.7831
10166TIP3   OH254692   3.445   1.069  10.323 -0.1496 -0.5465  0.5913
10166TIP3    H154693   3.359   1.028  10.324 -0.8607  0.9041  0.8171
10166TIP3    H254694   3.436   1.148  10.376  0.2746  1.6350 -2.2717
10167TIP3   OH254695   5.681   5.725  10.349 -0.0980  0.3443 -0.2959
10167TIP3    H154696   5.770   5.690  10.341  0.3590  1.4666 -0.2317
10167TIP3    H254697   5.672   5.747  10.441 -0.7880 -0.6123 -0.1151
10168TIP3   OH254698   4.869   3.309  10.504  0.7560 -0.0869  0.5233
10168TIP3    H154699   4.940   3.278  10.447 -0.0361 -1.0362  0.0275
10168TIP3    H254700   4.807   3.352  10.444 -0.8229 -2.4033  0.3682
10169TIP3   OH254701   6.295   3.201   8.172 -0.1114  0.1232 -0.5039
10169TIP3    H154702   6.336   3.283   8.197  2.0923 -1.3838  1.2828
10169TIP3    H254703   6.333   3.179   8.087  0.3315  0.3147 -0.3571
10170TIP3   OH254704   3.724   6.201   8.806 -0.5453 -0.1135  0.1285
10170TIP3    H154705   3.742   6.287   8.766 -0.7846  0.8231  1.9375
10170TIP3    H254706   3.644   6.171   8.763  0.8429 -0.6252 -2.2835
10171TIP3   OH254707   0.972   0.993   8.624 -0.4076  0.2446 -0.1051
10171TIP3    H154708   0.986   0.961   8.535 -0.1223  0.2819 -0.0740
10171TIP3    H254709   1.018   0.929   8.679  1.6372  1.6186 -0.1331
10172TIP3   OH254710   5.076   0.788   8.635 -0.0344  0.3446 -0.0211
10172TIP3    H154711   5.023   0.728   8.687  1.2867  0.6547  1.7785
10172TIP3    H254712   5.015   0.854   8.604 -0.6866  1.0468  2.5136
10173TIP3   OH254713   4.646   6.218   9.503 -0.0165  0.4206  0.1538
10173TIP3    H154714   4.622   6.276   9.430 -1.3540  0.3357  0.5046
10173TIP3    H254715   4.741   6.230   9.512  0.1040  0.7917 -1.2839
10174TIP3   OH254716   4.721   1.619   9.973 -0.2149 -0.2750  0.0943
10174TIP3    H154717   4.775   1.580  10.042 -0.7248 -0.6417  0.2886
10174TIP3    H254718   4.723   1.713   9.990 -0.7122 -0.4039  0.8789
10175TIP3   OH254719   2.600   6.254   9.921  0.2141 -0.2531  0.2277
10175TIP3    H154720   2.568   6.200   9.993 -2.3490  1.2923  0.3423
10175TIP3    H254721   2.524   6.302   9.890  1.6329  0.5834 -2.2931
10176TIP3   OH254722   1.365   5.708   8.931 -0.7650 -0.5227  0.1052
10176TIP3    H154723   1.334   5.619   8.917  0.5421 -0.9677 -0.0936
10176TIP3    H254724   1.346   5.753   8.849  0.5720 -1.2400 -0.6263
10177TIP3   OH254725   0.795   3.376  11.616 -0.5611  0.0584  0.2729
10177TIP3    H154726   0.763   3.363  11.705 -1.2462  1.2443  0.2245
10177TIP3    H254727   0.877   3.425  11.627  0.0221 -0.9063  0.2948
10178TIP3   OH254728   1.326   5.254   8.608  0.4174 -0.0352 -0.4585
10178TIP3    H154729   1.412   5.212   8.611 -1.3390 -4.0777  1.2678
10178TIP3    H254730   1.299   5.247   8.516  0.8314 -1.4546 -0.5014
10179TIP3   OH254731   4.162   1.678   9.650  0.1314  0.3124 -0.1358
10179TIP3    H154732   4.164   1.675   9.554 -2.9072 -0.8346 -0.2555
10179TIP3    H254733   4.145   1.769   9.671 -1.1271  0.2430 -0.7915
10180TIP3   OH254734   2.566   6.351   8.471 -1.0806 -0.0358  0.1102
10180TIP3    H154735   2.545   6.437   8.435  0.1300 -0.1525 -0.9132
10180TIP3    H254736   2.492   6.296   8.445 -2.0657  0.7569  1.1275
10181TIP3   OH254737   3.776   1.412   8.629 -0.0239  0.3210  0.1619
10181TIP3    H154738   3.838   1.460   8.575 -1.1043 -0.1795 -1.6216
10181TIP3    H254739   3.830   1.356   8.685  1.1753  1.9117  0.6452
10182TIP3   OH254740   2.109   3.163   9.979  0.1459 -0.4807 -0.3798
10182TIP3    H154741   2.128   3.075  10.010  1.0617  0.2262  1.1828
10182TIP3    H254742   2.176   3.180   9.913 -1.5058 -1.8056 -2.5193
10183TIP3   OH254743   2.104   3.612   9.406  0.2638  0.4611  0.0865
10183TIP3    H154744   2.073   3.595   9.317  2.0913  0.0588 -0.5236
10183TIP3    H254745   2.065   3.542   9.458 -1.3562  1.0784 -0.2387
10184TIP3   OH254746   0.500   1.834   7.659 -0.7650 -0.2311  0.1947
10184TIP3    H154747   0.452   1.865   7.737 -1.6080 -0.2883 -0.2853
10184TIP3    H254748   0.459   1.750   7.638 -0.2076 -0.4491 -0.0289
10185TIP3   OH254749   0.431   5.671   9.768 -0.3185 -0.2880 -0.1379
10185TIP3    H154750   0.356   5.684   9.711  0.6189  0.7051 -1.1974
10185TIP3    H254751   0.502   5.720   9.726  0.5160  0.1479  1.6607
10186TIP3   OH254752   2.781   3.883  10.113  0.7019  0.5117  0.3361
10186TIP3    H154753   2.763   3.802  10.160  1.2902 -0.0520 -0.3993
10186TIP3    H254754   2.694   3.919  10.094  0.3318 -1.1936 -1.4601
10187TIP3   OH254755   5.154   2.684   9.656  0.1327  0.6030 -0.0122
10187TIP3    H154756   5.076   2.701   9.602 -0.5125  3.6063  1.6542
10187TIP3    H254757   5.122   2.630   9.728  0.0529  0.2120 -0.3349
10188TIP3   OH254758   5.583   4.089   9.620 -0.0377 -0.2437  0.1695
10188TIP3    H154759   5.544   4.009   9.655  0.2066 -0.9868 -1.1971
10188TIP3    H254760   5.567   4.085   9.526  1.0519  0.7183 -0.0856
10189TIP3   OH254761   5.080   4.348   8.811 -0.1986 -0.1845  0.1334
10189TIP3    H154762   5.160   4.397   8.832 -1.1676  1.5580 -0.0680
10189TIP3    H254763   5.011   4.391   8.862 -1.3717 -0.3204 -1.2550
10190TIP3   OH254764   5.167   0.769  10.490 -0.0166  0.5114 -0.4158
10190TIP3    H154765   5.100   0.805  10.548 -0.2386 -1.2805  0.5030
10190TIP3    H254766   5.145   0.677  10.482  0.8271  0.4241 -2.2698
10191TIP3   OH254767   3.184   2.117  10.691  0.8359 -0.1898  0.2110
10191TIP3    H154768   3.170   2.209  10.669  1.3286  0.2596  1.6405
10191TIP3    H254769   3.096   2.078  10.688  0.7431  0.0887 -1.3026
10192TIP3   OH254770   6.310   0.164   8.865  0.6510  0.1967 -0.0019
10192TIP3    H154771   6.332   0.072   8.851  0.6035  0.3289 -1.0803
10192TIP3    H254772   6.214   0.166   8.868  0.6617  0.1696  0.3055
10193TIP3   OH254773   5.670   1.512   8.653 -0.4619  0.9698  0.6412
10193TIP3    H154774   5.608   1.567   8.606  1.3642  2.5629 -0.0481
10193TIP3    H254775   5.756   1.534   8.615  0.7270  0.0559  2.6103
10194TIP3   OH254776   6.413   5.057  10.684 -0.0843 -0.1747 -0.0556
10194TIP3    H154777   6.333   5.105  10.662  0.2512  0.8240  0.8159
10194TIP3    H254778   6.425   5.072  10.777  0.4459 -1.3661  0.0800
10195TIP3   OH254779   5.856   5.600   9.347 -0.1159  0.0661  0.0480
10195TIP3    H154780   5.816   5.623   9.263  0.1755  1.0370  0.1678
10195TIP3    H254781   5.946   5.576   9.325  0.0163  0.5018  0.0911
10196TIP3   OH254782   1.539   3.958   7.908  0.0603  0.3807 -0.0416
10196TIP3    H154783   1.626   3.949   7.946  0.2224 -1.1919 -0.6812
10196TIP3    H254784   1.480   3.966   7.983  0.4997 -1.4103  0.5337
10197TIP3   OH254785   1.504   2.690   9.259 -0.2608 -0.2596 -0.1552
10197TIP3    H154786   1.577   2.724   9.208 -0.6264  0.8868  0.0426
10197TIP3    H254787   1.540   2.616   9.308  0.9395  0.7009  0.4503
10198TIP3   OH254788   3.851   1.452   9.466 -0.7502 -0.1072  0.3376
10198TIP3    H154789   3.760   1.425   9.458 -0.1200 -2.5553  0.7311
10198TIP3    H254790   3.859   1.526   9.405 -2.4883 -1.1387 -1.2442
10199TIP3   OH254791   6.484   2.415  11.509 -0.3936  0.4536 -0.4290
10199TIP3    H154792   6.478   2.502  11.471 -1.3988  1.3385  1.6104
10199TIP3    H254793   6.397   2.377  11.495 -0.5097  0.4694  0.2367
10200TIP3   OH254794   3.735   4.056  10.348 -0.2744  0.0396 -0.4557
10200TIP3    H154795   3.819   4.093  10.320 -0.2452 -1.0154 -1.8663
10200TIP3    H254796   3.670   4.122  10.322  0.0729  0.7356  0.3919
10201TIP3   OH254797   1.327   0.921  10.161 -0.2010 -0.3867 -0.6507
10201TIP3    H154798   1.283   0.916  10.077 -1.2672  0.1331 -0.1470
10201TIP3    H254799   1.267   0.877  10.222  0.0852  0.1102  0.0077
10202TIP3   OH254800   5.368   0.517  11.046 -0.1231  0.3044  0.2890
10202TIP3    H154801   5.430   0.458  11.090 -0.4515 -1.4922 -1.5084
10202TIP3    H254802   5.301   0.459  11.011 -1.1072  1.8938 -0.5610
10203TIP3   OH254803   1.501   0.632  10.885 -0.1177  0.3191 -0.1107
10203TIP3    H154804   1.525   0.695  10.817 -0.8374  0.0131 -0.6525
10203TIP3    H254805   1.412   0.657  10.911 -0.3217 -0.3295 -0.1675
10204TIP3   OH254806   4.212   1.016   9.427  0.5912 -0.1091  0.1240
10204TIP3    H154807   4.165   1.004   9.510  1.3023 -0.0043  0.5564
10204TIP3    H254808   4.303   1.028   9.454  0.8411 -0.1725 -0.6876
10205TIP3   OH254809   5.153   0.285   9.586  0.3770  0.3553 -0.0105
10205TIP3    H154810   5.247   0.304   9.587  0.4438  0.0048  0.5229
10205TIP3    H254811   5.115   0.357   9.535  1.0262  0.0630 -0.9394
10206TIP3   OH254812   2.859   4.128   8.057 -0.0667 -0.3691 -0.9810
10206TIP3    H154813   2.902   4.200   8.011 -1.3353  0.2562 -1.2368
10206TIP3    H254814   2.769   4.158   8.071  0.3308 -0.3207  2.3307
10207TIP3   OH254815   5.151   1.492   9.573  0.1809  0.2833  0.6925
10207TIP3    H154816   5.068   1.475   9.618 -1.0713 -2.7566 -2.2493
10207TIP3    H254817   5.203   1.413   9.587  0.3101 -0.1599 -1.7533
10208TIP3   OH254818   2.289   3.540  10.473  0.2886  0.2949  0.0057
10208TIP3    H154819   2.235   3.493  10.409 -1.5302  1.9459  0.2502
10208TIP3    H254820   2.298   3.479  10.546  0.5773 -0.7996 -0.9189
10209TIP3   OH254821   2.158   2.238   9.586  0.2138 -0.2149 -0.5652
10209TIP3    H154822   2.236   2.246   9.641  0.6971  0.2838 -1.3063
10209TIP3    H254823   2.123   2.327   9.581  0.2413 -0.2311 -1.1494
10210TIP3   OH254824   4.545   4.181   8.483  0.2991  0.4758 -0.5104
10210TIP3    H154825   4.459   4.140   8.484  0.9209 -0.8587  0.1217
10210TIP3    H254826   4.558   4.208   8.392 -0.0158 -0.9855 -1.0054
10211TIP3   OH254827   3.051   6.731  10.566  0.1001  0.1139  0.2766
10211TIP3    H154828   3.089   6.682  10.493 -0.2844  0.1281  0.0649
10211TIP3    H254829   3.091   6.818  10.559  0.6898 -0.1264  0.5785
10212TIP3   OH254830   2.609   0.415   8.631  0.4655  0.8279 -0.6106
10212TIP3    H154831   2.678   0.409   8.697  0.7435 -1.4130 -0.9994
10212TIP3    H254832   2.649   0.461   8.558 -0.0271  3.8785  0.9028
10213TIP3   OH254833   5.483   6.262   8.704 -0.1321  0.0774  0.0189
10213TIP3    H154834   5.478   6.355   8.685  1.3354  0.2741  0.4452
10213TIP3    H254835   5.479   6.220   8.618 -0.0682  0.5767 -0.2319
10214TIP3   OH254836   2.192   4.814  10.293  0.4377  0.2991  0.3702
10214TIP3    H154837   2.184   4.806  10.388 -0.8574  1.0792  0.3547
10214TIP3    H254838   2.212   4.907  10.278 -0.6750  0.4766 -0.1543
10215TIP3   OH254839   5.815   1.057   9.966 -0.4511  0.3829  0.5038
10215TIP3    H154840   5.886   0.994   9.976 -1.0643 -0.5778 -0.8755
10215TIP3    H254841   5.851   1.140   9.997  1.6002  0.1400 -1.0769
10216TIP3   OH254842   5.999   1.004   9.141 -0.1687  0.0275  0.2538
10216TIP3    H154843   6.021   1.082   9.192 -0.6529 -0.8924  1.9659
10216TIP3    H254844   5.904   0.997   9.148 -0.4644  0.6999 -2.1184
10217TIP3   OH254845   3.333   2.467   9.186 -0.4837  0.0532  0.1490
10217TIP3    H154846   3.329   2.372   9.197  2.6704  0.0381  2.9306
10217TIP3    H254847   3.418   2.483   9.144 -0.8013  1.6570  0.0480
10218TIP3   OH254848   5.542   0.994   9.893  0.3289 -0.0720 -0.4888
10218TIP3    H154849   5.635   1.006   9.909  0.2026 -0.0218  0.2398
10218TIP3    H254850   5.502   0.997   9.980 -0.2844 -0.7147 -0.7432
10219TIP3   OH254851   3.279   6.741  11.324  0.5006 -0.2464  0.5866
10219TIP3    H154852   3.346   6.684  11.285  0.3525  0.7153 -1.1910
10219TIP3    H254853   3.209   6.743  11.258 -0.3688  0.3988  1.5181
10220TIP3   OH254854   3.318   1.699   8.093 -0.1244 -0.1527 -0.2732
10220TIP3    H154855   3.243   1.733   8.142 -0.0360  1.9790 -1.4639
10220TIP3    H254856   3.280   1.656   8.017 -0.1812  0.0133 -0.3397
10221TIP3   OH254857   1.928   3.129  10.993 -0.0134 -0.1693  0.4562
10221TIP3    H154858   1.980   3.054  11.020  1.2199  0.2623 -0.6019
10221TIP3    H254859   1.842   3.115  11.034  1.1633 -0.4305  3.0434
10222TIP3   OH254860   5.991   6.202   9.946  0.7003  0.1211 -0.6479
10222TIP3    H154861   5.972   6.129   9.887  1.5443 -0.3258 -0.3723
10222TIP3    H254862   5.957   6.174  10.031  0.4112  0.3374 -0.6901
10223TIP3   OH254863   4.327   3.880   8.195 -0.1184  0.3047 -0.6371
10223TIP3    H154864   4.328   3.808   8.133 -0.4860 -0.9137  0.7191
10223TIP3    H254865   4.406   3.931   8.173  1.4685 -1.8101 -0.1882
10224TIP3   OH254866   1.748   2.984   8.133  0.2349 -0.3853 -0.0569
10224TIP3    H154867   1.723   2.896   8.104 -1.3265 -0.7978  2.2805
10224TIP3    H254868   1.825   3.006   8.080  0.9400 -3.3156 -0.4219
10225TIP3   OH254869   1.697   2.692  10.104 -0.3743 -0.3329  0.1831
10225TIP3    H154870   1.749   2.706  10.025 -0.7829  0.2181  0.0125
10225TIP3    H254871   1.761   2.662  10.169  0.3599  1.3282  0.2687
10226TIP3   OH254872   1.184   1.804   7.820  0.1078 -0.1506 -0.3546
10226TIP3    H154873   1.127   1.727   7.810 -1.2020  0.5042  1.5588
10226TIP3    H254874   1.123   1.878   7.829  1.2965  0.7965  0.2097
10227TIP3   OH254875   5.617   4.156   9.880 -0.2529  0.0501 -0.6090
10227TIP3    H154876   5.605   4.141   9.786 -0.4306  0.8395 -0.7147
10227TIP3    H254877   5.657   4.075   9.912  1.9154  0.5921 -1.7588
10228TIP3   OH254878   6.020   1.687  10.022  0.1918 -0.3442  0.0333
10228TIP3    H154879   5.970   1.768  10.020  1.8676  0.8085  1.3674
10228TIP3    H254880   5.955   1.618  10.035 -1.0961  1.0153  1.1047
10229TIP3   OH254881   2.915   4.360  11.001  0.3803  0.6586 -0.2372
10229TIP3    H154882   2.820   4.359  10.987  0.4982  0.6727 -1.0466
10229TIP3    H254883   2.946   4.279  10.961  0.7298  0.7023 -0.0614
10230TIP3   OH254884   3.032   0.120   8.653  0.0420  0.6989  0.0472
10230TIP3    H154885   3.038   0.079   8.567 -1.3503  2.4781 -0.9654
10230TIP3    H254886   2.944   0.157   8.657  0.7696  2.4471  1.3881
10231TIP3   OH254887   6.588   0.213   7.942 -0.2146  0.1233  0.2292
10231TIP3    H154888   6.599   0.150   7.870 -1.1930  0.0787  0.1135
10231TIP3    H254889   6.672   0.211   7.988  1.6586  2.4676 -2.7078
10232TIP3   OH254890   6.609   3.275   7.703 -0.5454  0.3698  0.4630
10232TIP3    H154891   6.690   3.324   7.710 -0.5739  0.2463  2.0674
10232TIP3    H254892   6.597   3.261   7.609  1.0419  0.7747  0.1739
10233TIP3   OH254893   3.766   6.556   8.985 -0.0526  0.0536  0.3178
10233TIP3    H154894   3.782   6.503   8.907 -0.2538  1.8584 -1.0304
10233TIP3    H254895   3.840   6.537   9.042 -1.2153 -3.2814  0.9008
10234TIP3   OH254896   0.563   1.666  11.356  0.0277  0.4221 -0.2227
10234TIP3    H154897   0.516   1.730  11.410 -0.7339  0.1605 -0.5749
10234TIP3    H254898   0.570   1.589  11.412  1.5432  0.9972  0.4619
10235TIP3   OH254899   3.531   4.478   8.683  0.3253  0.4472  0.2215
10235TIP3    H154900   3.526   4.433   8.599  0.0558  0.4675  0.2259
10235TIP3    H254901   3.509   4.411   8.748  2.3204 -0.0593  0.4409
10236TIP3   OH254902   0.479   0.844  11.629  0.2586 -0.4665  0.0944
10236TIP3    H154903   0.570   0.822  11.649 -0.1106 -1.2773  0.9765
10236TIP3    H254904   0.483   0.884  11.542  1.4804 -0.2690  0.2192
10237TIP3   OH254905   0.768   6.185  10.641 -0.0533  0.2627 -0.3783
10237TIP3    H154906   0.690   6.180  10.697 -0.8154 -0.0705 -1.4426
10237TIP3    H254907   0.820   6.255  10.680  0.0661 -0.8028  1.5081
10238TIP3   OH254908   2.489   4.902   9.432  0.6356  0.1522 -0.4959
10238TIP3    H154909   2.549   4.977   9.430  0.7847  0.0333 -2.1162
10238TIP3    H254910   2.429   4.918   9.359 -0.3051 -0.5441  0.1055
10239TIP3   OH254911   0.241   6.735   9.820 -0.5998 -0.1014  0.3258
10239TIP3    H154912   0.241   6.767   9.730 -0.6917  0.2802  0.4570
10239TIP3    H254913   0.314   6.673   9.824 -0.3088  0.2217  0.1076
10240TIP3   OH254914   2.769   6.741  11.082 -0.1366  0.1977 -0.0879
10240TIP3    H154915   2.702   6.808  11.070  0.1467  0.3323 -0.9529
10240TIP3    H254916   2.723   6.669  11.126 -0.5947  0.6962  0.2624
10241TIP3   OH254917   6.091   2.502  10.137  0.5295  0.0161 -0.2106
10241TIP3    H154918   6.028   2.448  10.089  0.5222  1.9044 -2.5175
10241TIP3    H254919   6.068   2.592  10.112  2.2765  0.9199  1.2710
10242TIP3   OH254920   5.177   0.090  10.024  0.6775  0.4391  0.0898
10242TIP3    H154921   5.166   0.131  10.110  0.9324  2.4182 -0.7638
10242TIP3    H254922   5.145   0.156   9.962  0.5760 -0.9106 -1.3483
10243TIP3   OH254923   1.989   4.861  10.041 -0.3710  0.1782 -0.4343
10243TIP3    H154924   1.976   4.943   9.994  0.3770  0.0315 -0.9228
10243TIP3    H254925   2.050   4.812   9.986 -0.4072 -0.4895  0.1105
10244TIP3   OH254926   5.928   2.128   8.598  0.2917  0.3572  0.1428
10244TIP3    H154927   5.845   2.135   8.646  0.7152  1.5124  0.7592
10244TIP3    H254928   5.991   2.101   8.665  0.5998  0.4914 -0.0933
10245TIP3   OH254929   0.557   1.602   9.764  0.4158 -0.3148 -0.3751
10245TIP3    H154930   0.492   1.589   9.833 -0.5297 -1.2568 -1.4146
10245TIP3    H254931   0.565   1.516   9.722  0.2346  0.4640 -2.0659
10246TIP3   OH254932   1.533   4.265   8.304  0.1607  0.2488 -0.0926
10246TIP3    H154933   1.572   4.346   8.269  0.1150 -0.3180 -1.5332
10246TIP3    H254934   1.448   4.259   8.260  0.9093 -1.4934 -1.4167
10247TIP3   OH254935   5.423   0.125   9.224 -0.1309  0.0661 -0.1766
10247TIP3    H154936   5.412   0.220   9.231 -0.6911  0.0494 -0.7217
10247TIP3    H254937   5.494   0.104   9.284  0.6300  0.9582 -0.7453
10248TIP3   OH254938   1.361   6.704   9.280  0.2420 -0.3076  0.3130
10248TIP3    H154939   1.411   6.637   9.233  0.7561 -0.6820  1.3698
10248TIP3    H254940   1.353   6.670   9.369  1.4657  1.5152  1.1779
10249TIP3   OH254941   4.391   2.937   9.143 -0.4428 -0.3094 -0.7100
10249TIP3    H154942   4.480   2.968   9.125 -0.8507 -0.0074 -2.3187
10249TIP3    H254943   4.396   2.903   9.233  1.1615  0.1617 -0.5833
10250TIP3   OH254944   5.285   1.585  10.489 -0.0110 -0.1306  0.1910
10250TIP3    H154945   5.309   1.534  10.411 -2.0779 -1.6424  0.4723
10250TIP3    H254946   5.364   1.585  10.543  1.6696  1.4217 -2.0625
10251TIP3   OH254947   2.312   5.357  10.185 -0.0267  0.1734  0.3720
10251TIP3    H154948   2.355   5.286  10.232 -1.4617 -0.6122  0.5557
10251TIP3    H254949   2.323   5.433  10.241  1.9218  0.2547 -0.0326
10252TIP3   OH254950   3.800   4.114   9.109 -0.4070 -0.2779 -0.2863
10252TIP3    H154951   3.853   4.120   9.188  0.7148  0.3708 -1.0669
10252TIP3    H254952   3.751   4.033   9.119 -0.0836 -0.3360  0.9506
10253TIP3   OH254953   4.257   3.934  11.094  0.1757 -0.6481 -0.2054
10253TIP3    H154954   4.332   3.941  11.153  0.0023 -3.0448  0.3912
10253TIP3    H254955   4.181   3.951  11.150  0.1565 -0.0810 -0.3963
10254TIP3   OH254956   1.465   5.055   8.741 -0.2410 -0.0193 -0.3944
10254TIP3    H154957   1.450   5.000   8.664  0.6562 -2.3094  0.9575
10254TIP3    H254958   1.406   5.019   8.808 -1.7518  2.5679 -0.2224
10255TIP3   OH254959   3.949   2.544   8.936 -0.0922  0.2646  0.0273
10255TIP3    H154960   3.988   2.631   8.943 -0.6805  0.7639 -2.0990
10255TIP3    H254961   3.889   2.551   8.861 -1.4681 -1.4938  0.9050
10256TIP3   OH254962   1.292   2.741  11.020  0.3690  0.0941 -0.3068
10256TIP3    H154963   1.209   2.705  10.991 -0.7182  2.1691  0.0624
10256TIP3    H254964   1.299   2.715  11.112  0.6350 -0.9070 -0.5974
10257TIP3   OH254965   4.401   2.116  10.798 -1.0025  0.2636  0.8926
10257TIP3    H154966   4.375   2.194  10.846  1.4736  2.4728 -1.0657
10257TIP3    H254967   4.365   2.128  10.710  0.5527 -0.0615  0.1673
10258TIP3   OH254968   3.675   6.041   9.442 -0.4912 -0.0696  0.0511
10258TIP3    H154969   3.661   6.105   9.512  0.1533 -1.0021  1.0495
10258TIP3    H254970   3.643   5.958   9.478 -2.6946 -0.1069 -1.7380
10259TIP3   OH254971   3.025   4.332  10.152  0.5322  0.2815 -0.0007
10259TIP3    H154972   3.011   4.424  10.173 -3.8430 -0.4155  1.2171
10259TIP3    H254973   3.019   4.287  10.236 -0.7602 -1.3138 -0.8885
10260TIP3   OH254974   1.855   3.791   9.918 -0.2784  0.0915  0.1270
10260TIP3    H154975   1.781   3.747   9.960  0.0675 -1.0147 -0.4206
10260TIP3    H254976   1.903   3.830   9.991 -1.6374  1.2345  0.4582
10261TIP3   OH254977   1.095   0.545   7.852  0.1981 -0.5274 -0.5836
10261TIP3    H154978   1.046   0.482   7.904 -0.7350 -1.0796 -2.0773
10261TIP3    H254979   1.146   0.492   7.791 -0.1633  0.1421 -1.4910
10262TIP3   OH254980   0.868   5.145   8.173 -0.3890 -0.1822  0.1616
10262TIP3    H154981   0.794   5.156   8.233  0.5917 -0.1080  1.4016
10262TIP3    H254982   0.898   5.234   8.155 -1.2290 -0.1446 -1.1975
10263TIP3   OH254983   6.155   1.937   9.814  0.2941  0.3475 -0.1067
10263TIP3    H154984   6.091   1.976   9.874  0.9586 -0.7085  1.3483
10263TIP3    H254985   6.102   1.885   9.753 -0.3351  0.6609  0.1682
10264TIP3   OH254986   1.324   6.056   8.159  0.1626 -0.0044 -0.3534
10264TIP3    H154987   1.361   6.111   8.228  0.5002  1.2408 -1.4950
10264TIP3    H254988   1.286   6.117   8.096 -1.1175 -1.1566 -0.7544
10265TIP3   OH254989   1.839   0.353   8.055 -0.3915 -0.1719 -0.0505
10265TIP3    H154990   1.822   0.412   7.982  1.8918  1.4482  0.6208
10265TIP3    H254991   1.933   0.362   8.073 -0.6367 -1.4009  2.3256
10266TIP3   OH254992   5.342   2.217   8.188 -0.3706  0.5106  0.0700
10266TIP3    H154993   5.318   2.179   8.273 -2.1644  0.9341 -0.2099
10266TIP3    H254994   5.268   2.196   8.131  0.6477  0.5453 -1.3130
10267TIP3   OH254995   2.314   3.867   9.757 -0.1543 -0.4442  0.1889
10267TIP3    H154996   2.291   3.901   9.671  1.9579  0.7391  0.0147
10267TIP3    H254997   2.249   3.904   9.816 -0.7888 -0.1292 -0.6904
10268TIP3   OH254998   4.557   4.299   8.252  0.2456  0.3453 -0.0063
10268TIP3    H154999   4.511   4.351   8.318 -0.4001 -1.9066  1.4021
10268TIP3    H255000   4.505   4.312   8.172 -1.5228 -0.2812  0.9827
10269TIP3   OH255001   2.370   3.211  10.298  0.3002 -0.3246  0.1476
10269TIP3    H155002   2.378   3.176  10.386 -0.4697  0.5306  0.5702
10269TIP3    H255003   2.281   3.247  10.294  0.5268  0.1617 -0.7819
10270TIP3   OH255004   3.802   4.502  10.257 -0.3572  0.6212  0.5000
10270TIP3    H155005   3.740   4.441  10.218 -1.4256  1.7828  0.3064
10270TIP3    H255006   3.849   4.451  10.323 -0.3410 -0.7080 -0.4950
10271TIP3   OH255007   0.436   3.636  10.131  0.2673  0.2950  0.0744
10271TIP3    H155008   0.520   3.640  10.085  0.1754  0.1747 -0.1060
10271TIP3    H255009   0.456   3.601  10.217  0.7021  2.0428  0.7373
10272TIP3   OH255010   2.153   2.965  10.494 -0.0537  0.7042 -0.3665
10272TIP3    H155011   2.209   2.943  10.419  0.2174  1.3100 -0.3503
10272TIP3    H255012   2.089   3.026  10.459  0.4269  1.4471  0.0065
10273TIP3   OH255013   0.881   3.903   9.428 -0.3733 -0.2289  0.3558
10273TIP3    H155014   0.868   3.960   9.504 -2.1239  0.3363 -0.2966
10273TIP3    H255015   0.932   3.829   9.461  0.3480  0.8148  1.6690
10274TIP3   OH255016   3.230   5.739  10.564  0.8276 -0.1082  0.5188
10274TIP3    H155017   3.150   5.731  10.511  0.7893 -0.0923  0.5732
10274TIP3    H255018   3.265   5.651  10.569  0.2196 -0.3125  1.4124
10275TIP3   OH255019   3.942   5.153  10.102  0.4175  0.9055  0.0834
10275TIP3    H155020   4.001   5.210  10.151  0.0636  1.0365  0.3640
10275TIP3    H255021   3.995   5.077  10.078  1.0610  1.6321 -0.8305
10276TIP3   OH255022   3.398   4.754   9.539  0.0279  0.4667  0.9329
10276TIP3    H155023   3.424   4.748   9.447  0.4890 -0.4788  1.1213
10276TIP3    H255024   3.442   4.834   9.571  2.8884 -1.1025  1.2667
10277TIP3   OH255025   4.081   0.546   9.204  0.1467 -0.7865  0.1278
10277TIP3    H155026   4.120   0.521   9.288 -0.6370 -0.8856  0.4716
10277TIP3    H255027   4.076   0.642   9.208 -2.1272 -0.9004  1.2472
10278TIP3   OH255028   0.731   1.717  10.729  0.0460  0.3708 -0.5763
10278TIP3    H155029   0.817   1.751  10.753 -0.3736  1.4720 -0.5687
10278TIP3    H255030   0.686   1.792  10.690 -0.2134 -0.6834 -2.4262
10279TIP3   OH255031   6.143   4.490   9.983 -0.4200  0.3425 -1.0196
10279TIP3    H155032   6.146   4.553   9.911  0.5452 -0.0838 -1.3616
10279TIP3    H255033   6.229   4.449   9.984  0.1974  1.4819  1.4225
10280TIP3   OH255034   6.648   6.229   9.399 -0.0977  0.0785  0.0195
10280TIP3    H155035   6.561   6.219   9.363 -0.5602 -0.9460  1.3407
10280TIP3    H255036   6.652   6.320   9.429  0.5461  1.1801 -3.0632
10281TIP3   OH255037   1.957   3.225   7.981 -0.2004 -0.9511  0.2414
10281TIP3    H155038   1.901   3.300   7.963 -0.4859 -1.3393 -0.5271
10281TIP3    H255039   2.046   3.257   7.968 -0.3331 -0.8083 -0.3376
10282TIP3   OH255040   1.946   6.564  10.503 -0.5746  0.2289 -0.2314
10282TIP3    H155041   1.922   6.595  10.416  0.6801 -0.5578 -0.8932
10282TIP3    H255042   1.909   6.629  10.563  0.0766  1.7909 -1.4402
10283TIP3   OH255043   3.802   0.100  10.833 -1.2971  0.0906  0.1386
10283TIP3    H155044   3.759   0.115  10.917 -2.8723  0.2023 -0.6658
10283TIP3    H255045   3.857   0.177  10.820 -1.4839  0.3404  0.7848
10284TIP3   OH255046   5.620   5.358  10.424 -0.5770 -0.1059 -0.5570
10284TIP3    H155047   5.554   5.393  10.483  1.6867 -0.9639  2.7549
10284TIP3    H255048   5.589   5.270  10.403 -1.1264 -0.0067 -0.1778
10285TIP3   OH255049   0.986   3.178   9.083 -0.1073 -0.7007  0.4795
10285TIP3    H155050   0.919   3.110   9.093 -1.8964  0.4855 -2.3327
10285TIP3    H255051   0.942   3.249   9.037  2.6521  0.8703  0.0418
10286TIP3   OH255052   0.108   2.748   8.273  0.2518 -0.1077 -0.0184
10286TIP3    H155053   0.093   2.674   8.333 -0.0301 -1.0990 -1.2761
10286TIP3    H255054   0.106   2.709   8.186 -2.1645  1.6744 -0.8846
10287TIP3   OH255055   2.068   3.899   8.526 -0.2779  0.4967 -0.0688
10287TIP3    H155056   2.107   3.919   8.611  0.7178  0.0903 -0.4255
10287TIP3    H255057   2.122   3.946   8.462  0.7055 -1.3954 -0.7143
10288TIP3   OH255058   5.101   2.783  10.558 -0.3317 -0.3348 -0.2699
10288TIP3    H155059   5.116   2.739  10.474  0.6216  1.6387 -1.2094
10288TIP3    H255060   5.126   2.874  10.542  0.7883 -0.0725  2.4200
10289TIP3   OH255061   5.353   3.151  11.430  0.2194  0.3197  0.3121
10289TIP3    H155062   5.448   3.143  11.438  0.4605  0.9212 -1.3982
10289TIP3    H255063   5.339   3.243  11.406 -1.0185  0.8495  2.7586
10290TIP3   OH255064   0.533   4.824  10.851 -0.2538 -0.0302 -0.3603
10290TIP3    H155065   0.613   4.792  10.811 -0.4384  0.4259 -1.1023
10290TIP3    H255066   0.502   4.893  10.793 -1.0291  0.0046  0.0734
10291TIP3   OH255067   5.099   2.436   9.931 -0.1314  0.8338  0.3235
10291TIP3    H155068   5.192   2.457   9.923 -0.1770  1.3731  1.1105
10291TIP3    H255069   5.085   2.426  10.025 -0.7470  0.1500  0.1644
10292TIP3   OH255070   0.021   2.038   9.027  0.0136 -0.1661  0.1555
10292TIP3    H155071  -0.003   2.105   9.090  0.3124  0.3945 -0.3183
10292TIP3    H255072  -0.044   1.969   9.039 -0.4909  0.3504  0.4248
10293TIP3   OH255073   2.340   3.983  10.727  0.0757  0.2533  0.0078
10293TIP3    H155074   2.372   3.959  10.814 -0.4981  1.1747  0.4915
10293TIP3    H255075   2.259   4.031  10.743 -0.3991 -0.1459 -1.0791
10294TIP3   OH255076   3.904   2.585  11.940  0.0459 -0.8309  0.5214
10294TIP3    H155077   3.901   2.649  12.011  2.1843  0.0612 -0.1118
10294TIP3    H255078   3.983   2.607  11.890 -1.3978 -1.3370 -2.2330
10295TIP3   OH255079   1.342   1.398   9.535 -0.0039  0.0999 -0.5074
10295TIP3    H155080   1.424   1.369   9.575  1.2956  2.5328 -1.1798
10295TIP3    H255081   1.352   1.377   9.442 -0.4063 -0.1145 -0.5024
10296TIP3   OH255082   4.852   5.745  10.292 -0.0017  0.2225  0.3527
10296TIP3    H155083   4.798   5.719  10.217 -1.2002  0.5904  1.0525
10296TIP3    H255084   4.896   5.665  10.319 -1.3561 -0.4527  0.6555
10297TIP3   OH255085   3.492   3.984  10.110  0.1996  0.0756 -0.1827
10297TIP3    H155086   3.405   4.010  10.083 -0.3432 -0.7868  0.6738
10297TIP3    H255087   3.479   3.939  10.194  1.3061 -1.1089 -0.6072
10298TIP3   OH255088   5.286   6.489   8.441  0.5142 -0.4510  0.1874
10298TIP3    H155089   5.241   6.563   8.403  0.0878 -0.2033  1.1338
10298TIP3    H255090   5.234   6.413   8.416  1.1727 -0.5015 -1.1205
10299TIP3   OH255091   4.757   1.219   9.209  0.0551 -0.1123  0.0337
10299TIP3    H155092   4.787   1.243   9.297 -1.0359  2.3215 -0.1973
10299TIP3    H255093   4.718   1.299   9.174  0.1972 -1.1073 -2.5780
10300TIP3   OH255094   0.394   6.514  10.911  0.2975  0.0385 -0.0474
10300TIP3    H155095   0.479   6.548  10.882  0.5703  0.7606  1.4845
10300TIP3    H255096   0.415   6.437  10.963 -0.2620 -1.9907 -2.5962
10301TIP3   OH255097   3.637   5.791   8.797  0.0566 -0.5952  0.5271
10301TIP3    H155098   3.673   5.851   8.863  2.1059 -0.9447 -0.2140
10301TIP3    H255099   3.632   5.844   8.717 -0.7445 -0.6680  0.5197
10302TIP3   OH255100   0.005   6.666   9.401  0.4528  0.2049  0.3736
10302TIP3    H155101   0.068   6.606   9.361  0.0614 -0.8746  1.3313
10302TIP3    H255102   0.036   6.753   9.375  2.1979 -0.3019  0.5981
10303TIP3   OH255103   2.554   5.696   7.834  0.0129 -0.8539  0.7255
10303TIP3    H155104   2.482   5.695   7.771  1.4330  4.2423 -1.5549
10303TIP3    H255105   2.521   5.746   7.908  0.2156 -1.5152  1.2762
10304TIP3   OH255106   6.459   0.156  10.262 -0.3658  0.3973 -0.1620
10304TIP3    H155107   6.469   0.133  10.355  0.2481  0.2214 -0.2624
10304TIP3    H255108   6.488   0.248  10.257  2.7691 -0.4828 -0.6653
10305TIP3   OH255109   1.576   3.788  11.278  0.0010  0.6545 -0.0194
10305TIP3    H155110   1.551   3.880  11.272  0.4903  0.7904 -0.0286
10305TIP3    H255111   1.672   3.789  11.271  0.0767  0.2256  0.8577
10306TIP3   OH255112   3.008   2.081  10.334 -0.6666  0.3883  0.3414
10306TIP3    H155113   3.071   2.031  10.282  0.5464  0.8681  1.3072
10306TIP3    H255114   2.979   2.151  10.277  0.0619  0.4504  0.0420
10307TIP3   OH255115   2.700   5.703  10.164  0.1864 -0.5602  0.2679
10307TIP3    H155116   2.786   5.736  10.191 -0.4009 -0.5941  2.3285
10307TIP3    H255117   2.676   5.641  10.232 -0.4144 -2.4651 -1.5616
10308TIP3   OH255118   1.546   3.657  10.702  0.5162 -0.4876  0.0475
10308TIP3    H155119   1.538   3.591  10.771 -1.7154  0.4750  0.7847
10308TIP3    H255120   1.494   3.623  10.630 -2.0428  1.1008  1.0259
10309TIP3   OH255121   3.739   2.170  11.198 -0.0994 -0.7915 -0.1169
10309TIP3    H155122   3.790   2.184  11.278 -2.2278  0.8872  1.0630
10309TIP3    H255123   3.655   2.212  11.215 -1.0522 -1.3341 -2.8594
10310TIP3   OH255124   4.200   5.442  10.536  0.0693  0.1872 -0.0145
10310TIP3    H155125   4.114   5.482  10.520  0.7665  1.6135 -0.3755
10310TIP3    H255126   4.262   5.514  10.524  1.2353 -0.5248  1.4767
10311TIP3   OH255127   6.546   0.786   8.794  0.1289 -0.8860  0.5090
10311TIP3    H155128   6.600   0.847   8.844 -1.4584  0.1941  0.9764
10311TIP3    H255129   6.534   0.829   8.709  0.4807 -1.3929  0.2004
10312TIP3   OH255130   6.596   3.511   9.561 -0.1518 -0.2684  0.1025
10312TIP3    H155131   6.659   3.573   9.599 -1.2083 -1.0545  3.5438
10312TIP3    H255132   6.515   3.561   9.553 -0.2100 -0.3951 -0.1001
10313TIP3   OH255133   6.525   1.661   9.990 -0.4175  0.1760  0.1821
10313TIP3    H155134   6.557   1.656  10.080 -0.0192 -0.1343  0.0250
10313TIP3    H255135   6.477   1.744   9.986  2.1875  1.7670 -0.1637
10314TIP3   OH255136   0.817   5.129   9.278  0.2906 -0.3398  0.3191
10314TIP3    H155137   0.795   5.078   9.356 -0.2728  0.7382  0.8786
10314TIP3    H255138   0.819   5.064   9.208 -0.1206 -1.1852  1.0616
10315TIP3   OH255139   4.259   3.998   9.615 -0.1547 -0.0448 -0.0151
10315TIP3    H155140   4.178   3.954   9.591 -1.2284  1.8060  0.0328
10315TIP3    H255141   4.246   4.089   9.589  0.7727  0.9201  2.5609
10316TIP3   OH255142   3.988   0.155  10.554  0.2818  0.7397  0.5038
10316TIP3    H155143   4.049   0.088  10.523  1.1679  1.6294  0.2725
10316TIP3    H255144   3.998   0.155  10.649 -1.3400 -0.9494  0.7342
10317TIP3   OH255145   0.083   2.969   8.836  0.0450 -0.0911 -0.2111
10317TIP3    H155146   0.109   2.887   8.878  2.2325  0.4283 -0.3879
10317TIP3    H255147   0.077   3.032   8.908  0.5987  0.0781 -0.3072
10318TIP3   OH255148   0.703   0.112   9.134 -0.0814 -0.0510 -0.2267
10318TIP3    H155149   0.777   0.170   9.149  0.1259 -0.2494 -0.4768
10318TIP3    H255150   0.731   0.027   9.168 -0.4462  0.0290  0.2915
10319TIP3   OH255151   5.697   6.304  10.282 -0.1639 -0.2955  0.2146
10319TIP3    H155152   5.660   6.223  10.248 -0.2732  0.6779 -2.2313
10319TIP3    H255153   5.676   6.369  10.215  0.1778  1.7085  1.9409
10320TIP3   OH255154   0.246   2.966   8.361  0.5034 -0.4871 -0.2022
10320TIP3    H155155   0.182   2.896   8.347  0.2886 -0.8325  2.1625
10320TIP3    H255156   0.285   2.947   8.446 -1.2933  3.5421  1.7737
10321TIP3   OH255157   4.123   5.344   9.873  0.6708  0.2750 -0.0056
10321TIP3    H155158   4.184   5.317   9.804  1.2412  1.7759 -0.1314
10321TIP3    H255159   4.165   5.317   9.954  0.5897 -0.3883 -0.1799
10322TIP3   OH255160   1.119   0.577   8.833  0.0243  0.0781  0.6409
10322TIP3    H155161   1.195   0.531   8.869  0.3072 -0.8069 -1.0163
10322TIP3    H255162   1.108   0.540   8.746 -1.6247  1.0178  0.4244
10323TIP3   OH255163   3.210   4.495   9.239 -0.2496 -0.4956  0.3891
10323TIP3    H155164   3.217   4.474   9.332  1.0871  2.2297  0.9956
10323TIP3    H255165   3.272   4.436   9.197  1.7081  0.5265  1.6992
10324TIP3   OH255166   4.905   4.925  10.587  0.4205 -0.1242  0.1179
10324TIP3    H155167   4.917   4.831  10.571  1.0986 -0.5117  2.4992
10324TIP3    H255168   4.824   4.947  10.540  0.3675 -1.8532 -0.6595
10325TIP3   OH255169   2.345   1.716   8.298  0.4292 -0.2410  0.3243
10325TIP3    H155170   2.391   1.670   8.228 -0.0886  0.1351 -0.2756
10325TIP3    H255171   2.309   1.647   8.353 -0.8991 -0.6016 -0.9292
10326TIP3   OH255172   4.209   2.722   9.411 -0.8628 -0.1567  0.2089
10326TIP3    H155173   4.294   2.724   9.456 -0.5062  1.0447 -0.4946
10326TIP3    H255174   4.226   2.676   9.329 -0.6611  0.9342 -0.3704
10327TIP3   OH255175   6.434   5.794   9.393 -0.4039  0.2830  0.2297
10327TIP3    H155176   6.479   5.831   9.317 -0.8730  0.3313 -0.0231
10327TIP3    H255177   6.345   5.827   9.387 -0.2435  0.9360  1.2341
10328TIP3   OH255178   0.527   1.921   9.237  0.3120 -0.0170 -0.1267
10328TIP3    H155179   0.585   1.898   9.310 -0.8005  0.6564  1.0215
10328TIP3    H255180   0.466   1.848   9.231  0.8937 -0.4521 -0.9476
10329TIP3   OH255181   2.818   6.145  10.877  0.5424 -0.0848 -0.1398
10329TIP3    H155182   2.874   6.104  10.943  1.9385 -0.4493 -1.4943
10329TIP3    H255183   2.857   6.232  10.864 -0.6518  0.5848  0.6019
10330TIP3   OH255184   1.062   3.115   9.373 -0.5140 -0.0399  0.1077
10330TIP3    H155185   1.025   3.172   9.305  0.2005  0.4038  0.0850
10330TIP3    H255186   1.083   3.175   9.445  2.1360  0.0858 -0.6745
10331TIP3   OH255187   1.731   4.051   8.760  0.1602  0.5444 -0.2416
10331TIP3    H155188   1.825   4.053   8.741 -0.0891  0.0870 -1.6315
10331TIP3    H255189   1.725   4.080   8.851  1.8447 -1.6899  0.6703
10332TIP3   OH255190   4.656   5.495   9.194  0.2674 -0.4820 -0.5522
10332TIP3    H155191   4.736   5.453   9.225  0.0504 -0.5168 -0.0330
10332TIP3    H255192   4.614   5.530   9.273 -0.0306 -0.1152 -0.8656
10333TIP3   OH255193   4.039   5.866   9.140 -0.4698 -0.1935 -0.1551
10333TIP3    H155194   4.091   5.909   9.072 -0.3988  0.3737  0.2455
10333TIP3    H255195   4.099   5.856   9.213 -1.0141  0.8513  0.4652
10334TIP3   OH255196   6.037   6.571   9.213  0.3898 -0.0089 -0.2758
10334TIP3    H155197   6.119   6.542   9.253 -1.7542 -1.1290  3.7617
10334TIP3    H255198   5.977   6.498   9.223 -1.9856  1.7953 -0.3157
10335TIP3   OH255199   6.749   5.065   7.984 -0.3757 -0.5974  0.2444
10335TIP3    H155200   6.778   4.976   8.001  0.5793 -0.2403  0.5589
10335TIP3    H255201   6.654   5.060   7.983 -0.3443 -1.4676  1.0897
10336TIP3   OH255202   2.246   5.341   9.686 -0.3927  0.1397  0.4943
10336TIP3    H155203   2.309   5.370   9.620 -0.5759 -0.2775  0.1253
10336TIP3    H255204   2.163   5.337   9.639 -0.0101 -3.1410 -0.1317
10337TIP3   OH255205   3.193   1.771   9.289 -0.0308  0.2074  0.3328
10337TIP3    H155206   3.120   1.828   9.313 -1.2445  0.0720 -2.6443
10337TIP3    H255207   3.178   1.691   9.340 -1.6570  0.3967  0.1948
10338TIP3   OH255208   4.128   5.095  10.746 -0.0959 -0.2438 -0.9491
10338TIP3    H155209   4.107   5.056  10.662  0.2639 -0.6712 -0.8462
10338TIP3    H255210   4.132   5.021  10.807  0.6808 -0.0712 -0.7705
10339TIP3   OH255211   1.722   4.439  10.436 -0.0799 -0.4061 -0.6058
10339TIP3    H155212   1.795   4.417  10.494  0.4270 -1.5180 -1.6385
10339TIP3    H255213   1.682   4.515  10.477  0.7795 -0.6523  0.7530
10340TIP3   OH255214   2.930   3.907  11.571 -0.3326 -0.5744  0.3978
10340TIP3    H155215   2.922   4.002  11.570  0.1792 -0.5285 -0.7927
10340TIP3    H255216   2.865   3.876  11.508 -1.3212 -1.1119  1.6242
10341TIP3   OH255217   3.434   3.778  10.803  0.0727  0.1680 -0.1878
10341TIP3    H155218   3.504   3.763  10.740  0.7006  0.9803  0.2955
10341TIP3    H255219   3.397   3.863  10.779  1.5154  1.3796  1.5790
10342TIP3   OH255220   4.136   4.291   8.286  0.8140  0.7076 -0.1256
10342TIP3    H155221   4.138   4.254   8.374  0.9556  0.8547 -0.0653
10342TIP3    H255222   4.153   4.217   8.228  0.7758  0.6203 -0.0262
10343TIP3   OH255223   0.167   2.493   9.904 -0.0407 -0.7280 -0.1762
10343TIP3    H155224   0.222   2.487   9.826  0.3096  1.4516 -0.1625
10343TIP3    H255225   0.230   2.495   9.977 -0.2240 -0.1818 -0.0285
10344TIP3   OH255226   1.552   3.599   8.774  0.2831  0.3123  0.0341
10344TIP3    H155227   1.498   3.660   8.825  0.2972 -0.0031  0.4323
10344TIP3    H255228   1.616   3.655   8.730 -0.1396  0.6529 -0.1557
10345TIP3   OH255229   3.813   2.839   8.741 -0.0589 -0.5682  0.3201
10345TIP3    H155230   3.729   2.803   8.713  0.5127 -0.5076 -1.6107
10345TIP3    H255231   3.877   2.799   8.682  0.9752  1.1046  0.2552
10346TIP3   OH255232   2.223   6.493   9.608  0.5459  0.2924  0.0831
10346TIP3    H155233   2.295   6.500   9.545 -0.8089  0.4032 -1.5256
10346TIP3    H255234   2.152   6.453   9.558 -1.2109  2.0955  1.0177
10347TIP3   OH255235   2.034   5.168  10.507 -0.0241 -0.1486 -0.1473
10347TIP3    H155236   2.078   5.237  10.557 -1.4839  0.8918 -0.2391
10347TIP3    H255237   2.013   5.101  10.571 -0.5988  0.5284  0.3839
10348TIP3   OH255238   6.143   1.397   8.061  0.2818  0.3350  0.5712
10348TIP3    H155239   6.065   1.360   8.019  1.4677  1.3636 -2.8469
10348TIP3    H255240   6.112   1.478   8.103 -0.6052  0.3711 -0.1289
10349TIP3   OH255241   4.683   5.155   9.231 -0.0029  0.4019  0.3685
10349TIP3    H155242   4.684   5.174   9.325 -0.2564  2.4300  0.0056
10349TIP3    H255243   4.754   5.207   9.194 -0.9307  0.9250 -0.7639
10350TIP3   OH255244   1.802   0.783  10.254 -0.1852 -0.0903  0.0211
10350TIP3    H155245   1.710   0.792  10.229 -0.2686  1.6787  0.7665
10350TIP3    H255246   1.846   0.851  10.202  0.3696  0.4166  1.1382
10351TIP3   OH255247   0.321   4.766   8.003 -0.2353 -0.1393  0.4096
10351TIP3    H155248   0.386   4.712   8.048  0.4006  0.2262 -0.0679
10351TIP3    H255249   0.340   4.755   7.910  0.0643  1.0932  0.3137
10352TIP3   OH255250   2.175   2.288   9.932  0.1144  0.5340 -0.5680
10352TIP3    H155251   2.188   2.345  10.008 -0.4455  0.9379 -0.7723
10352TIP3    H255252   2.090   2.313   9.897  0.0472 -0.1411 -0.9140
10353TIP3   OH255253   2.229   5.567   9.875  0.0630  0.6959  0.5700
10353TIP3    H155254   2.312   5.565   9.922  0.8814  1.3926 -0.7961
10353TIP3    H255255   2.235   5.497   9.811 -1.4492 -0.9089  2.0428
10354TIP3   OH255256   3.658   0.208   8.277 -0.2525 -0.6804 -0.0679
10354TIP3    H155257   3.630   0.215   8.368  0.2357  0.1296  0.0288
10354TIP3    H255258   3.741   0.255   8.274  0.1980 -1.4968 -0.7373
10355TIP3   OH255259   1.009   1.559   8.759  0.4511 -0.3365  0.2041
10355TIP3    H155260   1.032   1.649   8.780  0.9561 -1.0767  3.2365
10355TIP3    H255261   0.928   1.566   8.708 -0.1343  1.7699  1.3171
10356TIP3   OH255262   5.879   3.695   7.961 -0.6975 -0.6636 -0.0414
10356TIP3    H155263   5.876   3.746   8.042  0.7558 -1.4776  0.5658
10356TIP3    H255264   5.894   3.760   7.893 -1.8960  0.0307  0.3241
10357TIP3   OH255265   2.715   4.767   8.101  0.9219 -0.3471 -0.5618
10357TIP3    H155266   2.669   4.692   8.063 -1.2819  0.9611 -0.6752
10357TIP3    H255267   2.740   4.738   8.189 -0.8853 -0.9060 -0.1844
10358TIP3   OH255268   5.258   4.806  10.791 -0.3130 -0.1485 -0.3766
10358TIP3    H155269   5.205   4.854  10.854  0.9337  1.6000 -0.6021
10358TIP3    H255270   5.345   4.802  10.831 -0.1237 -1.2738 -0.8685
10359TIP3   OH255271   1.703   1.765   8.000  0.1855  0.6423 -0.2915
10359TIP3    H155272   1.613   1.754   7.968 -0.3199  1.2656  0.8708
10359TIP3    H255273   1.706   1.854   8.033  1.6134  1.0512 -1.4094
10360TIP3   OH255274   6.182   2.894   8.382 -0.0774  0.0381 -0.3824
10360TIP3    H155275   6.171   2.802   8.405  0.8222  0.5319  2.4173
10360TIP3    H255276   6.224   2.893   8.295 -0.6881 -2.1355 -0.6929
10361TIP3   OH255277   2.350   4.066   9.492 -0.0333  0.0706  0.4719
10361TIP3    H155278   2.307   4.143   9.456 -0.0833 -0.4075 -0.5280
10361TIP3    H255279   2.293   3.993   9.466 -1.3028 -0.1409  3.4288
10362TIP3   OH255280   4.890   2.670   8.597 -0.2382 -0.0744  0.6744
10362TIP3    H155281   4.952   2.641   8.530  0.3190  0.8247  0.7828
10362TIP3    H255282   4.813   2.616   8.583 -0.1711  0.1635 -0.7605
10363TIP3   OH255283   5.041   4.071   8.367 -0.1216 -0.5694  0.3444
10363TIP3    H155284   4.971   4.122   8.326  0.5591 -0.8403 -1.2173
10363TIP3    H255285   5.082   4.133   8.427 -0.0333  0.4152 -0.6857
10364TIP3   OH255286   1.052   6.686   9.601 -0.7324 -0.3635 -0.5074
10364TIP3    H155287   1.050   6.630   9.523  1.5903 -0.7439 -0.3563
10364TIP3    H255288   1.062   6.625   9.674  1.0145  0.1314 -0.2797
10365TIP3   OH255289   2.136   4.095   8.348 -0.5799  0.2021  0.1089
10365TIP3    H155290   2.121   4.123   8.257 -2.1412 -1.6916 -0.3003
10365TIP3    H255291   2.077   4.150   8.399 -1.7230 -0.5501 -0.3693
10366TIP3   OH255292   6.319   4.952   9.948 -0.2490 -0.1158  0.3798
10366TIP3    H155293   6.233   4.939   9.989 -1.0276 -0.2384 -1.1918
10366TIP3    H255294   6.363   4.867   9.958 -0.0829  0.0971  1.6421
10367TIP3   OH255295   5.804   6.651  10.569  0.1433  0.0591 -0.1618
10367TIP3    H155296   5.874   6.664  10.506  0.3572  1.5407  0.3500
10367TIP3    H255297   5.846   6.609  10.644  0.2258 -0.1977 -0.3524
10368TIP3   OH255298   2.092   6.286   9.169 -0.0967  0.4192 -0.4749
10368TIP3    H155299   2.053   6.199   9.158 -0.0527  0.3905 -0.4044
10368TIP3    H255300   2.137   6.303   9.086 -0.0747  0.3595 -0.4754
10369TIP3   OH255301   2.597   1.291  10.590  0.2038  1.0027 -0.7498
10369TIP3    H155302   2.528   1.340  10.544 -0.5768 -0.1164 -0.8073
10369TIP3    H255303   2.614   1.343  10.668 -1.2872  0.9198 -0.3304
10370TIP3   OH255304   3.174   3.140  10.572  0.1077 -0.0505 -0.2574
10370TIP3    H155305   3.100   3.119  10.515  0.3444 -0.0636 -0.5594
10370TIP3    H255306   3.216   3.215  10.530  1.2815 -1.1082 -1.0035
10371TIP3   OH255307   0.362   5.101  11.584  0.1752  0.3087  0.3142
10371TIP3    H155308   0.285   5.119  11.531 -0.0255 -0.0609  0.4765
10371TIP3    H255309   0.334   5.033  11.645  0.5092  0.4643  0.6502
10372TIP3   OH255310   2.134   4.588   8.610 -0.2896 -0.0010  0.3303
10372TIP3    H155311   2.117   4.631   8.526 -0.6978  1.3367  1.0743
10372TIP3    H255312   2.223   4.554   8.601 -0.4628 -0.2234 -0.7743
10373TIP3   OH255313   3.643   5.380  11.472 -0.1381  0.0999  0.4690
10373TIP3    H155314   3.609   5.425  11.395 -0.7160  1.1982  1.3434
10373TIP3    H255315   3.708   5.319  11.437  0.9962  1.9125 -0.7161
10374TIP3   OH255316   5.859   3.267   8.458 -0.2700  0.1247 -0.1227
10374TIP3    H155317   5.891   3.209   8.389 -1.0461 -0.5047  0.0292
10374TIP3    H255318   5.773   3.231   8.481 -0.2728  0.6727  0.7608
10375TIP3   OH255319   3.088   1.993   8.839  0.6502  0.3661 -0.1234
10375TIP3    H155320   2.993   2.008   8.842  0.4803 -0.6104 -0.2141
10375TIP3    H255321   3.097   1.898   8.842  1.7943  0.4383  3.7432
10376TIP3   OH255322   0.949   2.673   9.386  0.1288  0.2605  0.1903
10376TIP3    H155323   0.998   2.740   9.339 -0.1347  0.0996 -0.3245
10376TIP3    H255324   0.996   2.662   9.468  0.9160  0.1544 -0.2645
10377TIP3   OH255325   4.556   6.477   9.298 -0.4474  0.3130 -0.4420
10377TIP3    H155326   4.607   6.518   9.228  0.2974  2.2575  1.1342
10377TIP3    H255327   4.476   6.448   9.256  0.0275  1.3162 -2.1289
10378TIP3   OH255328   5.213   0.286   8.072  0.1290 -0.1150  0.5591
10378TIP3    H155329   5.143   0.351   8.074 -1.8223 -2.1240  0.7379
10378TIP3    H255330   5.214   0.253   7.982 -0.2209 -1.1580  0.9192
10379TIP3   OH255331   1.464   1.435   8.829  0.5857  0.3077 -0.0043
10379TIP3    H155332   1.540   1.492   8.811  1.1024 -0.3661 -0.0011
10379TIP3    H255333   1.404   1.452   8.757  1.2876 -0.0645 -0.6989
10380TIP3   OH255334   0.332   1.379   8.389 -0.0917  0.3374  0.4998
10380TIP3    H155335   0.248   1.382   8.342  0.2340  0.9010 -0.0571
10380TIP3    H255336   0.349   1.471   8.412  1.3538  0.5429 -1.1750
10381TIP3   OH255337   1.390   5.989  10.265  0.1586  0.4338 -0.5124
10381TIP3    H155338   1.325   6.052  10.234 -1.2054 -0.0678  1.1819
10381TIP3    H255339   1.417   5.942  10.186  0.0491  2.0662 -1.5732
10382TIP3   OH255340   4.422   1.447   8.467 -0.1213 -0.3873 -0.2597
10382TIP3    H155341   4.381   1.385   8.406  1.6552 -0.6770 -1.2174
10382TIP3    H255342   4.371   1.527   8.458  0.0563 -0.4515 -2.0910
10383TIP3   OH255343   4.623   3.892  10.994 -0.3932 -0.1950  0.3734
10383TIP3    H155344   4.601   3.909  11.085  0.7832 -1.0734  0.8550
10383TIP3    H255345   4.548   3.844  10.960 -0.9909  0.4388  0.7666
10384TIP3   OH255346   0.370   5.309   8.959 -0.2264 -0.0895  0.3778
10384TIP3    H155347   0.378   5.321   8.865  1.8292  0.8698  0.6183
10384TIP3    H255348   0.301   5.244   8.969 -1.5156  0.8395 -1.7036
10385TIP3   OH255349   1.855   2.624   9.896 -0.1227 -0.5747 -0.5163
10385TIP3    H155350   1.844   2.672   9.813  1.4213 -1.6509 -1.4036
10385TIP3    H255351   1.947   2.634   9.917  0.0875 -2.5103 -0.3469
10386TIP3   OH255352   5.690   3.574   8.224  0.1545  0.0603 -0.0846
10386TIP3    H155353   5.747   3.553   8.149 -1.8719  0.8690 -1.9550
10386TIP3    H255354   5.746   3.561   8.301  2.0739 -1.7181 -1.6538
10387TIP3   OH255355   6.245   1.873   8.428  0.3740 -1.1146  0.0119
10387TIP3    H155356   6.230   1.884   8.335 -0.3423 -1.4563  0.0840
10387TIP3    H255357   6.291   1.953   8.455  0.5926 -1.0244 -0.6285
10388TIP3   OH255358   3.962   6.267  10.745  0.3546  0.1947  0.5321
10388TIP3    H155359   4.011   6.225  10.815 -1.1395  0.0382  1.5274
10388TIP3    H255360   3.870   6.245  10.763 -0.1048  0.4394 -1.2808
10389TIP3   OH255361   4.883   5.789  10.740 -0.4880  0.2559 -0.0626
10389TIP3    H155362   4.939   5.719  10.708 -0.0346  1.0104 -0.9442
10389TIP3    H255363   4.943   5.855  10.775 -0.8220  0.9769 -0.8190
10390TIP3   OH255364   5.724   1.837  11.029 -0.3608 -0.0472 -0.4503
10390TIP3    H155365   5.801   1.793  11.066 -1.1827 -2.1983 -1.1327
10390TIP3    H255366   5.688   1.887  11.102 -0.4784 -2.1282  1.0153
10391TIP3   OH255367   2.372   5.053  10.887  0.2368  0.1268 -0.3537
10391TIP3    H155368   2.336   5.034  10.973 -1.6657  0.9228 -0.9278
10391TIP3    H255369   2.455   5.098  10.904  1.2307 -2.0869  1.0142
10392TIP3   OH255370   3.996   5.025   9.260 -0.7968 -0.2535  0.0147
10392TIP3    H155371   3.992   5.093   9.192 -0.1438 -0.6514 -0.4370
10392TIP3    H255372   3.996   4.943   9.212 -0.0401 -0.5324  0.4771
10393TIP3   OH255373   1.907   5.752  10.972 -0.1607 -0.1225  0.3117
10393TIP3    H155374   1.852   5.805  10.914  1.1493 -0.5550 -1.4402
10393TIP3    H255375   1.853   5.735  11.049 -1.0354  2.7001  0.4009
10394TIP3   OH255376   1.587   5.198   8.507  0.2806  0.0845  0.4853
10394TIP3    H155377   1.666   5.159   8.545  0.1756  1.7917  2.6518
10394TIP3    H255378   1.576   5.152   8.424  1.0141 -3.3572  2.0806
10395TIP3   OH255379   6.662   6.147  10.603  0.3158  0.1380  0.1525
10395TIP3    H155380   6.586   6.170  10.657 -0.7417  0.3375 -1.3548
10395TIP3    H255381   6.734   6.139  10.665 -0.7870  0.6303  1.5515
10396TIP3   OH255382   5.853   1.125   8.221  0.0064  0.5803 -0.1110
10396TIP3    H155383   5.759   1.137   8.236 -0.4174 -1.9927 -0.1821
10396TIP3    H255384   5.877   1.195   8.161 -1.2092  2.9634  1.9828
10397TIP3   OH255385   2.943   4.114  10.898 -0.1151 -0.4844  0.2204
10397TIP3    H155386   2.852   4.084  10.903 -0.4897  0.0182 -2.2829
10397TIP3    H255387   2.987   4.045  10.848  0.7989 -0.4817  0.9996
10398TIP3   OH255388   1.717   3.891  10.667 -0.3109 -0.2963 -0.0459
10398TIP3    H155389   1.650   3.825  10.686  1.8947 -2.3433  1.0883
10398TIP3    H255390   1.763   3.904  10.750 -1.1151  3.3486 -0.0214
10399TIP3   OH255391   1.574   4.198   7.720  0.2480 -0.0224  0.2010
10399TIP3    H155392   1.586   4.108   7.751 -0.6894  0.0583  0.8283
10399TIP3    H255393   1.619   4.251   7.786  1.6477 -0.0607 -0.6756
10400TIP3   OH255394   1.954   4.009  10.159 -0.3000 -0.3312 -0.0520
10400TIP3    H155395   1.975   3.916  10.168 -0.4843 -0.5628 -1.7023
10400TIP3    H255396   2.029   4.055  10.198  0.7282 -1.1687 -0.9908
10401TIP3   OH255397   0.581   3.500   8.281  0.3743  0.4898  0.1425
10401TIP3    H155398   0.623   3.556   8.216  1.2601  0.4321  0.6469
10401TIP3    H255399   0.653   3.451   8.321 -0.0326  1.1488  1.7681
10402TIP3   OH255400   2.016   3.794   8.126  0.3088 -0.0041 -0.4223
10402TIP3    H155401   2.009   3.822   8.218 -2.1127  1.4740 -0.9551
10402TIP3    H255402   1.980   3.705   8.126 -1.3776  0.6264 -0.1322
10403TIP3   OH255403   3.350   1.182  10.537 -0.3416  1.3592  0.3100
10403TIP3    H155404   3.275   1.150  10.587 -1.3180  2.6462 -0.2734
10403TIP3    H255405   3.422   1.183  10.599 -0.6175 -0.5796  0.7001
10404TIP3   OH255406   5.323   1.781  10.827  0.0105 -0.2423  0.6223
10404TIP3    H155407   5.267   1.706  10.844 -0.0853 -0.4961 -0.6677
10404TIP3    H255408   5.400   1.744  10.783  0.4875  0.2801  1.0003
10405TIP3   OH255409   3.311   1.834   9.947 -0.0078  0.0509 -0.1111
10405TIP3    H155410   3.404   1.854   9.936  0.4595 -2.1487 -0.6700
10405TIP3    H255411   3.291   1.863  10.036  1.4890 -0.3189  0.3766
10406TIP3   OH255412   6.485   4.559   9.701  0.2852 -0.2903 -0.2809
10406TIP3    H155413   6.564   4.568   9.647 -0.7420 -0.1644 -1.8196
10406TIP3    H255414   6.503   4.613   9.778  1.0777  1.0480 -1.3411
10407TIP3   OH255415   0.761   0.481   9.900  0.6242 -0.1308  0.0515
10407TIP3    H155416   0.699   0.517   9.964  0.5360  1.1308 -0.7129
10407TIP3    H255417   0.706   0.449   9.828  0.8358  1.1244 -0.6950
10408TIP3   OH255418   2.804   0.509   9.932 -0.0196 -0.3615  0.3168
10408TIP3    H155419   2.826   0.518  10.024  0.7596 -2.0687  0.3279
10408TIP3    H255420   2.840   0.425   9.906  0.2484  0.3083 -1.6963
10409TIP3   OH255421   1.491   3.465  10.883 -0.4032 -0.0341 -0.6827
10409TIP3    H155422   1.536   3.381  10.875 -1.8482 -1.0248  0.7050
10409TIP3    H255423   1.424   3.449  10.950 -0.9600  2.1371 -0.6492
10410TIP3   OH255424   0.968   6.326  10.198 -0.2245 -0.3219  0.0717
10410TIP3    H155425   0.872   6.319  10.207 -0.3995 -1.0950 -1.9381
10410TIP3    H255426   0.987   6.417  10.220 -1.2570 -0.4159  1.5523
10411TIP3   OH255427   5.255   0.376   8.931  0.0408 -0.6949  0.0503
10411TIP3    H155428   5.317   0.346   8.866  1.0131  0.2558  0.5056
10411TIP3    H255429   5.258   0.472   8.925  2.4912 -0.3689  3.5044
10412TIP3   OH255430   1.164   3.577   9.757 -0.4506  0.0202 -0.1957
10412TIP3    H155431   1.099   3.638   9.790  1.9233  1.5997  1.8673
10412TIP3    H255432   1.174   3.512   9.826  2.1856  1.4793  0.9281
10413TIP3   OH255433   2.028   1.439   8.765  0.4146  0.2712 -0.1691
10413TIP3    H155434   2.086   1.502   8.806 -0.3971  1.1136 -0.2750
10413TIP3    H255435   2.052   1.440   8.673 -0.1511  1.0844 -0.3244
10414TIP3   OH255436   2.891   6.697   9.308 -0.1256  0.0837 -0.2368
10414TIP3    H155437   2.962   6.743   9.263  1.1236 -0.8067  0.7475
10414TIP3    H255438   2.883   6.614   9.261  0.0250 -0.1411  0.1295
10415TIP3   OH255439   3.816   3.746   8.734  0.2297 -0.0341 -0.2493
10415TIP3    H155440   3.867   3.823   8.760 -0.8815  0.1802  1.4118
10415TIP3    H255441   3.822   3.745   8.638  2.7262  0.3849 -0.1751
10416TIP3   OH255442   3.745   0.145  10.324 -0.1147 -0.5170  0.4678
10416TIP3    H155443   3.787   0.164  10.407  0.0708  2.0082 -0.1314
10416TIP3    H255444   3.812   0.096  10.274  1.0556  0.8906  0.5943
10417TIP3   OH255445   6.423   2.396   9.488  0.3429 -0.1625  0.3887
10417TIP3    H155446   6.459   2.432   9.569  1.7755  0.9093 -0.6615
10417TIP3    H255447   6.498   2.358   9.443 -0.5447 -1.3388 -0.1677
10418TIP3   OH255448   5.597   2.520  11.574  0.1696 -0.1327  0.0067
10418TIP3    H155449   5.647   2.586  11.525  0.8327 -1.6210 -1.4081
10418TIP3    H255450   5.506   2.543  11.559  0.3876  0.7820  0.0153
10419TIP3   OH255451   3.812   3.582  10.541 -0.1285  0.2160  0.3384
10419TIP3    H155452   3.901   3.611  10.523 -0.2443  0.3993  0.0669
10419TIP3    H255453   3.769   3.658  10.580 -0.2970  0.2735  0.0474
10420TIP3   OH255454   5.451   4.423  10.276 -0.2793  0.1485  0.0592
10420TIP3    H155455   5.482   4.445  10.189  0.1964 -1.4259 -0.1832
10420TIP3    H255456   5.360   4.397  10.263 -0.7293  1.5063  0.2968
10421TIP3   OH255457   0.069   0.846   8.282  0.7530  0.3654  0.0372
10421TIP3    H155458  -0.011   0.898   8.281 -0.4476 -1.2668 -3.2192
10421TIP3    H255459   0.086   0.828   8.189  3.1171 -2.0184  0.8277
10422TIP3   OH255460   5.660   2.465   8.651 -0.2596 -0.2136 -0.5791
10422TIP3    H155461   5.661   2.384   8.702  3.5718  0.6632  1.1082
10422TIP3    H255462   5.579   2.509   8.678  0.1658 -1.1052  2.6475
10423TIP3   OH255463   5.860   4.136  11.365 -0.5298  0.0371 -0.2566
10423TIP3    H155464   5.799   4.146  11.438 -1.6904 -2.2871 -0.8287
10423TIP3    H255465   5.941   4.105  11.405 -0.7395  0.0244  0.1585
10424TIP3   OH255466   3.694   2.985   9.767 -0.2067  0.3913  0.1403
10424TIP3    H155467   3.771   3.034   9.738 -0.1016  0.3885  0.4142
10424TIP3    H255468   3.698   2.903   9.717  1.2897 -0.6602  1.8449
10425TIP3   OH255469   0.107   5.193  10.034  0.0811 -0.3812  0.1572
10425TIP3    H155470   0.088   5.268  10.091 -1.9468 -0.8552  0.2058
10425TIP3    H255471   0.055   5.122  10.072 -1.7497 -0.6112 -2.4855
10426TIP3   OH255472   2.947   5.105   9.749 -0.2436 -0.3520  0.2120
10426TIP3    H155473   2.929   5.071   9.662  2.2799  0.7182 -0.8271
10426TIP3    H255474   2.927   5.198   9.744  0.2585 -0.2137  0.6664
10427TIP3   OH255475   1.340   5.362  10.901  0.4945 -0.3849 -0.3944
10427TIP3    H155476   1.427   5.350  10.863  0.7720  2.1838 -0.7284
10427TIP3    H255477   1.310   5.447  10.868 -2.1369 -1.1498 -0.2346
10428TIP3   OH255478   2.221   2.020   9.897  0.6603 -0.3862  0.3664
10428TIP3    H155479   2.272   2.009   9.817  3.2246 -0.0994  1.8537
10428TIP3    H255480   2.183   2.108   9.888  1.1903 -0.2202 -0.3906
10429TIP3   OH255481   4.759   2.363   9.444  0.3124  0.7879  0.2880
10429TIP3    H155482   4.731   2.390   9.532 -1.3797  0.4246 -0.1044
10429TIP3    H255483   4.773   2.445   9.397 -0.7923  1.0092  0.3129
10430TIP3   OH255484   1.303   0.411   8.921  0.2221 -0.4070 -0.6667
10430TIP3    H155485   1.331   0.452   9.003  0.7961  1.9631 -1.9590
10430TIP3    H255486   1.356   0.331   8.915  0.1306 -0.6590  1.2464
10431TIP3   OH255487   4.078   1.728  11.334 -0.3074 -0.3839 -0.1441
10431TIP3    H155488   4.004   1.675  11.364 -0.6087 -0.6486 -1.2982
10431TIP3    H255489   4.085   1.798  11.399 -0.5124 -1.2864  0.8753
10432TIP3   OH255490   4.282   5.983  10.413 -0.4438  0.5126 -0.6949
10432TIP3    H155491   4.316   5.924  10.346  1.3481  2.5243 -1.6411
10432TIP3    H255492   4.329   5.959  10.493 -1.7702 -1.1306 -0.3392
10433TIP3   OH255493   2.488   2.605   7.852  0.5761  0.0699 -0.5541
10433TIP3    H155494   2.529   2.691   7.864  1.0123 -0.2726  0.5280
10433TIP3    H255495   2.403   2.624   7.813  0.5175  1.0283  0.0189
10434TIP3   OH255496   1.854   2.550   7.891  0.4133  0.5414 -0.0453
10434TIP3    H155497   1.880   2.482   7.829 -2.6707 -0.6638 -0.2301
10434TIP3    H255498   1.934   2.571   7.939  1.8628 -2.0120 -1.1281
10435TIP3   OH255499   1.910   0.800   9.873  0.0055 -0.2809 -0.2695
10435TIP3    H155500   1.961   0.837   9.945  3.0165 -0.5935 -2.0785
10435TIP3    H255501   1.925   0.706   9.879 -1.1026 -0.4758 -0.3584
10436TIP3   OH255502   6.416   4.790  10.617 -0.3261  0.6152 -0.3704
10436TIP3    H155503   6.409   4.881  10.644 -1.6754  0.5395 -0.4077
10436TIP3    H255504   6.344   4.746  10.663 -0.2295 -0.2606 -1.0350
10437TIP3   OH255505   3.198   3.472   8.467  0.1423 -0.3621  0.3053
10437TIP3    H155506   3.125   3.530   8.446 -0.0915 -0.6939  0.1989
10437TIP3    H255507   3.172   3.429   8.549  0.6184  0.1937  0.7613
10438TIP3   OH255508   0.750   3.550  11.380  0.0098 -0.1304 -0.4527
10438TIP3    H155509   0.832   3.513  11.412  0.6571 -0.1518 -2.0488
10438TIP3    H255510   0.758   3.644  11.394 -0.0286 -0.2109  0.1130
10439TIP3   OH255511   5.380   1.329   8.828  0.6881 -0.1906  0.2131
10439TIP3    H155512   5.428   1.351   8.749  0.8742  0.8275  0.5895
10439TIP3    H255513   5.431   1.369   8.899 -1.7907  2.9348  0.4685
   6.75230   6.75230  30.00000
